
     Program PWSCF v.6.4.1 starts on  7Sep2022 at  7:35: 1 

     This program is part of the open-source Quantum ESPRESSO suite
     for quantum simulation of materials; please cite
         "P. Giannozzi et al., J. Phys.:Condens. Matter 21 395502 (2009);
         "P. Giannozzi et al., J. Phys.:Condens. Matter 29 465901 (2017);
          URL http://www.quantum-espresso.org", 
     in publications or presentations arising from this work. More details at
     http://www.quantum-espresso.org/quote

     Parallel version (MPI), running on     6 processors

     MPI processes distributed on     1 nodes
     R & G space division:  proc/nbgrp/npool/nimage =       6
     Reading input from distance-3.5.in

     Current dimensions of program PWSCF are:
     Max number of different atomic species (ntypx) = 10
     Max number of k-points (npk) =  40000
     Max angular momentum in pseudopotentials (lmaxx) =  3

     IMPORTANT: XC functional enforced from input :
     Exchange-correlation      = RVV10 ( 1  4 13  4 3 0)
     Any further DFT definition will be discarded
     Please, verify this is what you really want

               file H.pbe-rrkjus.UPF: wavefunction(s)  1S renormalized
               file Cu.pbe-dn-rrkjus_psl.1.0.0.UPF: wavefunction(s)  3D renormalized

     Subspace diagonalization in iterative solution of the eigenvalue problem:
     a serial algorithm will be used


     Parallelization info
     --------------------
     sticks:   dense  smooth     PW     G-vecs:    dense   smooth      PW
     Min        3051    1746    432               270999   117096   14629
     Max        3053    1747    437               271001   117099   14630
     Sum       18313   10477   2611              1626001   702581   87777



     bravais-lattice index     =            4
     lattice parameter (alat)  =      23.2937  a.u.
     unit-cell volume          =    8879.8548 (a.u.)^3
     number of atoms/cell      =           52
     number of atomic types    =            3
     number of electrons       =       209.00
     number of Kohn-Sham states=          126
     kinetic-energy cutoff     =      70.0000  Ry
     charge density cutoff     =     490.0000  Ry
     convergence threshold     =      1.0E-06
     mixing beta               =       0.7000
     number of iterations used =            8  plain     mixing
     Exchange-correlation      = RVV10 ( 1  4 13  4 3 0)

     celldm(1)=  23.293684  celldm(2)=   0.000000  celldm(3)=   0.811261
     celldm(4)=   0.000000  celldm(5)=   0.000000  celldm(6)=   0.000000

     crystal axes: (cart. coord. in units of alat)
               a(1) = (   1.000000   0.000000   0.000000 )  
               a(2) = (  -0.500000   0.866025   0.000000 )  
               a(3) = (   0.000000   0.000000   0.811261 )  

     reciprocal axes: (cart. coord. in units 2 pi/alat)
               b(1) = (  1.000000  0.577350 -0.000000 )  
               b(2) = (  0.000000  1.154701  0.000000 )  
               b(3) = (  0.000000 -0.000000  1.232649 )  


     PseudoPot. # 1 for H  read from file:
     /home/cristian/Escritorio/Proyecto_Grafeno/pseudopotenciales/H.pbe-rrkjus.UPF
     MD5 check sum: 7cc9d459525c9a0585f487a71c3c9563
     Pseudo is Ultrasoft, Zval =  1.0
     Generated by new atomic code, or converted to UPF format
     Using radial grid of 1061 points,  2 beta functions with: 
                l(1) =   0
                l(2) =   0
     Q(r) pseudized with 0 coefficients 


     PseudoPot. # 2 for C  read from file:
     /home/cristian/Escritorio/Proyecto_Grafeno/pseudopotenciales/C.pbe-n-rrkjus_psl.1.0.0.UPF
     MD5 check sum: 1fdd950c42eb37d8afe3dd2f8d12311e
     Pseudo is Ultrasoft + core correction, Zval =  4.0
     Generated using "atomic" code by A. Dal Corso v.6.3MaX
     Using radial grid of 1073 points,  4 beta functions with: 
                l(1) =   0
                l(2) =   0
                l(3) =   1
                l(4) =   1
     Q(r) pseudized with 0 coefficients 


     PseudoPot. # 3 for Cu read from file:
     /home/cristian/Escritorio/Proyecto_Grafeno/pseudopotenciales/Cu.pbe-dn-rrkjus_psl.1.0.0.UPF
     MD5 check sum: ba3d6c84e19846e79d48cdc68ff7152b
     Pseudo is Ultrasoft + core correction, Zval = 11.0
     Generated using "atomic" code by A. Dal Corso v.6.3
     Using radial grid of 1199 points,  6 beta functions with: 
                l(1) =   0
                l(2) =   0
                l(3) =   1
                l(4) =   1
                l(5) =   2
                l(6) =   2
     Q(r) pseudized with 0 coefficients 


     vdW kernel table read from file rVV10_kernel_table
     MD5 check sum: b8e2538accc0c0b3206b45ba4daaba6c

     atomic species   valence    mass     pseudopotential
        H              1.00     1.00794     H ( 1.00)
        C              4.00    12.01070     C ( 1.00)
        Cu            11.00    63.54600     Cu( 1.00)

     Starting magnetic structure 
     atomic species   magnetization
        H            0.500
        C            0.300
        Cu           0.800

     No symmetry found


                                    s                        frac. trans.

      isym =  1     identity                                     

 cryst.   s( 1) = (     1          0          0      )
                  (     0          1          0      )
                  (     0          0          1      )

 cart.    s( 1) = (  1.0000000  0.0000000  0.0000000 )
                  (  0.0000000  1.0000000  0.0000000 )
                  (  0.0000000  0.0000000  1.0000000 )


     point group C_1 (1)    
     there are  1 classes
     the character table:

       E    
A      1.00

     the symmetry operations in each class and the name of the first element:

     E        1
          identity                                               

   Cartesian axes

     site n.     atom                  positions (alat units)
         1           H   tau(   1) = (   0.2194937   0.4907477   0.2839414  )
         2           H   tau(   2) = (   0.2805063   0.4907477   0.2839414  )
         3           C   tau(   3) = (   0.0000000   0.0000000   0.0000000  )
         4           C   tau(   4) = (   0.0000000   0.1154701   0.0000000  )
         5           C   tau(   5) = (  -0.1000000   0.1732051   0.0000000  )
         6           C   tau(   6) = (  -0.1000000   0.2886751   0.0000000  )
         7           C   tau(   7) = (  -0.2000000   0.3464102   0.0000000  )
         8           C   tau(   8) = (  -0.2000000   0.4618802   0.0000000  )
         9           C   tau(   9) = (  -0.3000000   0.5196152   0.0000000  )
        10           C   tau(  10) = (  -0.3000000   0.6350853   0.0000000  )
        11           C   tau(  11) = (  -0.4000000   0.6928203   0.0000000  )
        12           C   tau(  12) = (  -0.4000000   0.8082904   0.0000000  )
        13           C   tau(  13) = (   0.2000000   0.0000000   0.0000000  )
        14           C   tau(  14) = (   0.2000000   0.1154701   0.0000000  )
        15           C   tau(  15) = (   0.1000000   0.1732051   0.0000000  )
        16           C   tau(  16) = (   0.1000000   0.2886751   0.0000000  )
        17           C   tau(  17) = (   0.0000000   0.3464102   0.0000000  )
        18           C   tau(  18) = (   0.0000000   0.4618802   0.0000000  )
        19           C   tau(  19) = (  -0.1000000   0.5196152   0.0000000  )
        20           C   tau(  20) = (  -0.1000000   0.6350853   0.0000000  )
        21           C   tau(  21) = (  -0.2000000   0.6928203   0.0000000  )
        22           C   tau(  22) = (  -0.2000000   0.8082904   0.0000000  )
        23           C   tau(  23) = (   0.4000000   0.0000000   0.0000000  )
        24           C   tau(  24) = (   0.4000000   0.1154701   0.0000000  )
        25           C   tau(  25) = (   0.3000000   0.1732051   0.0000000  )
        26           C   tau(  26) = (   0.3000000   0.2886751   0.0000000  )
        27           C   tau(  27) = (   0.2000000   0.3464102   0.0000000  )
        28           Cu  tau(  28) = (   0.2000000   0.4618802   0.0000000  )
        29           C   tau(  29) = (   0.1000000   0.5196152   0.0000000  )
        30           C   tau(  30) = (   0.1000000   0.6350853   0.0000000  )
        31           C   tau(  31) = (   0.0000000   0.6928203   0.0000000  )
        32           C   tau(  32) = (   0.0000000   0.8082904   0.0000000  )
        33           C   tau(  33) = (   0.6000000   0.0000000   0.0000000  )
        34           C   tau(  34) = (   0.6000000   0.1154701   0.0000000  )
        35           C   tau(  35) = (   0.5000000   0.1732051   0.0000000  )
        36           C   tau(  36) = (   0.5000000   0.2886751   0.0000000  )
        37           C   tau(  37) = (   0.4000000   0.3464102   0.0000000  )
        38           C   tau(  38) = (   0.4000000   0.4618802   0.0000000  )
        39           C   tau(  39) = (   0.3000000   0.5196152   0.0000000  )
        40           C   tau(  40) = (   0.3000000   0.6350853   0.0000000  )
        41           C   tau(  41) = (   0.2000000   0.6928203   0.0000000  )
        42           C   tau(  42) = (   0.2000000   0.8082904   0.0000000  )
        43           C   tau(  43) = (   0.8000000   0.0000000   0.0000000  )
        44           C   tau(  44) = (   0.8000000   0.1154701   0.0000000  )
        45           C   tau(  45) = (   0.7000000   0.1732051   0.0000000  )
        46           C   tau(  46) = (   0.7000000   0.2886751   0.0000000  )
        47           C   tau(  47) = (   0.6000000   0.3464102   0.0000000  )
        48           C   tau(  48) = (   0.6000000   0.4618802   0.0000000  )
        49           C   tau(  49) = (   0.5000000   0.5196152   0.0000000  )
        50           C   tau(  50) = (   0.5000000   0.6350853   0.0000000  )
        51           C   tau(  51) = (   0.4000000   0.6928203   0.0000000  )
        52           C   tau(  52) = (   0.4000000   0.8082904   0.0000000  )

   Crystallographic axes

     site n.     atom                  positions (cryst. coord.)
         1           H   tau(   1) = (  0.5028270  0.5666667  0.3500000  )
         2           H   tau(   2) = (  0.5638397  0.5666667  0.3500000  )
         3           C   tau(   3) = (  0.0000000  0.0000000  0.0000000  )
         4           C   tau(   4) = (  0.0666667  0.1333333  0.0000000  )
         5           C   tau(   5) = (  0.0000000  0.2000000  0.0000000  )
         6           C   tau(   6) = (  0.0666667  0.3333333  0.0000000  )
         7           C   tau(   7) = (  0.0000000  0.4000000  0.0000000  )
         8           C   tau(   8) = (  0.0666667  0.5333333  0.0000000  )
         9           C   tau(   9) = (  0.0000000  0.6000000  0.0000000  )
        10           C   tau(  10) = (  0.0666667  0.7333333  0.0000000  )
        11           C   tau(  11) = (  0.0000000  0.8000000  0.0000000  )
        12           C   tau(  12) = (  0.0666667  0.9333333  0.0000000  )
        13           C   tau(  13) = (  0.2000000  0.0000000  0.0000000  )
        14           C   tau(  14) = (  0.2666667  0.1333333  0.0000000  )
        15           C   tau(  15) = (  0.2000000  0.2000000  0.0000000  )
        16           C   tau(  16) = (  0.2666667  0.3333333  0.0000000  )
        17           C   tau(  17) = (  0.2000000  0.4000000  0.0000000  )
        18           C   tau(  18) = (  0.2666667  0.5333333  0.0000000  )
        19           C   tau(  19) = (  0.2000000  0.6000000  0.0000000  )
        20           C   tau(  20) = (  0.2666667  0.7333333  0.0000000  )
        21           C   tau(  21) = (  0.2000000  0.8000000  0.0000000  )
        22           C   tau(  22) = (  0.2666667  0.9333333  0.0000000  )
        23           C   tau(  23) = (  0.4000000  0.0000000  0.0000000  )
        24           C   tau(  24) = (  0.4666667  0.1333333  0.0000000  )
        25           C   tau(  25) = (  0.4000000  0.2000000  0.0000000  )
        26           C   tau(  26) = (  0.4666667  0.3333333  0.0000000  )
        27           C   tau(  27) = (  0.4000000  0.4000000  0.0000000  )
        28           Cu  tau(  28) = (  0.4666667  0.5333333  0.0000000  )
        29           C   tau(  29) = (  0.4000000  0.6000000  0.0000000  )
        30           C   tau(  30) = (  0.4666667  0.7333333  0.0000000  )
        31           C   tau(  31) = (  0.4000000  0.8000000  0.0000000  )
        32           C   tau(  32) = (  0.4666667  0.9333333  0.0000000  )
        33           C   tau(  33) = (  0.6000000  0.0000000  0.0000000  )
        34           C   tau(  34) = (  0.6666667  0.1333333  0.0000000  )
        35           C   tau(  35) = (  0.6000000  0.2000000  0.0000000  )
        36           C   tau(  36) = (  0.6666667  0.3333333  0.0000000  )
        37           C   tau(  37) = (  0.6000000  0.4000000  0.0000000  )
        38           C   tau(  38) = (  0.6666667  0.5333333  0.0000000  )
        39           C   tau(  39) = (  0.6000000  0.6000000  0.0000000  )
        40           C   tau(  40) = (  0.6666667  0.7333333  0.0000000  )
        41           C   tau(  41) = (  0.6000000  0.8000000  0.0000000  )
        42           C   tau(  42) = (  0.6666667  0.9333333  0.0000000  )
        43           C   tau(  43) = (  0.8000000  0.0000000  0.0000000  )
        44           C   tau(  44) = (  0.8666667  0.1333333  0.0000000  )
        45           C   tau(  45) = (  0.8000000  0.2000000  0.0000000  )
        46           C   tau(  46) = (  0.8666667  0.3333333  0.0000000  )
        47           C   tau(  47) = (  0.8000000  0.4000000  0.0000000  )
        48           C   tau(  48) = (  0.8666667  0.5333333  0.0000000  )
        49           C   tau(  49) = (  0.8000000  0.6000000  0.0000000  )
        50           C   tau(  50) = (  0.8666667  0.7333333  0.0000000  )
        51           C   tau(  51) = (  0.8000000  0.8000000  0.0000000  )
        52           C   tau(  52) = (  0.8666667  0.9333333  0.0000000  )

     number of k points=     1  Marzari-Vanderbilt smearing, width (Ry)=  0.0010
                       cart. coord. in units 2pi/alat
        k(    1) = (   0.0000000   0.0000000   0.0000000), wk =   1.0000000

                       cryst. coord.
        k(    1) = (   0.0000000   0.0000000   0.0000000), wk =   1.0000000

     Dense  grid:  1626001 G-vectors     FFT dimensions: ( 180, 180, 135)

     Smooth grid:   702581 G-vectors     FFT dimensions: ( 125, 125, 108)

     Dynamical RAM for                 wfc:      28.14 MB

     Dynamical RAM for     wfc (w. buffer):      84.42 MB

     Dynamical RAM for           str. fact:      12.41 MB

     Dynamical RAM for           local pot:       0.00 MB

     Dynamical RAM for          nlocal pot:      92.46 MB

     Dynamical RAM for                qrad:      19.73 MB

     Dynamical RAM for          rho,v,vnew:      58.92 MB

     Dynamical RAM for               rhoin:      19.64 MB

     Dynamical RAM for            rho*nmix:     132.32 MB

     Dynamical RAM for           G-vectors:      16.40 MB

     Dynamical RAM for          h,s,v(r/c):      11.63 MB

     Dynamical RAM for          <psi|beta>:       0.80 MB

     Dynamical RAM for                 psi:     112.56 MB

     Dynamical RAM for                hpsi:     112.56 MB

     Dynamical RAM for                spsi:     112.56 MB

     Dynamical RAM for      wfcinit/wfcrot:      93.45 MB

     Dynamical RAM for           addusdens:     975.89 MB

     Estimated static dynamical RAM per process >     486.96 MB

     Estimated max dynamical RAM per process >       1.43 GB

     Estimated total dynamical RAM >       8.57 GB
     Generating pointlists ...
     new r_m :   0.0252 (alat units)  0.5862 (a.u.) for type    1
     new r_m :   0.0476 (alat units)  1.1095 (a.u.) for type    2
     new r_m :   0.0476 (alat units)  1.1095 (a.u.) for type    3

     Check: negative core charge=   -0.000002

     Initial potential from superposition of free atoms

     starting charge  208.80532, renormalised to  209.00000

     negative rho (up, down):  5.772E-05 9.183E-03


---------------------------------------------------------------------------------
Carrying out rVV10 run using the following parameters:
Nqs =      20    Nr_points =    1024   r_max =   100.000
b_value =  6.30000    beta =  0.00901
     q_mesh =  0.00010000  0.00030000  0.00058939  0.00100810
               0.00161396  0.00249058  0.00375900  0.00559430
               0.00824984  0.01209221  0.01765183  0.02569619
               0.03733578  0.05417739  0.07854596  0.11380545
               0.16482331  0.23864234  0.34545298  0.50000000

Gradients computed in Reciprocal space

---------------------------------------------------------------------------------


     Starting wfcs are  207 randomized atomic wfcs

     total cpu time spent up to now is       79.0 secs

     Self-consistent Calculation

     iteration #  1     ecut=    70.00 Ry     beta= 0.70
     Davidson diagonalization with overlap
     ethr =  1.00E-02,  avg # of iterations =  5.0

     negative rho (up, down):  1.272E-04 9.492E-03

     total cpu time spent up to now is      205.6 secs

     total energy              =    -727.25662877 Ry
     Harris-Foulkes estimate   =    -734.90757230 Ry
     estimated scf accuracy    <      14.38315872 Ry

     total magnetization       =     7.00 Bohr mag/cell
     absolute magnetization    =     7.38 Bohr mag/cell

     iteration #  2     ecut=    70.00 Ry     beta= 0.70
     Davidson diagonalization with overlap
     ethr =  6.88E-03,  avg # of iterations =  3.5

     negative rho (up, down):  1.352E-04 8.725E-03

     total cpu time spent up to now is      325.3 secs

     total energy              =    -728.17281745 Ry
     Harris-Foulkes estimate   =    -745.13547320 Ry
     estimated scf accuracy    <      44.57012252 Ry

     total magnetization       =     3.00 Bohr mag/cell
     absolute magnetization    =     3.24 Bohr mag/cell

     iteration #  3     ecut=    70.00 Ry     beta= 0.70
     Davidson diagonalization with overlap
     ethr =  6.88E-03,  avg # of iterations =  4.0

     negative rho (up, down):  1.645E-04 7.956E-03

     total cpu time spent up to now is      428.5 secs

     total energy              =    -732.10716358 Ry
     Harris-Foulkes estimate   =    -736.18168433 Ry
     estimated scf accuracy    <      11.44970588 Ry

     total magnetization       =     3.00 Bohr mag/cell
     absolute magnetization    =     3.24 Bohr mag/cell

     iteration #  4     ecut=    70.00 Ry     beta= 0.70
     Davidson diagonalization with overlap
     ethr =  5.48E-03,  avg # of iterations =  3.0

     negative rho (up, down):  2.097E-04 8.523E-03

     total cpu time spent up to now is      525.3 secs

     total energy              =    -733.73538066 Ry
     Harris-Foulkes estimate   =    -735.02122079 Ry
     estimated scf accuracy    <       5.58432230 Ry

     total magnetization       =     3.00 Bohr mag/cell
     absolute magnetization    =     3.18 Bohr mag/cell

     iteration #  5     ecut=    70.00 Ry     beta= 0.70
     Davidson diagonalization with overlap
     ethr =  2.67E-03,  avg # of iterations =  2.5

     negative rho (up, down):  2.459E-04 1.165E-02

     total cpu time spent up to now is      617.4 secs

     total energy              =    -734.33298264 Ry
     Harris-Foulkes estimate   =    -735.06875934 Ry
     estimated scf accuracy    <       3.50555554 Ry

     total magnetization       =     1.00 Bohr mag/cell
     absolute magnetization    =     1.49 Bohr mag/cell

     iteration #  6     ecut=    70.00 Ry     beta= 0.70
     Davidson diagonalization with overlap
     ethr =  1.68E-03,  avg # of iterations =  3.5

     negative rho (up, down):  3.313E-04 1.604E-02

     total cpu time spent up to now is      709.9 secs

     total energy              =    -734.70121587 Ry
     Harris-Foulkes estimate   =    -734.76553082 Ry
     estimated scf accuracy    <       0.17976520 Ry

     total magnetization       =     1.00 Bohr mag/cell
     absolute magnetization    =     1.37 Bohr mag/cell

     iteration #  7     ecut=    70.00 Ry     beta= 0.70
     Davidson diagonalization with overlap
     ethr =  8.60E-05,  avg # of iterations =  7.5

     negative rho (up, down):  4.620E-04 1.112E-02

     total cpu time spent up to now is      827.8 secs

     total energy              =    -734.71915688 Ry
     Harris-Foulkes estimate   =    -734.80516368 Ry
     estimated scf accuracy    <       0.31343189 Ry

     total magnetization       =     1.00 Bohr mag/cell
     absolute magnetization    =     1.25 Bohr mag/cell

     iteration #  8     ecut=    70.00 Ry     beta= 0.70
     Davidson diagonalization with overlap
     ethr =  8.60E-05,  avg # of iterations =  3.0

     negative rho (up, down):  5.337E-04 5.268E-03

     total cpu time spent up to now is      924.6 secs

     total energy              =    -734.75156663 Ry
     Harris-Foulkes estimate   =    -734.76460009 Ry
     estimated scf accuracy    <       0.05011637 Ry

     total magnetization       =     1.00 Bohr mag/cell
     absolute magnetization    =     1.21 Bohr mag/cell

     iteration #  9     ecut=    70.00 Ry     beta= 0.70
     Davidson diagonalization with overlap
     ethr =  2.40E-05,  avg # of iterations =  3.0

     negative rho (up, down):  5.795E-04 3.276E-03

     total cpu time spent up to now is     1021.6 secs

     total energy              =    -734.75817269 Ry
     Harris-Foulkes estimate   =    -734.76169265 Ry
     estimated scf accuracy    <       0.04330787 Ry

     total magnetization       =     1.00 Bohr mag/cell
     absolute magnetization    =     1.17 Bohr mag/cell

     iteration # 10     ecut=    70.00 Ry     beta= 0.70
     Davidson diagonalization with overlap
     ethr =  2.07E-05,  avg # of iterations =  1.0

     negative rho (up, down):  5.900E-04 2.085E-03

     total cpu time spent up to now is     1111.1 secs

     total energy              =    -734.75841130 Ry
     Harris-Foulkes estimate   =    -734.76012720 Ry
     estimated scf accuracy    <       0.00870780 Ry

     total magnetization       =     1.00 Bohr mag/cell
     absolute magnetization    =     1.14 Bohr mag/cell

     iteration # 11     ecut=    70.00 Ry     beta= 0.70
     Davidson diagonalization with overlap
     ethr =  4.17E-06,  avg # of iterations =  3.0

     negative rho (up, down):  6.081E-04 3.185E-03

     total cpu time spent up to now is     1202.3 secs

     total energy              =    -734.75884351 Ry
     Harris-Foulkes estimate   =    -734.76146959 Ry
     estimated scf accuracy    <       0.02921010 Ry

     total magnetization       =     1.00 Bohr mag/cell
     absolute magnetization    =     1.14 Bohr mag/cell

     iteration # 12     ecut=    70.00 Ry     beta= 0.70
     Davidson diagonalization with overlap
     ethr =  4.17E-06,  avg # of iterations =  2.5

     negative rho (up, down):  6.092E-04 2.138E-03

     total cpu time spent up to now is     1292.3 secs

     total energy              =    -734.75966202 Ry
     Harris-Foulkes estimate   =    -734.75995472 Ry
     estimated scf accuracy    <       0.00402181 Ry

     total magnetization       =     1.00 Bohr mag/cell
     absolute magnetization    =     1.11 Bohr mag/cell

     iteration # 13     ecut=    70.00 Ry     beta= 0.70
     Davidson diagonalization with overlap
     ethr =  1.92E-06,  avg # of iterations =  2.0

     negative rho (up, down):  6.085E-04 1.814E-03

     total cpu time spent up to now is     1382.1 secs

     total energy              =    -734.75987206 Ry
     Harris-Foulkes estimate   =    -734.75988102 Ry
     estimated scf accuracy    <       0.00011182 Ry

     total magnetization       =     1.00 Bohr mag/cell
     absolute magnetization    =     1.10 Bohr mag/cell

     iteration # 14     ecut=    70.00 Ry     beta= 0.70
     Davidson diagonalization with overlap
     ethr =  5.35E-08,  avg # of iterations =  3.5

     negative rho (up, down):  6.026E-04 1.569E-03

     total cpu time spent up to now is     1490.4 secs

     total energy              =    -734.75990281 Ry
     Harris-Foulkes estimate   =    -734.75990557 Ry
     estimated scf accuracy    <       0.00011230 Ry

     total magnetization       =     1.00 Bohr mag/cell
     absolute magnetization    =     1.08 Bohr mag/cell

     iteration # 15     ecut=    70.00 Ry     beta= 0.70
     Davidson diagonalization with overlap
     ethr =  5.35E-08,  avg # of iterations =  2.0

     negative rho (up, down):  6.019E-04 1.572E-03

     total cpu time spent up to now is     1580.4 secs

     total energy              =    -734.75991275 Ry
     Harris-Foulkes estimate   =    -734.75991369 Ry
     estimated scf accuracy    <       0.00017657 Ry

     total magnetization       =     1.00 Bohr mag/cell
     absolute magnetization    =     1.08 Bohr mag/cell

     iteration # 16     ecut=    70.00 Ry     beta= 0.70
     Davidson diagonalization with overlap
     ethr =  5.35E-08,  avg # of iterations =  1.0

     negative rho (up, down):  6.004E-04 1.557E-03

     total cpu time spent up to now is     1669.7 secs

     total energy              =    -734.75991258 Ry
     Harris-Foulkes estimate   =    -734.75991489 Ry
     estimated scf accuracy    <       0.00016834 Ry

     total magnetization       =     1.00 Bohr mag/cell
     absolute magnetization    =     1.07 Bohr mag/cell

     iteration # 17     ecut=    70.00 Ry     beta= 0.70
     Davidson diagonalization with overlap
     ethr =  5.35E-08,  avg # of iterations =  1.5

     negative rho (up, down):  5.995E-04 1.532E-03

     total cpu time spent up to now is     1759.3 secs

     total energy              =    -734.75991133 Ry
     Harris-Foulkes estimate   =    -734.75991937 Ry
     estimated scf accuracy    <       0.00006768 Ry

     total magnetization       =     1.00 Bohr mag/cell
     absolute magnetization    =     1.07 Bohr mag/cell

     iteration # 18     ecut=    70.00 Ry     beta= 0.70
     Davidson diagonalization with overlap
     ethr =  3.24E-08,  avg # of iterations =  1.0

     negative rho (up, down):  5.992E-04 1.534E-03

     total cpu time spent up to now is     1848.6 secs

     total energy              =    -734.75991831 Ry
     Harris-Foulkes estimate   =    -734.75991778 Ry
     estimated scf accuracy    <       0.00009348 Ry

     total magnetization       =     1.00 Bohr mag/cell
     absolute magnetization    =     1.07 Bohr mag/cell

     iteration # 19     ecut=    70.00 Ry     beta= 0.70
     Davidson diagonalization with overlap
     ethr =  3.24E-08,  avg # of iterations =  1.0

     negative rho (up, down):  5.983E-04 1.538E-03

     total cpu time spent up to now is     1938.1 secs

     total energy              =    -734.75991712 Ry
     Harris-Foulkes estimate   =    -734.75991993 Ry
     estimated scf accuracy    <       0.00015117 Ry

     total magnetization       =     1.00 Bohr mag/cell
     absolute magnetization    =     1.07 Bohr mag/cell

     iteration # 20     ecut=    70.00 Ry     beta= 0.70
     Davidson diagonalization with overlap
     ethr =  3.24E-08,  avg # of iterations =  1.5

     negative rho (up, down):  5.981E-04 1.539E-03

     total cpu time spent up to now is     2027.8 secs

     total energy              =    -734.75991864 Ry
     Harris-Foulkes estimate   =    -734.75991972 Ry
     estimated scf accuracy    <       0.00006684 Ry

     total magnetization       =     1.00 Bohr mag/cell
     absolute magnetization    =     1.07 Bohr mag/cell

     iteration # 21     ecut=    70.00 Ry     beta= 0.70
     Davidson diagonalization with overlap
     ethr =  3.20E-08,  avg # of iterations =  1.0

     negative rho (up, down):  5.982E-04 1.530E-03

     total cpu time spent up to now is     2117.3 secs

     total energy              =    -734.75991974 Ry
     Harris-Foulkes estimate   =    -734.75991944 Ry
     estimated scf accuracy    <       0.00003551 Ry

     total magnetization       =     1.00 Bohr mag/cell
     absolute magnetization    =     1.07 Bohr mag/cell

     iteration # 22     ecut=    70.00 Ry     beta= 0.70
     Davidson diagonalization with overlap
     ethr =  1.70E-08,  avg # of iterations =  1.0

     negative rho (up, down):  5.977E-04 1.543E-03

     total cpu time spent up to now is     2206.4 secs

     total energy              =    -734.75991844 Ry
     Harris-Foulkes estimate   =    -734.75992004 Ry
     estimated scf accuracy    <       0.00006150 Ry

     total magnetization       =     1.00 Bohr mag/cell
     absolute magnetization    =     1.07 Bohr mag/cell

     iteration # 23     ecut=    70.00 Ry     beta= 0.70
     Davidson diagonalization with overlap
     ethr =  1.70E-08,  avg # of iterations =  1.5

     negative rho (up, down):  5.974E-04 1.545E-03

     total cpu time spent up to now is     2296.6 secs

     total energy              =    -734.75991834 Ry
     Harris-Foulkes estimate   =    -734.75992032 Ry
     estimated scf accuracy    <       0.00002532 Ry

     total magnetization       =     1.00 Bohr mag/cell
     absolute magnetization    =     1.06 Bohr mag/cell

     iteration # 24     ecut=    70.00 Ry     beta= 0.70
     Davidson diagonalization with overlap
     ethr =  1.21E-08,  avg # of iterations =  2.0

     negative rho (up, down):  5.975E-04 1.538E-03

     total cpu time spent up to now is     2387.7 secs

     total energy              =    -734.75991941 Ry
     Harris-Foulkes estimate   =    -734.75992023 Ry
     estimated scf accuracy    <       0.00000609 Ry

     total magnetization       =     1.00 Bohr mag/cell
     absolute magnetization    =     1.06 Bohr mag/cell

     iteration # 25     ecut=    70.00 Ry     beta= 0.70
     Davidson diagonalization with overlap
     ethr =  2.91E-09,  avg # of iterations =  2.0

     negative rho (up, down):  5.977E-04 1.535E-03

     total cpu time spent up to now is     2479.4 secs

     total energy              =    -734.75991991 Ry
     Harris-Foulkes estimate   =    -734.75992021 Ry
     estimated scf accuracy    <       0.00000713 Ry

     total magnetization       =     1.00 Bohr mag/cell
     absolute magnetization    =     1.07 Bohr mag/cell

     iteration # 26     ecut=    70.00 Ry     beta= 0.70
     Davidson diagonalization with overlap
     ethr =  2.91E-09,  avg # of iterations =  1.0

     negative rho (up, down):  5.978E-04 1.534E-03

     total cpu time spent up to now is     2568.7 secs

     total energy              =    -734.75991986 Ry
     Harris-Foulkes estimate   =    -734.75992013 Ry
     estimated scf accuracy    <       0.00000196 Ry

     total magnetization       =     1.00 Bohr mag/cell
     absolute magnetization    =     1.07 Bohr mag/cell

     iteration # 27     ecut=    70.00 Ry     beta= 0.70
     Davidson diagonalization with overlap
     ethr =  9.38E-10,  avg # of iterations =  2.0

     negative rho (up, down):  5.980E-04 1.532E-03

     Magnetic moment per site:
     atom:    1    charge:    0.2111    magn:   -0.0000    constr:    0.0000
     atom:    2    charge:    0.2110    magn:   -0.0000    constr:    0.0000
     atom:    3    charge:    1.7157    magn:    0.0016    constr:    0.0000
     atom:    4    charge:    1.7153    magn:    0.0017    constr:    0.0000
     atom:    5    charge:    1.7170    magn:    0.0001    constr:    0.0000
     atom:    6    charge:    1.7146    magn:   -0.0001    constr:    0.0000
     atom:    7    charge:    1.7170    magn:    0.0001    constr:    0.0000
     atom:    8    charge:    1.7153    magn:    0.0017    constr:    0.0000
     atom:    9    charge:    1.7158    magn:    0.0017    constr:    0.0000
     atom:   10    charge:    1.7170    magn:   -0.0009    constr:    0.0000
     atom:   11    charge:    1.7160    magn:    0.0005    constr:    0.0000
     atom:   12    charge:    1.7170    magn:   -0.0009    constr:    0.0000
     atom:   13    charge:    1.7159    magn:    0.0005    constr:    0.0000
     atom:   14    charge:    1.7169    magn:   -0.0010    constr:    0.0000
     atom:   15    charge:    1.7129    magn:    0.0071    constr:    0.0000
     atom:   16    charge:    1.7108    magn:    0.0130    constr:    0.0000
     atom:   17    charge:    1.7214    magn:    0.0031    constr:    0.0000
     atom:   18    charge:    1.7108    magn:    0.0131    constr:    0.0000
     atom:   19    charge:    1.7130    magn:    0.0074    constr:    0.0000
     atom:   20    charge:    1.7169    magn:   -0.0010    constr:    0.0000
     atom:   21    charge:    1.7160    magn:    0.0005    constr:    0.0000
     atom:   22    charge:    1.7170    magn:   -0.0009    constr:    0.0000
     atom:   23    charge:    1.7158    magn:    0.0016    constr:    0.0000
     atom:   24    charge:    1.7153    magn:    0.0017    constr:    0.0000
     atom:   25    charge:    1.7130    magn:    0.0072    constr:    0.0000
     atom:   26    charge:    1.7108    magn:    0.0134    constr:    0.0000
     atom:   27    charge:    1.8168    magn:    0.0782    constr:    0.0000
     atom:   28    charge:    7.0284    magn:    0.1548    constr:    0.0000
     atom:   29    charge:    1.8175    magn:    0.0813    constr:    0.0000
     atom:   30    charge:    1.7106    magn:    0.0128    constr:    0.0000
     atom:   31    charge:    1.7130    magn:    0.0074    constr:    0.0000
     atom:   32    charge:    1.7153    magn:    0.0017    constr:    0.0000
     atom:   33    charge:    1.7170    magn:    0.0001    constr:    0.0000
     atom:   34    charge:    1.7153    magn:   -0.0001    constr:    0.0000
     atom:   35    charge:    1.7170    magn:    0.0001    constr:    0.0000
     atom:   36    charge:    1.7147    magn:   -0.0001    constr:    0.0000
     atom:   37    charge:    1.7214    magn:    0.0030    constr:    0.0000
     atom:   38    charge:    1.7109    magn:    0.0135    constr:    0.0000
     atom:   39    charge:    1.8175    magn:    0.0794    constr:    0.0000
     atom:   40    charge:    1.7107    magn:    0.0128    constr:    0.0000
     atom:   41    charge:    1.7214    magn:    0.0032    constr:    0.0000
     atom:   42    charge:    1.7146    magn:   -0.0002    constr:    0.0000
     atom:   43    charge:    1.7170    magn:    0.0001    constr:    0.0000
     atom:   44    charge:    1.7153    magn:   -0.0001    constr:    0.0000
     atom:   45    charge:    1.7212    magn:   -0.0006    constr:    0.0000
     atom:   46    charge:    1.7153    magn:   -0.0001    constr:    0.0000
     atom:   47    charge:    1.7170    magn:    0.0001    constr:    0.0000
     atom:   48    charge:    1.7154    magn:    0.0018    constr:    0.0000
     atom:   49    charge:    1.7131    magn:    0.0073    constr:    0.0000
     atom:   50    charge:    1.7169    magn:   -0.0010    constr:    0.0000
     atom:   51    charge:    1.7130    magn:    0.0072    constr:    0.0000
     atom:   52    charge:    1.7153    magn:    0.0017    constr:    0.0000

     total cpu time spent up to now is     2660.3 secs

     End of self-consistent calculation

 ------ SPIN UP ------------


          k = 0.0000 0.0000 0.0000 ( 87777 PWs)   bands (ev):

   -19.8387 -18.9965 -18.9957 -18.9022 -18.9019 -18.8402 -18.7620 -17.1668
   -17.1666 -17.1301 -17.0857 -17.0852 -16.8076 -16.3264 -16.3258 -16.1810
   -16.1805 -16.1587 -15.7663 -14.4221 -14.4215 -14.1272 -14.0326 -14.0325
   -13.5747 -13.1646 -13.1645 -13.0781 -12.9352 -12.9349 -12.6297 -12.3137
   -12.3131 -11.7123 -11.6064 -11.6062 -11.1843 -10.9349 -10.9344  -9.5216
    -9.3620  -9.3619  -9.2415  -9.2317  -9.2316  -9.2222  -9.1027  -9.1006
    -9.0585  -9.0581  -8.9570  -8.7149  -8.7147  -7.9571  -7.8941  -7.8366
    -7.6616  -7.6610  -7.5324  -7.5323  -6.9442  -6.8406  -6.8403  -6.8152
    -6.7991  -6.7608  -6.7133  -6.7125  -6.6163  -6.6161  -6.5725  -6.5660
    -6.5659  -6.5327  -6.5199  -6.3957  -6.3951  -5.6112  -5.6112  -5.0265
    -5.0007  -4.9549  -4.8836  -4.8832  -4.7608  -4.7238  -4.7234  -4.5390
    -4.5388  -4.4657  -3.8500  -3.8496  -3.8163  -3.8162  -3.7813  -3.6371
    -3.6370  -3.4016  -1.8810  -1.8251  -1.8249  -1.7304  -1.7304  -1.2180
    -0.8321  -0.8317   0.9134   0.9495   0.9497   1.0971   1.0971   1.5007
     2.4862   2.7951   2.7958   2.8402   2.9328   2.9337   3.3763   3.4346
     3.6002   3.7240   3.7304   3.7506   3.9120   4.1959

     occupation numbers 
     1.0000   1.0000   1.0000   1.0000   1.0000   1.0000   1.0000   1.0000
     1.0000   1.0000   1.0000   1.0000   1.0000   1.0000   1.0000   1.0000
     1.0000   1.0000   1.0000   1.0000   1.0000   1.0000   1.0000   1.0000
     1.0000   1.0000   1.0000   1.0000   1.0000   1.0000   1.0000   1.0000
     1.0000   1.0000   1.0000   1.0000   1.0000   1.0000   1.0000   1.0000
     1.0000   1.0000   1.0000   1.0000   1.0000   1.0000   1.0000   1.0000
     1.0000   1.0000   1.0000   1.0000   1.0000   1.0000   1.0000   1.0000
     1.0000   1.0000   1.0000   1.0000   1.0000   1.0000   1.0000   1.0000
     1.0000   1.0000   1.0000   1.0000   1.0000   1.0000   1.0000   1.0000
     1.0000   1.0000   1.0000   1.0000   1.0000   1.0000   1.0000   1.0000
     1.0000   1.0000   1.0000   1.0000   1.0000   1.0000   1.0000   1.0000
     1.0000   1.0000   1.0000   1.0000   1.0000   1.0000   1.0000   1.0000
     1.0000   1.0000   1.0000   1.0000   1.0000   1.0000   1.0000   1.0000
     0.5108   0.4892   0.0000   0.0000   0.0000   0.0000   0.0000   0.0000
     0.0000   0.0000   0.0000   0.0000   0.0000   0.0000   0.0000   0.0000
     0.0000   0.0000   0.0000   0.0000   0.0000   0.0000

 ------ SPIN DOWN ----------


          k = 0.0000 0.0000 0.0000 ( 87777 PWs)   bands (ev):

   -19.8137 -18.9642 -18.9631 -18.8953 -18.8949 -18.8373 -18.6865 -17.1274
   -17.1272 -17.1141 -17.0641 -17.0631 -16.7741 -16.2892 -16.2884 -16.1594
   -16.1585 -16.1518 -15.6906 -14.3318 -14.3316 -14.1031 -14.0245 -14.0245
   -13.5321 -13.1392 -13.1391 -13.0651 -12.8989 -12.8979 -12.5650 -12.2026
   -12.2021 -11.6926 -11.5721 -11.5712 -11.0789 -10.8046 -10.8038  -9.4808
    -9.3427  -9.3424  -9.2338  -9.2228  -9.2227  -9.2100  -9.0020  -9.0019
    -8.9321  -8.9276  -8.8320  -8.6738  -8.6729  -7.9468  -7.8699  -7.8147
    -7.6126  -7.6122  -7.5149  -7.5145  -6.8963  -6.8394  -6.8391  -6.7921
    -6.7746  -6.7412  -6.6995  -6.6985  -6.5944  -6.5943  -6.5647  -6.5621
    -6.5619  -6.5207  -6.5138  -6.3547  -6.3542  -5.5839  -5.5834  -5.0075
    -4.9450  -4.8637  -4.8633  -4.7872  -4.7559  -4.7227  -4.7223  -4.5293
    -4.5291  -4.4496  -3.8459  -3.8456  -3.7909  -3.7905  -3.7819  -3.6187
    -3.6186  -3.3635  -1.8771  -1.8233  -1.8231  -1.7083  -1.7080  -1.1810
    -0.4351  -0.4247   0.9166   0.9527   0.9529   1.1202   1.1208   1.5129
     2.4867   2.7974   2.7980   2.8413   2.9603   2.9609   3.3803   3.4419
     3.6013   3.7232   3.7296   3.7494   3.9197   4.1991

     occupation numbers 
     1.0000   1.0000   1.0000   1.0000   1.0000   1.0000   1.0000   1.0000
     1.0000   1.0000   1.0000   1.0000   1.0000   1.0000   1.0000   1.0000
     1.0000   1.0000   1.0000   1.0000   1.0000   1.0000   1.0000   1.0000
     1.0000   1.0000   1.0000   1.0000   1.0000   1.0000   1.0000   1.0000
     1.0000   1.0000   1.0000   1.0000   1.0000   1.0000   1.0000   1.0000
     1.0000   1.0000   1.0000   1.0000   1.0000   1.0000   1.0000   1.0000
     1.0000   1.0000   1.0000   1.0000   1.0000   1.0000   1.0000   1.0000
     1.0000   1.0000   1.0000   1.0000   1.0000   1.0000   1.0000   1.0000
     1.0000   1.0000   1.0000   1.0000   1.0000   1.0000   1.0000   1.0000
     1.0000   1.0000   1.0000   1.0000   1.0000   1.0000   1.0000   1.0000
     1.0000   1.0000   1.0000   1.0000   1.0000   1.0000   1.0000   1.0000
     1.0000   1.0000   1.0000   1.0000   1.0000   1.0000   1.0000   1.0000
     1.0000   1.0000   1.0000   1.0000   1.0000   1.0000   1.0000   1.0000
     0.0000   0.0000   0.0000   0.0000   0.0000   0.0000   0.0000   0.0000
     0.0000   0.0000   0.0000   0.0000   0.0000   0.0000   0.0000   0.0000
     0.0000   0.0000   0.0000   0.0000   0.0000   0.0000

     the Fermi energy is    -0.8300 ev

!    total energy              =    -734.75991968 Ry
     Harris-Foulkes estimate   =    -734.75992013 Ry
     estimated scf accuracy    <       0.00000075 Ry

     The total energy is the sum of the following terms:

     one-electron contribution =   -2484.17884038 Ry
     hartree contribution      =    1297.83868948 Ry
     xc contribution           =    -275.92246130 Ry
     ewald contribution        =     727.50302055 Ry
     smearing contrib. (-TS)   =      -0.00032803 Ry

     total magnetization       =     1.00 Bohr mag/cell
     absolute magnetization    =     1.07 Bohr mag/cell

     convergence has been achieved in  27 iterations

     Writing output data file cobre-bridge-distance-3.5.save/

     init_run     :     76.65s CPU     77.91s WALL (       1 calls)
     electrons    :   2536.27s CPU   2581.49s WALL (       1 calls)

     Called by init_run:
     wfcinit      :     41.14s CPU     41.35s WALL (       1 calls)
     wfcinit:atom :      0.05s CPU      0.08s WALL (       2 calls)
     wfcinit:wfcr :     40.76s CPU     40.89s WALL (       2 calls)
     potinit      :     14.50s CPU     14.95s WALL (       1 calls)
     hinit0       :     12.69s CPU     12.73s WALL (       1 calls)

     Called by electrons:
     c_bands      :   1577.65s CPU   1585.90s WALL (      27 calls)
     sum_band     :    552.50s CPU    567.76s WALL (      27 calls)
     v_of_rho     :    199.81s CPU    208.72s WALL (      28 calls)
     v_h          :      2.15s CPU      2.17s WALL (      28 calls)
     v_xc         :    197.66s CPU    206.55s WALL (      28 calls)
     newd         :    202.40s CPU    215.67s WALL (      28 calls)
     mix_rho      :     11.88s CPU     12.15s WALL (      27 calls)

     Called by c_bands:
     init_us_2    :      4.98s CPU      5.01s WALL (     110 calls)
     cegterg      :   1565.79s CPU   1573.98s WALL (      54 calls)

     Called by sum_band:
     sum_band:bec :      0.04s CPU      0.04s WALL (      54 calls)
     addusdens    :    347.66s CPU    361.67s WALL (      27 calls)

     Called by *egterg:
     h_psi        :    838.49s CPU    844.18s WALL (     187 calls)
     s_psi        :    285.60s CPU    285.72s WALL (     187 calls)
     g_psi        :      0.85s CPU      0.85s WALL (     131 calls)
     cdiaghg      :     11.29s CPU     11.29s WALL (     185 calls)
     cegterg:over :    185.01s CPU    185.08s WALL (     131 calls)
     cegterg:upda :    108.98s CPU    109.64s WALL (     131 calls)
     cegterg:last :     84.87s CPU     84.89s WALL (      54 calls)

     Called by h_psi:
     h_psi:pot    :    837.57s CPU    842.17s WALL (     187 calls)
     h_psi:calbec :    283.49s CPU    283.63s WALL (     187 calls)
     vloc_psi     :    268.63s CPU    272.98s WALL (     187 calls)
     add_vuspsi   :    285.45s CPU    285.56s WALL (     187 calls)

     General routines
     calbec       :    409.62s CPU    409.82s WALL (     241 calls)
     fft          :    115.61s CPU    119.26s WALL (    2094 calls)
     ffts         :      1.98s CPU      2.04s WALL (     110 calls)
     fftw         :    285.20s CPU    290.14s WALL (   37356 calls)
     interpolate  :      4.69s CPU      4.83s WALL (      56 calls)

     Parallel routines
     fft_scatt_xy :     69.75s CPU     70.70s WALL (   39560 calls)
     fft_scatt_yz :    137.05s CPU    143.52s WALL (   39560 calls)

     PWSCF        :  43m34.20s CPU  44m21.00s WALL


   This run was terminated on:   8:19:22   7Sep2022            

=------------------------------------------------------------------------------=
   JOB DONE.
=------------------------------------------------------------------------------=
