
     Program PWSCF v.6.4.1 starts on  7Sep2022 at  8:19:22 

     This program is part of the open-source Quantum ESPRESSO suite
     for quantum simulation of materials; please cite
         "P. Giannozzi et al., J. Phys.:Condens. Matter 21 395502 (2009);
         "P. Giannozzi et al., J. Phys.:Condens. Matter 29 465901 (2017);
          URL http://www.quantum-espresso.org", 
     in publications or presentations arising from this work. More details at
     http://www.quantum-espresso.org/quote

     Parallel version (MPI), running on     6 processors

     MPI processes distributed on     1 nodes
     R & G space division:  proc/nbgrp/npool/nimage =       6
     Reading input from distance-3.0.in

     Current dimensions of program PWSCF are:
     Max number of different atomic species (ntypx) = 10
     Max number of k-points (npk) =  40000
     Max angular momentum in pseudopotentials (lmaxx) =  3

     IMPORTANT: XC functional enforced from input :
     Exchange-correlation      = RVV10 ( 1  4 13  4 3 0)
     Any further DFT definition will be discarded
     Please, verify this is what you really want

               file H.pbe-rrkjus.UPF: wavefunction(s)  1S renormalized
               file Cu.pbe-dn-rrkjus_psl.1.0.0.UPF: wavefunction(s)  3D renormalized

     Subspace diagonalization in iterative solution of the eigenvalue problem:
     a serial algorithm will be used


     Parallelization info
     --------------------
     sticks:   dense  smooth     PW     G-vecs:    dense   smooth      PW
     Min        3051    1746    432               270999   117096   14629
     Max        3053    1747    437               271001   117099   14630
     Sum       18313   10477   2611              1626001   702581   87777



     bravais-lattice index     =            4
     lattice parameter (alat)  =      23.2937  a.u.
     unit-cell volume          =    8879.8548 (a.u.)^3
     number of atoms/cell      =           52
     number of atomic types    =            3
     number of electrons       =       209.00
     number of Kohn-Sham states=          126
     kinetic-energy cutoff     =      70.0000  Ry
     charge density cutoff     =     490.0000  Ry
     convergence threshold     =      1.0E-06
     mixing beta               =       0.7000
     number of iterations used =            8  plain     mixing
     Exchange-correlation      = RVV10 ( 1  4 13  4 3 0)

     celldm(1)=  23.293684  celldm(2)=   0.000000  celldm(3)=   0.811261
     celldm(4)=   0.000000  celldm(5)=   0.000000  celldm(6)=   0.000000

     crystal axes: (cart. coord. in units of alat)
               a(1) = (   1.000000   0.000000   0.000000 )  
               a(2) = (  -0.500000   0.866025   0.000000 )  
               a(3) = (   0.000000   0.000000   0.811261 )  

     reciprocal axes: (cart. coord. in units 2 pi/alat)
               b(1) = (  1.000000  0.577350 -0.000000 )  
               b(2) = (  0.000000  1.154701  0.000000 )  
               b(3) = (  0.000000 -0.000000  1.232649 )  


     PseudoPot. # 1 for H  read from file:
     /home/cristian/Escritorio/Proyecto_Grafeno/pseudopotenciales/H.pbe-rrkjus.UPF
     MD5 check sum: 7cc9d459525c9a0585f487a71c3c9563
     Pseudo is Ultrasoft, Zval =  1.0
     Generated by new atomic code, or converted to UPF format
     Using radial grid of 1061 points,  2 beta functions with: 
                l(1) =   0
                l(2) =   0
     Q(r) pseudized with 0 coefficients 


     PseudoPot. # 2 for C  read from file:
     /home/cristian/Escritorio/Proyecto_Grafeno/pseudopotenciales/C.pbe-n-rrkjus_psl.1.0.0.UPF
     MD5 check sum: 1fdd950c42eb37d8afe3dd2f8d12311e
     Pseudo is Ultrasoft + core correction, Zval =  4.0
     Generated using "atomic" code by A. Dal Corso v.6.3MaX
     Using radial grid of 1073 points,  4 beta functions with: 
                l(1) =   0
                l(2) =   0
                l(3) =   1
                l(4) =   1
     Q(r) pseudized with 0 coefficients 


     PseudoPot. # 3 for Cu read from file:
     /home/cristian/Escritorio/Proyecto_Grafeno/pseudopotenciales/Cu.pbe-dn-rrkjus_psl.1.0.0.UPF
     MD5 check sum: ba3d6c84e19846e79d48cdc68ff7152b
     Pseudo is Ultrasoft + core correction, Zval = 11.0
     Generated using "atomic" code by A. Dal Corso v.6.3
     Using radial grid of 1199 points,  6 beta functions with: 
                l(1) =   0
                l(2) =   0
                l(3) =   1
                l(4) =   1
                l(5) =   2
                l(6) =   2
     Q(r) pseudized with 0 coefficients 


     vdW kernel table read from file rVV10_kernel_table
     MD5 check sum: b8e2538accc0c0b3206b45ba4daaba6c

     atomic species   valence    mass     pseudopotential
        H              1.00     1.00794     H ( 1.00)
        C              4.00    12.01070     C ( 1.00)
        Cu            11.00    63.54600     Cu( 1.00)

     Starting magnetic structure 
     atomic species   magnetization
        H            0.500
        C            0.300
        Cu           0.800

     No symmetry found


                                    s                        frac. trans.

      isym =  1     identity                                     

 cryst.   s( 1) = (     1          0          0      )
                  (     0          1          0      )
                  (     0          0          1      )

 cart.    s( 1) = (  1.0000000  0.0000000  0.0000000 )
                  (  0.0000000  1.0000000  0.0000000 )
                  (  0.0000000  0.0000000  1.0000000 )


     point group C_1 (1)    
     there are  1 classes
     the character table:

       E    
A      1.00

     the symmetry operations in each class and the name of the first element:

     E        1
          identity                                               

   Cartesian axes

     site n.     atom                  positions (alat units)
         1           H   tau(   1) = (   0.2194937   0.4907477   0.2433783  )
         2           H   tau(   2) = (   0.2805063   0.4907477   0.2433783  )
         3           C   tau(   3) = (   0.0000000   0.0000000   0.0000000  )
         4           C   tau(   4) = (   0.0000000   0.1154701   0.0000000  )
         5           C   tau(   5) = (  -0.1000000   0.1732051   0.0000000  )
         6           C   tau(   6) = (  -0.1000000   0.2886751   0.0000000  )
         7           C   tau(   7) = (  -0.2000000   0.3464102   0.0000000  )
         8           C   tau(   8) = (  -0.2000000   0.4618802   0.0000000  )
         9           C   tau(   9) = (  -0.3000000   0.5196152   0.0000000  )
        10           C   tau(  10) = (  -0.3000000   0.6350853   0.0000000  )
        11           C   tau(  11) = (  -0.4000000   0.6928203   0.0000000  )
        12           C   tau(  12) = (  -0.4000000   0.8082904   0.0000000  )
        13           C   tau(  13) = (   0.2000000   0.0000000   0.0000000  )
        14           C   tau(  14) = (   0.2000000   0.1154701   0.0000000  )
        15           C   tau(  15) = (   0.1000000   0.1732051   0.0000000  )
        16           C   tau(  16) = (   0.1000000   0.2886751   0.0000000  )
        17           C   tau(  17) = (   0.0000000   0.3464102   0.0000000  )
        18           C   tau(  18) = (   0.0000000   0.4618802   0.0000000  )
        19           C   tau(  19) = (  -0.1000000   0.5196152   0.0000000  )
        20           C   tau(  20) = (  -0.1000000   0.6350853   0.0000000  )
        21           C   tau(  21) = (  -0.2000000   0.6928203   0.0000000  )
        22           C   tau(  22) = (  -0.2000000   0.8082904   0.0000000  )
        23           C   tau(  23) = (   0.4000000   0.0000000   0.0000000  )
        24           C   tau(  24) = (   0.4000000   0.1154701   0.0000000  )
        25           C   tau(  25) = (   0.3000000   0.1732051   0.0000000  )
        26           C   tau(  26) = (   0.3000000   0.2886751   0.0000000  )
        27           C   tau(  27) = (   0.2000000   0.3464102   0.0000000  )
        28           Cu  tau(  28) = (   0.2000000   0.4618802   0.0000000  )
        29           C   tau(  29) = (   0.1000000   0.5196152   0.0000000  )
        30           C   tau(  30) = (   0.1000000   0.6350853   0.0000000  )
        31           C   tau(  31) = (   0.0000000   0.6928203   0.0000000  )
        32           C   tau(  32) = (   0.0000000   0.8082904   0.0000000  )
        33           C   tau(  33) = (   0.6000000   0.0000000   0.0000000  )
        34           C   tau(  34) = (   0.6000000   0.1154701   0.0000000  )
        35           C   tau(  35) = (   0.5000000   0.1732051   0.0000000  )
        36           C   tau(  36) = (   0.5000000   0.2886751   0.0000000  )
        37           C   tau(  37) = (   0.4000000   0.3464102   0.0000000  )
        38           C   tau(  38) = (   0.4000000   0.4618802   0.0000000  )
        39           C   tau(  39) = (   0.3000000   0.5196152   0.0000000  )
        40           C   tau(  40) = (   0.3000000   0.6350853   0.0000000  )
        41           C   tau(  41) = (   0.2000000   0.6928203   0.0000000  )
        42           C   tau(  42) = (   0.2000000   0.8082904   0.0000000  )
        43           C   tau(  43) = (   0.8000000   0.0000000   0.0000000  )
        44           C   tau(  44) = (   0.8000000   0.1154701   0.0000000  )
        45           C   tau(  45) = (   0.7000000   0.1732051   0.0000000  )
        46           C   tau(  46) = (   0.7000000   0.2886751   0.0000000  )
        47           C   tau(  47) = (   0.6000000   0.3464102   0.0000000  )
        48           C   tau(  48) = (   0.6000000   0.4618802   0.0000000  )
        49           C   tau(  49) = (   0.5000000   0.5196152   0.0000000  )
        50           C   tau(  50) = (   0.5000000   0.6350853   0.0000000  )
        51           C   tau(  51) = (   0.4000000   0.6928203   0.0000000  )
        52           C   tau(  52) = (   0.4000000   0.8082904   0.0000000  )

   Crystallographic axes

     site n.     atom                  positions (cryst. coord.)
         1           H   tau(   1) = (  0.5028270  0.5666667  0.3000000  )
         2           H   tau(   2) = (  0.5638397  0.5666667  0.3000000  )
         3           C   tau(   3) = (  0.0000000  0.0000000  0.0000000  )
         4           C   tau(   4) = (  0.0666667  0.1333333  0.0000000  )
         5           C   tau(   5) = (  0.0000000  0.2000000  0.0000000  )
         6           C   tau(   6) = (  0.0666667  0.3333333  0.0000000  )
         7           C   tau(   7) = (  0.0000000  0.4000000  0.0000000  )
         8           C   tau(   8) = (  0.0666667  0.5333333  0.0000000  )
         9           C   tau(   9) = (  0.0000000  0.6000000  0.0000000  )
        10           C   tau(  10) = (  0.0666667  0.7333333  0.0000000  )
        11           C   tau(  11) = (  0.0000000  0.8000000  0.0000000  )
        12           C   tau(  12) = (  0.0666667  0.9333333  0.0000000  )
        13           C   tau(  13) = (  0.2000000  0.0000000  0.0000000  )
        14           C   tau(  14) = (  0.2666667  0.1333333  0.0000000  )
        15           C   tau(  15) = (  0.2000000  0.2000000  0.0000000  )
        16           C   tau(  16) = (  0.2666667  0.3333333  0.0000000  )
        17           C   tau(  17) = (  0.2000000  0.4000000  0.0000000  )
        18           C   tau(  18) = (  0.2666667  0.5333333  0.0000000  )
        19           C   tau(  19) = (  0.2000000  0.6000000  0.0000000  )
        20           C   tau(  20) = (  0.2666667  0.7333333  0.0000000  )
        21           C   tau(  21) = (  0.2000000  0.8000000  0.0000000  )
        22           C   tau(  22) = (  0.2666667  0.9333333  0.0000000  )
        23           C   tau(  23) = (  0.4000000  0.0000000  0.0000000  )
        24           C   tau(  24) = (  0.4666667  0.1333333  0.0000000  )
        25           C   tau(  25) = (  0.4000000  0.2000000  0.0000000  )
        26           C   tau(  26) = (  0.4666667  0.3333333  0.0000000  )
        27           C   tau(  27) = (  0.4000000  0.4000000  0.0000000  )
        28           Cu  tau(  28) = (  0.4666667  0.5333333  0.0000000  )
        29           C   tau(  29) = (  0.4000000  0.6000000  0.0000000  )
        30           C   tau(  30) = (  0.4666667  0.7333333  0.0000000  )
        31           C   tau(  31) = (  0.4000000  0.8000000  0.0000000  )
        32           C   tau(  32) = (  0.4666667  0.9333333  0.0000000  )
        33           C   tau(  33) = (  0.6000000  0.0000000  0.0000000  )
        34           C   tau(  34) = (  0.6666667  0.1333333  0.0000000  )
        35           C   tau(  35) = (  0.6000000  0.2000000  0.0000000  )
        36           C   tau(  36) = (  0.6666667  0.3333333  0.0000000  )
        37           C   tau(  37) = (  0.6000000  0.4000000  0.0000000  )
        38           C   tau(  38) = (  0.6666667  0.5333333  0.0000000  )
        39           C   tau(  39) = (  0.6000000  0.6000000  0.0000000  )
        40           C   tau(  40) = (  0.6666667  0.7333333  0.0000000  )
        41           C   tau(  41) = (  0.6000000  0.8000000  0.0000000  )
        42           C   tau(  42) = (  0.6666667  0.9333333  0.0000000  )
        43           C   tau(  43) = (  0.8000000  0.0000000  0.0000000  )
        44           C   tau(  44) = (  0.8666667  0.1333333  0.0000000  )
        45           C   tau(  45) = (  0.8000000  0.2000000  0.0000000  )
        46           C   tau(  46) = (  0.8666667  0.3333333  0.0000000  )
        47           C   tau(  47) = (  0.8000000  0.4000000  0.0000000  )
        48           C   tau(  48) = (  0.8666667  0.5333333  0.0000000  )
        49           C   tau(  49) = (  0.8000000  0.6000000  0.0000000  )
        50           C   tau(  50) = (  0.8666667  0.7333333  0.0000000  )
        51           C   tau(  51) = (  0.8000000  0.8000000  0.0000000  )
        52           C   tau(  52) = (  0.8666667  0.9333333  0.0000000  )

     number of k points=     1  Marzari-Vanderbilt smearing, width (Ry)=  0.0010
                       cart. coord. in units 2pi/alat
        k(    1) = (   0.0000000   0.0000000   0.0000000), wk =   1.0000000

                       cryst. coord.
        k(    1) = (   0.0000000   0.0000000   0.0000000), wk =   1.0000000

     Dense  grid:  1626001 G-vectors     FFT dimensions: ( 180, 180, 135)

     Smooth grid:   702581 G-vectors     FFT dimensions: ( 125, 125, 108)

     Dynamical RAM for                 wfc:      28.14 MB

     Dynamical RAM for     wfc (w. buffer):      84.42 MB

     Dynamical RAM for           str. fact:      12.41 MB

     Dynamical RAM for           local pot:       0.00 MB

     Dynamical RAM for          nlocal pot:      92.46 MB

     Dynamical RAM for                qrad:      19.73 MB

     Dynamical RAM for          rho,v,vnew:      58.92 MB

     Dynamical RAM for               rhoin:      19.64 MB

     Dynamical RAM for            rho*nmix:     132.32 MB

     Dynamical RAM for           G-vectors:      16.40 MB

     Dynamical RAM for          h,s,v(r/c):      11.63 MB

     Dynamical RAM for          <psi|beta>:       0.80 MB

     Dynamical RAM for                 psi:     112.56 MB

     Dynamical RAM for                hpsi:     112.56 MB

     Dynamical RAM for                spsi:     112.56 MB

     Dynamical RAM for      wfcinit/wfcrot:      93.45 MB

     Dynamical RAM for           addusdens:     975.89 MB

     Estimated static dynamical RAM per process >     486.96 MB

     Estimated max dynamical RAM per process >       1.43 GB

     Estimated total dynamical RAM >       8.57 GB
     Generating pointlists ...
     new r_m :   0.0252 (alat units)  0.5862 (a.u.) for type    1
     new r_m :   0.0476 (alat units)  1.1095 (a.u.) for type    2
     new r_m :   0.0476 (alat units)  1.1095 (a.u.) for type    3

     Check: negative core charge=   -0.000002

     Initial potential from superposition of free atoms

     starting charge  208.80532, renormalised to  209.00000

     negative rho (up, down):  6.100E-05 1.031E-02


---------------------------------------------------------------------------------
Carrying out rVV10 run using the following parameters:
Nqs =      20    Nr_points =    1024   r_max =   100.000
b_value =  6.30000    beta =  0.00901
     q_mesh =  0.00010000  0.00030000  0.00058939  0.00100810
               0.00161396  0.00249058  0.00375900  0.00559430
               0.00824984  0.01209221  0.01765183  0.02569619
               0.03733578  0.05417739  0.07854596  0.11380545
               0.16482331  0.23864234  0.34545298  0.50000000

Gradients computed in Reciprocal space

---------------------------------------------------------------------------------


     Starting wfcs are  207 randomized atomic wfcs

     total cpu time spent up to now is       78.7 secs

     Self-consistent Calculation

     iteration #  1     ecut=    70.00 Ry     beta= 0.70
     Davidson diagonalization with overlap
     ethr =  1.00E-02,  avg # of iterations =  5.5

     negative rho (up, down):  1.424E-04 1.066E-02

     total cpu time spent up to now is      205.1 secs

     total energy              =    -727.73813648 Ry
     Harris-Foulkes estimate   =    -734.85885451 Ry
     estimated scf accuracy    <      13.81496897 Ry

     total magnetization       =     7.00 Bohr mag/cell
     absolute magnetization    =     7.37 Bohr mag/cell

     iteration #  2     ecut=    70.00 Ry     beta= 0.70
     Davidson diagonalization with overlap
     ethr =  6.61E-03,  avg # of iterations =  4.0

     negative rho (up, down):  1.595E-04 9.450E-03

     total cpu time spent up to now is      325.0 secs

     total energy              =    -729.61951879 Ry
     Harris-Foulkes estimate   =    -744.07125439 Ry
     estimated scf accuracy    <      36.18476819 Ry

     total magnetization       =     3.00 Bohr mag/cell
     absolute magnetization    =     3.29 Bohr mag/cell

     iteration #  3     ecut=    70.00 Ry     beta= 0.70
     Davidson diagonalization with overlap
     ethr =  6.61E-03,  avg # of iterations =  5.0

     negative rho (up, down):  1.906E-04 7.710E-03

     total cpu time spent up to now is      427.9 secs

     total energy              =    -732.55768245 Ry
     Harris-Foulkes estimate   =    -735.77262201 Ry
     estimated scf accuracy    <       8.47287436 Ry

     total magnetization       =     1.00 Bohr mag/cell
     absolute magnetization    =     1.58 Bohr mag/cell

     iteration #  4     ecut=    70.00 Ry     beta= 0.70
     Davidson diagonalization with overlap
     ethr =  4.05E-03,  avg # of iterations =  3.0

     negative rho (up, down):  2.383E-04 7.773E-03

     total cpu time spent up to now is      530.4 secs

     total energy              =    -733.67808226 Ry
     Harris-Foulkes estimate   =    -735.21143931 Ry
     estimated scf accuracy    <       6.48532928 Ry

     total magnetization       =     3.00 Bohr mag/cell
     absolute magnetization    =     3.15 Bohr mag/cell

     iteration #  5     ecut=    70.00 Ry     beta= 0.70
     Davidson diagonalization with overlap
     ethr =  3.10E-03,  avg # of iterations =  2.5

     negative rho (up, down):  2.808E-04 1.097E-02

     total cpu time spent up to now is      621.3 secs

     total energy              =    -734.39154454 Ry
     Harris-Foulkes estimate   =    -734.98674160 Ry
     estimated scf accuracy    <       2.79429810 Ry

     total magnetization       =     1.00 Bohr mag/cell
     absolute magnetization    =     1.43 Bohr mag/cell

     iteration #  6     ecut=    70.00 Ry     beta= 0.70
     Davidson diagonalization with overlap
     ethr =  1.34E-03,  avg # of iterations =  4.0

     negative rho (up, down):  3.693E-04 1.518E-02

     total cpu time spent up to now is      714.0 secs

     total energy              =    -734.68999616 Ry
     Harris-Foulkes estimate   =    -734.78130497 Ry
     estimated scf accuracy    <       0.23818101 Ry

     total magnetization       =     1.00 Bohr mag/cell
     absolute magnetization    =     1.32 Bohr mag/cell

     iteration #  7     ecut=    70.00 Ry     beta= 0.70
     Davidson diagonalization with overlap
     ethr =  1.14E-04,  avg # of iterations =  7.0

     negative rho (up, down):  5.158E-04 8.750E-03

     total cpu time spent up to now is      826.1 secs

     total energy              =    -734.72297601 Ry
     Harris-Foulkes estimate   =    -734.79972248 Ry
     estimated scf accuracy    <       0.28572009 Ry

     total magnetization       =     1.00 Bohr mag/cell
     absolute magnetization    =     1.24 Bohr mag/cell

     iteration #  8     ecut=    70.00 Ry     beta= 0.70
     Davidson diagonalization with overlap
     ethr =  1.14E-04,  avg # of iterations =  3.0

     negative rho (up, down):  5.727E-04 4.466E-03

     total cpu time spent up to now is      917.9 secs

     total energy              =    -734.75223650 Ry
     Harris-Foulkes estimate   =    -734.76222442 Ry
     estimated scf accuracy    <       0.04244353 Ry

     total magnetization       =     1.00 Bohr mag/cell
     absolute magnetization    =     1.21 Bohr mag/cell

     iteration #  9     ecut=    70.00 Ry     beta= 0.70
     Davidson diagonalization with overlap
     ethr =  2.03E-05,  avg # of iterations =  4.0

     negative rho (up, down):  6.094E-04 3.192E-03

     total cpu time spent up to now is     1017.4 secs

     total energy              =    -734.75745902 Ry
     Harris-Foulkes estimate   =    -734.76008327 Ry
     estimated scf accuracy    <       0.03691812 Ry

     total magnetization       =     1.00 Bohr mag/cell
     absolute magnetization    =     1.17 Bohr mag/cell

     iteration # 10     ecut=    70.00 Ry     beta= 0.70
     Davidson diagonalization with overlap
     ethr =  1.77E-05,  avg # of iterations =  1.0

     negative rho (up, down):  6.220E-04 1.932E-03

     total cpu time spent up to now is     1106.7 secs

     total energy              =    -734.75812632 Ry
     Harris-Foulkes estimate   =    -734.75900736 Ry
     estimated scf accuracy    <       0.00444999 Ry

     total magnetization       =     1.00 Bohr mag/cell
     absolute magnetization    =     1.14 Bohr mag/cell

     iteration # 11     ecut=    70.00 Ry     beta= 0.70
     Davidson diagonalization with overlap
     ethr =  2.13E-06,  avg # of iterations =  3.5

     negative rho (up, down):  6.386E-04 3.409E-03

     total cpu time spent up to now is     1202.7 secs

     total energy              =    -734.75827912 Ry
     Harris-Foulkes estimate   =    -734.76038979 Ry
     estimated scf accuracy    <       0.02711250 Ry

     total magnetization       =     1.00 Bohr mag/cell
     absolute magnetization    =     1.14 Bohr mag/cell

     iteration # 12     ecut=    70.00 Ry     beta= 0.70
     Davidson diagonalization with overlap
     ethr =  2.13E-06,  avg # of iterations =  2.0

     negative rho (up, down):  6.413E-04 2.345E-03

     total cpu time spent up to now is     1293.1 secs

     total energy              =    -734.75901073 Ry
     Harris-Foulkes estimate   =    -734.75915300 Ry
     estimated scf accuracy    <       0.00165217 Ry

     total magnetization       =     1.00 Bohr mag/cell
     absolute magnetization    =     1.11 Bohr mag/cell

     iteration # 13     ecut=    70.00 Ry     beta= 0.70
     Davidson diagonalization with overlap
     ethr =  7.91E-07,  avg # of iterations =  1.5

     negative rho (up, down):  6.347E-04 1.800E-03

     total cpu time spent up to now is     1382.5 secs

     total energy              =    -734.75915424 Ry
     Harris-Foulkes estimate   =    -734.75915005 Ry
     estimated scf accuracy    <       0.00025560 Ry

     total magnetization       =     1.00 Bohr mag/cell
     absolute magnetization    =     1.10 Bohr mag/cell

     iteration # 14     ecut=    70.00 Ry     beta= 0.70
     Davidson diagonalization with overlap
     ethr =  1.22E-07,  avg # of iterations =  2.5

     negative rho (up, down):  6.295E-04 1.637E-03

     total cpu time spent up to now is     1474.9 secs

     total energy              =    -734.75918361 Ry
     Harris-Foulkes estimate   =    -734.75918062 Ry
     estimated scf accuracy    <       0.00019134 Ry

     total magnetization       =     1.00 Bohr mag/cell
     absolute magnetization    =     1.09 Bohr mag/cell

     iteration # 15     ecut=    70.00 Ry     beta= 0.70
     Davidson diagonalization with overlap
     ethr =  9.15E-08,  avg # of iterations =  1.5

     negative rho (up, down):  6.294E-04 1.639E-03

     total cpu time spent up to now is     1564.5 secs

     total energy              =    -734.75919080 Ry
     Harris-Foulkes estimate   =    -734.75919181 Ry
     estimated scf accuracy    <       0.00015243 Ry

     total magnetization       =     1.00 Bohr mag/cell
     absolute magnetization    =     1.08 Bohr mag/cell

     iteration # 16     ecut=    70.00 Ry     beta= 0.70
     Davidson diagonalization with overlap
     ethr =  7.29E-08,  avg # of iterations =  1.0

     negative rho (up, down):  6.259E-04 1.640E-03

     total cpu time spent up to now is     1653.9 secs

     total energy              =    -734.75918991 Ry
     Harris-Foulkes estimate   =    -734.75919345 Ry
     estimated scf accuracy    <       0.00012240 Ry

     total magnetization       =     1.00 Bohr mag/cell
     absolute magnetization    =     1.08 Bohr mag/cell

     iteration # 17     ecut=    70.00 Ry     beta= 0.70
     Davidson diagonalization with overlap
     ethr =  5.86E-08,  avg # of iterations =  2.0

     negative rho (up, down):  6.274E-04 1.606E-03

     total cpu time spent up to now is     1743.8 secs

     total energy              =    -734.75919178 Ry
     Harris-Foulkes estimate   =    -734.75919824 Ry
     estimated scf accuracy    <       0.00002855 Ry

     total magnetization       =     1.00 Bohr mag/cell
     absolute magnetization    =     1.07 Bohr mag/cell

     iteration # 18     ecut=    70.00 Ry     beta= 0.70
     Davidson diagonalization with overlap
     ethr =  1.37E-08,  avg # of iterations =  2.0

     negative rho (up, down):  6.260E-04 1.621E-03

     total cpu time spent up to now is     1834.7 secs

     total energy              =    -734.75919602 Ry
     Harris-Foulkes estimate   =    -734.75919610 Ry
     estimated scf accuracy    <       0.00005888 Ry

     total magnetization       =     1.00 Bohr mag/cell
     absolute magnetization    =     1.07 Bohr mag/cell

     iteration # 19     ecut=    70.00 Ry     beta= 0.70
     Davidson diagonalization with overlap
     ethr =  1.37E-08,  avg # of iterations =  2.5

     negative rho (up, down):  6.260E-04 1.633E-03

     total cpu time spent up to now is     1930.2 secs

     total energy              =    -734.75919686 Ry
     Harris-Foulkes estimate   =    -734.75920057 Ry
     estimated scf accuracy    <       0.00011125 Ry

     total magnetization       =     1.00 Bohr mag/cell
     absolute magnetization    =     1.06 Bohr mag/cell

     iteration # 20     ecut=    70.00 Ry     beta= 0.70
     Davidson diagonalization with overlap
     ethr =  1.37E-08,  avg # of iterations =  1.5

     negative rho (up, down):  6.261E-04 1.628E-03

     total cpu time spent up to now is     2020.1 secs

     total energy              =    -734.75919751 Ry
     Harris-Foulkes estimate   =    -734.75919909 Ry
     estimated scf accuracy    <       0.00005028 Ry

     total magnetization       =     1.00 Bohr mag/cell
     absolute magnetization    =     1.06 Bohr mag/cell

     iteration # 21     ecut=    70.00 Ry     beta= 0.70
     Davidson diagonalization with overlap
     ethr =  1.37E-08,  avg # of iterations =  1.5

     negative rho (up, down):  6.262E-04 1.615E-03

     total cpu time spent up to now is     2109.4 secs

     total energy              =    -734.75919755 Ry
     Harris-Foulkes estimate   =    -734.75919843 Ry
     estimated scf accuracy    <       0.00001592 Ry

     total magnetization       =     1.00 Bohr mag/cell
     absolute magnetization    =     1.06 Bohr mag/cell

     iteration # 22     ecut=    70.00 Ry     beta= 0.70
     Davidson diagonalization with overlap
     ethr =  7.62E-09,  avg # of iterations =  1.5

     negative rho (up, down):  6.264E-04 1.603E-03

     total cpu time spent up to now is     2199.3 secs

     total energy              =    -734.75919819 Ry
     Harris-Foulkes estimate   =    -734.75919825 Ry
     estimated scf accuracy    <       0.00000360 Ry

     total magnetization       =     1.00 Bohr mag/cell
     absolute magnetization    =     1.06 Bohr mag/cell

     iteration # 23     ecut=    70.00 Ry     beta= 0.70
     Davidson diagonalization with overlap
     ethr =  1.72E-09,  avg # of iterations =  3.0

     negative rho (up, down):  6.265E-04 1.597E-03

     total cpu time spent up to now is     2290.5 secs

     total energy              =    -734.75919832 Ry
     Harris-Foulkes estimate   =    -734.75919849 Ry
     estimated scf accuracy    <       0.00000135 Ry

     total magnetization       =     1.00 Bohr mag/cell
     absolute magnetization    =     1.06 Bohr mag/cell

     iteration # 24     ecut=    70.00 Ry     beta= 0.70
     Davidson diagonalization with overlap
     ethr =  6.46E-10,  avg # of iterations =  2.0

     negative rho (up, down):  6.265E-04 1.600E-03

     total cpu time spent up to now is     2383.4 secs

     total energy              =    -734.75919854 Ry
     Harris-Foulkes estimate   =    -734.75919853 Ry
     estimated scf accuracy    <       0.00000109 Ry

     total magnetization       =     1.00 Bohr mag/cell
     absolute magnetization    =     1.06 Bohr mag/cell

     iteration # 25     ecut=    70.00 Ry     beta= 0.70
     Davidson diagonalization with overlap
     ethr =  5.19E-10,  avg # of iterations =  1.0

     negative rho (up, down):  6.265E-04 1.603E-03

     total cpu time spent up to now is     2473.3 secs

     total energy              =    -734.75919843 Ry
     Harris-Foulkes estimate   =    -734.75919857 Ry
     estimated scf accuracy    <       0.00000203 Ry

     total magnetization       =     1.00 Bohr mag/cell
     absolute magnetization    =     1.06 Bohr mag/cell

     iteration # 26     ecut=    70.00 Ry     beta= 0.70
     Davidson diagonalization with overlap
     ethr =  5.19E-10,  avg # of iterations =  2.5

     negative rho (up, down):  6.265E-04 1.606E-03

     Magnetic moment per site:
     atom:    1    charge:    0.2109    magn:    0.0000    constr:    0.0000
     atom:    2    charge:    0.2107    magn:   -0.0000    constr:    0.0000
     atom:    3    charge:    1.7157    magn:    0.0015    constr:    0.0000
     atom:    4    charge:    1.7153    magn:    0.0016    constr:    0.0000
     atom:    5    charge:    1.7170    magn:    0.0000    constr:    0.0000
     atom:    6    charge:    1.7146    magn:   -0.0001    constr:    0.0000
     atom:    7    charge:    1.7170    magn:    0.0001    constr:    0.0000
     atom:    8    charge:    1.7153    magn:    0.0018    constr:    0.0000
     atom:    9    charge:    1.7158    magn:    0.0016    constr:    0.0000
     atom:   10    charge:    1.7171    magn:   -0.0009    constr:    0.0000
     atom:   11    charge:    1.7160    magn:    0.0005    constr:    0.0000
     atom:   12    charge:    1.7171    magn:   -0.0009    constr:    0.0000
     atom:   13    charge:    1.7160    magn:    0.0005    constr:    0.0000
     atom:   14    charge:    1.7169    magn:   -0.0010    constr:    0.0000
     atom:   15    charge:    1.7129    magn:    0.0069    constr:    0.0000
     atom:   16    charge:    1.7106    magn:    0.0125    constr:    0.0000
     atom:   17    charge:    1.7215    magn:    0.0032    constr:    0.0000
     atom:   18    charge:    1.7107    magn:    0.0127    constr:    0.0000
     atom:   19    charge:    1.7131    magn:    0.0075    constr:    0.0000
     atom:   20    charge:    1.7169    magn:   -0.0010    constr:    0.0000
     atom:   21    charge:    1.7160    magn:    0.0006    constr:    0.0000
     atom:   22    charge:    1.7171    magn:   -0.0009    constr:    0.0000
     atom:   23    charge:    1.7158    magn:    0.0017    constr:    0.0000
     atom:   24    charge:    1.7153    magn:    0.0018    constr:    0.0000
     atom:   25    charge:    1.7130    magn:    0.0073    constr:    0.0000
     atom:   26    charge:    1.7109    magn:    0.0140    constr:    0.0000
     atom:   27    charge:    1.8171    magn:    0.0777    constr:    0.0000
     atom:   28    charge:    7.0285    magn:    0.1548    constr:    0.0000
     atom:   29    charge:    1.8184    magn:    0.0836    constr:    0.0000
     atom:   30    charge:    1.7107    magn:    0.0130    constr:    0.0000
     atom:   31    charge:    1.7131    magn:    0.0076    constr:    0.0000
     atom:   32    charge:    1.7153    magn:    0.0018    constr:    0.0000
     atom:   33    charge:    1.7170    magn:    0.0001    constr:    0.0000
     atom:   34    charge:    1.7152    magn:   -0.0000    constr:    0.0000
     atom:   35    charge:    1.7170    magn:    0.0000    constr:    0.0000
     atom:   36    charge:    1.7146    magn:   -0.0001    constr:    0.0000
     atom:   37    charge:    1.7213    magn:    0.0028    constr:    0.0000
     atom:   38    charge:    1.7110    magn:    0.0140    constr:    0.0000
     atom:   39    charge:    1.8171    magn:    0.0772    constr:    0.0000
     atom:   40    charge:    1.7107    magn:    0.0127    constr:    0.0000
     atom:   41    charge:    1.7213    magn:    0.0031    constr:    0.0000
     atom:   42    charge:    1.7146    magn:   -0.0001    constr:    0.0000
     atom:   43    charge:    1.7170    magn:    0.0000    constr:    0.0000
     atom:   44    charge:    1.7152    magn:   -0.0000    constr:    0.0000
     atom:   45    charge:    1.7212    magn:   -0.0007    constr:    0.0000
     atom:   46    charge:    1.7153    magn:   -0.0000    constr:    0.0000
     atom:   47    charge:    1.7170    magn:    0.0000    constr:    0.0000
     atom:   48    charge:    1.7153    magn:    0.0018    constr:    0.0000
     atom:   49    charge:    1.7130    magn:    0.0072    constr:    0.0000
     atom:   50    charge:    1.7169    magn:   -0.0009    constr:    0.0000
     atom:   51    charge:    1.7129    magn:    0.0069    constr:    0.0000
     atom:   52    charge:    1.7153    magn:    0.0016    constr:    0.0000

     total cpu time spent up to now is     2567.2 secs

     End of self-consistent calculation

 ------ SPIN UP ------------


          k = 0.0000 0.0000 0.0000 ( 87777 PWs)   bands (ev):

   -19.8379 -18.9964 -18.9943 -18.9019 -18.9007 -18.8396 -18.7605 -17.1657
   -17.1654 -17.1295 -17.0852 -17.0843 -16.8065 -16.3257 -16.3245 -16.1804
   -16.1794 -16.1581 -15.7650 -14.4206 -14.4190 -14.1263 -14.0320 -14.0319
   -13.5734 -13.1638 -13.1636 -13.0774 -12.9344 -12.9336 -12.6286 -12.3113
   -12.3103 -11.7115 -11.6056 -11.6052 -11.1822 -10.9325 -10.9312  -9.5202
    -9.3614  -9.3613  -9.2407  -9.2309  -9.2309  -9.2214  -9.1006  -9.0935
    -9.0573  -9.0566  -8.9547  -8.7139  -8.7134  -7.9654  -7.8933  -7.8367
    -7.6605  -7.6593  -7.5319  -7.5314  -7.0194  -6.8590  -6.8404  -6.8393
    -6.8139  -6.7786  -6.7133  -6.7116  -6.6157  -6.6154  -6.5718  -6.5656
    -6.5650  -6.5193  -6.4550  -6.3947  -6.3932  -5.6103  -5.6102  -5.0258
    -4.9716  -4.9542  -4.8829  -4.8821  -4.7605  -4.7238  -4.7233  -4.5383
    -4.5374  -4.4574  -3.8503  -3.8492  -3.8155  -3.8150  -3.7808  -3.6361
    -3.6357  -3.3914  -1.8807  -1.8247  -1.8245  -1.7301  -1.7297  -1.2127
    -0.8287  -0.8277   0.9137   0.9494   0.9497   1.0967   1.0975   1.5024
     2.4905   2.7937   2.7960   2.8406   2.9301   2.9330   3.3539   3.4497
     3.6026   3.7249   3.7314   3.7514   3.9175   4.2534

     occupation numbers 
     1.0000   1.0000   1.0000   1.0000   1.0000   1.0000   1.0000   1.0000
     1.0000   1.0000   1.0000   1.0000   1.0000   1.0000   1.0000   1.0000
     1.0000   1.0000   1.0000   1.0000   1.0000   1.0000   1.0000   1.0000
     1.0000   1.0000   1.0000   1.0000   1.0000   1.0000   1.0000   1.0000
     1.0000   1.0000   1.0000   1.0000   1.0000   1.0000   1.0000   1.0000
     1.0000   1.0000   1.0000   1.0000   1.0000   1.0000   1.0000   1.0000
     1.0000   1.0000   1.0000   1.0000   1.0000   1.0000   1.0000   1.0000
     1.0000   1.0000   1.0000   1.0000   1.0000   1.0000   1.0000   1.0000
     1.0000   1.0000   1.0000   1.0000   1.0000   1.0000   1.0000   1.0000
     1.0000   1.0000   1.0000   1.0000   1.0000   1.0000   1.0000   1.0000
     1.0000   1.0000   1.0000   1.0000   1.0000   1.0000   1.0000   1.0000
     1.0000   1.0000   1.0000   1.0000   1.0000   1.0000   1.0000   1.0000
     1.0000   1.0000   1.0000   1.0000   1.0000   1.0000   1.0000   1.0000
     0.5262   0.4738   0.0000   0.0000   0.0000   0.0000   0.0000   0.0000
     0.0000   0.0000   0.0000   0.0000   0.0000   0.0000   0.0000   0.0000
     0.0000   0.0000   0.0000   0.0000   0.0000   0.0000

 ------ SPIN DOWN ----------


          k = 0.0000 0.0000 0.0000 ( 87777 PWs)   bands (ev):

   -19.8130 -18.9645 -18.9615 -18.8951 -18.8938 -18.8367 -18.6852 -17.1266
   -17.1262 -17.1135 -17.0639 -17.0616 -16.7732 -16.2886 -16.2870 -16.1593
   -16.1570 -16.1512 -15.6894 -14.3302 -14.3298 -14.1022 -14.0239 -14.0238
   -13.5310 -13.1384 -13.1383 -13.0644 -12.8986 -12.8962 -12.5641 -12.2008
   -12.1993 -11.6918 -11.5717 -11.5699 -11.0771 -10.8020 -10.8003  -9.4795
    -9.3422  -9.3416  -9.2331  -9.2222  -9.2221  -9.2092  -9.0008  -9.0004
    -8.9317  -8.9192  -8.8295  -8.6731  -8.6710  -7.9545  -7.8691  -7.8146
    -7.6114  -7.6106  -7.5146  -7.5135  -6.9865  -6.8394  -6.8385  -6.8221
    -6.7781  -6.7733  -6.6993  -6.6983  -6.5938  -6.5936  -6.5641  -6.5616
    -6.5610  -6.5131  -6.4366  -6.3536  -6.3522  -5.5833  -5.5822  -5.0068
    -4.9443  -4.8629  -4.8622  -4.7601  -4.7556  -4.7227  -4.7222  -4.5285
    -4.5277  -4.4414  -3.8463  -3.8451  -3.7901  -3.7896  -3.7816  -3.6176
    -3.6174  -3.3529  -1.8769  -1.8227  -1.8225  -1.7083  -1.7074  -1.1756
    -0.4382  -0.4152   0.9168   0.9527   0.9531   1.1197   1.1210   1.5148
     2.4909   2.7960   2.7981   2.8416   2.9576   2.9596   3.3588   3.4575
     3.6040   3.7242   3.7304   3.7503   3.9247   4.2538

     occupation numbers 
     1.0000   1.0000   1.0000   1.0000   1.0000   1.0000   1.0000   1.0000
     1.0000   1.0000   1.0000   1.0000   1.0000   1.0000   1.0000   1.0000
     1.0000   1.0000   1.0000   1.0000   1.0000   1.0000   1.0000   1.0000
     1.0000   1.0000   1.0000   1.0000   1.0000   1.0000   1.0000   1.0000
     1.0000   1.0000   1.0000   1.0000   1.0000   1.0000   1.0000   1.0000
     1.0000   1.0000   1.0000   1.0000   1.0000   1.0000   1.0000   1.0000
     1.0000   1.0000   1.0000   1.0000   1.0000   1.0000   1.0000   1.0000
     1.0000   1.0000   1.0000   1.0000   1.0000   1.0000   1.0000   1.0000
     1.0000   1.0000   1.0000   1.0000   1.0000   1.0000   1.0000   1.0000
     1.0000   1.0000   1.0000   1.0000   1.0000   1.0000   1.0000   1.0000
     1.0000   1.0000   1.0000   1.0000   1.0000   1.0000   1.0000   1.0000
     1.0000   1.0000   1.0000   1.0000   1.0000   1.0000   1.0000   1.0000
     1.0000   1.0000   1.0000   1.0000   1.0000   1.0000   1.0000   1.0000
     0.0000   0.0000   0.0000   0.0000   0.0000   0.0000   0.0000   0.0000
     0.0000   0.0000   0.0000   0.0000   0.0000   0.0000   0.0000   0.0000
     0.0000   0.0000   0.0000   0.0000   0.0000   0.0000

     the Fermi energy is    -0.8263 ev

!    total energy              =    -734.75919851 Ry
     Harris-Foulkes estimate   =    -734.75919856 Ry
     estimated scf accuracy    <       0.00000010 Ry

     The total energy is the sum of the following terms:

     one-electron contribution =   -2492.27811576 Ry
     hartree contribution      =    1301.89914547 Ry
     xc contribution           =    -275.93232710 Ry
     ewald contribution        =     731.55242614 Ry
     smearing contrib. (-TS)   =      -0.00032725 Ry

     total magnetization       =     1.00 Bohr mag/cell
     absolute magnetization    =     1.07 Bohr mag/cell

     convergence has been achieved in  26 iterations

     Writing output data file cobre-bridge-distance-3.0.save/

     init_run     :     76.39s CPU     77.65s WALL (       1 calls)
     electrons    :   2444.12s CPU   2488.60s WALL (       1 calls)

     Called by init_run:
     wfcinit      :     40.94s CPU     41.23s WALL (       1 calls)
     wfcinit:atom :      0.04s CPU      0.09s WALL (       2 calls)
     wfcinit:wfcr :     40.57s CPU     40.73s WALL (       2 calls)
     potinit      :     14.64s CPU     15.02s WALL (       1 calls)
     hinit0       :     12.35s CPU     12.39s WALL (       1 calls)

     Called by electrons:
     c_bands      :   1523.52s CPU   1532.03s WALL (      26 calls)
     sum_band     :    530.95s CPU    545.71s WALL (      26 calls)
     v_of_rho     :    192.10s CPU    200.69s WALL (      27 calls)
     v_h          :      1.98s CPU      2.03s WALL (      27 calls)
     v_xc         :    190.12s CPU    198.66s WALL (      27 calls)
     newd         :    194.36s CPU    207.48s WALL (      27 calls)
     mix_rho      :     11.34s CPU     11.56s WALL (      26 calls)

     Called by c_bands:
     init_us_2    :      4.83s CPU      4.87s WALL (     106 calls)
     cegterg      :   1511.85s CPU   1520.28s WALL (      52 calls)

     Called by sum_band:
     sum_band:bec :      0.04s CPU      0.04s WALL (      52 calls)
     addusdens    :    330.95s CPU    344.46s WALL (      26 calls)

     Called by *egterg:
     h_psi        :    809.12s CPU    814.79s WALL (     195 calls)
     s_psi        :    275.22s CPU    275.42s WALL (     195 calls)
     g_psi        :      0.81s CPU      0.82s WALL (     141 calls)
     cdiaghg      :     11.60s CPU     11.61s WALL (     193 calls)
     cegterg:over :    179.75s CPU    179.86s WALL (     141 calls)
     cegterg:upda :    105.12s CPU    105.87s WALL (     141 calls)
     cegterg:last :     81.45s CPU     81.49s WALL (      52 calls)

     Called by h_psi:
     h_psi:pot    :    808.17s CPU    812.88s WALL (     195 calls)
     h_psi:calbec :    274.41s CPU    274.61s WALL (     195 calls)
     vloc_psi     :    258.56s CPU    262.86s WALL (     195 calls)
     add_vuspsi   :    275.20s CPU    275.41s WALL (     195 calls)

     General routines
     calbec       :    396.23s CPU    396.53s WALL (     247 calls)
     fft          :    113.62s CPU    117.10s WALL (    2019 calls)
     ffts         :      1.88s CPU      1.95s WALL (     106 calls)
     fftw         :    275.31s CPU    280.10s WALL (   36042 calls)
     interpolate  :      4.58s CPU      4.68s WALL (      54 calls)

     Parallel routines
     fft_scatt_xy :     67.39s CPU     68.24s WALL (   38167 calls)
     fft_scatt_yz :    134.89s CPU    141.12s WALL (   38167 calls)

     PWSCF        :  42m 1.82s CPU  42m47.86s WALL


   This run was terminated on:   9: 2:10   7Sep2022            

=------------------------------------------------------------------------------=
   JOB DONE.
=------------------------------------------------------------------------------=
