
     Program PWSCF v.6.4.1 starts on 31Dec2022 at  5: 7:34 

     This program is part of the open-source Quantum ESPRESSO suite
     for quantum simulation of materials; please cite
         "P. Giannozzi et al., J. Phys.:Condens. Matter 21 395502 (2009);
         "P. Giannozzi et al., J. Phys.:Condens. Matter 29 465901 (2017);
          URL http://www.quantum-espresso.org", 
     in publications or presentations arising from this work. More details at
     http://www.quantum-espresso.org/quote

     Parallel version (MPI), running on     6 processors

     MPI processes distributed on     1 nodes
     R & G space division:  proc/nbgrp/npool/nimage =       6
     Reading input from distance-2.2.in

     Current dimensions of program PWSCF are:
     Max number of different atomic species (ntypx) = 10
     Max number of k-points (npk) =  40000
     Max angular momentum in pseudopotentials (lmaxx) =  3

     IMPORTANT: XC functional enforced from input :
     Exchange-correlation      = RVV10 ( 1  4 13  4 3 0)
     Any further DFT definition will be discarded
     Please, verify this is what you really want

               file H.pbe-rrkjus.UPF: wavefunction(s)  1S renormalized

     Subspace diagonalization in iterative solution of the eigenvalue problem:
     a serial algorithm will be used


     Parallelization info
     --------------------
     sticks:   dense  smooth     PW     G-vecs:    dense   smooth      PW
     Min        3051    1746    432               270999   117096   14629
     Max        3053    1747    437               271001   117099   14630
     Sum       18313   10477   2611              1626001   702581   87777



     bravais-lattice index     =            4
     lattice parameter (alat)  =      23.2937  a.u.
     unit-cell volume          =    8879.8548 (a.u.)^3
     number of atoms/cell      =           52
     number of atomic types    =            3
     number of electrons       =       216.00
     number of Kohn-Sham states=          130
     kinetic-energy cutoff     =      70.0000  Ry
     charge density cutoff     =     490.0000  Ry
     convergence threshold     =      1.0E-06
     mixing beta               =       0.7000
     number of iterations used =            8  plain     mixing
     Exchange-correlation      = RVV10 ( 1  4 13  4 3 0)

     celldm(1)=  23.293684  celldm(2)=   0.000000  celldm(3)=   0.811261
     celldm(4)=   0.000000  celldm(5)=   0.000000  celldm(6)=   0.000000

     crystal axes: (cart. coord. in units of alat)
               a(1) = (   1.000000   0.000000   0.000000 )  
               a(2) = (  -0.500000   0.866025   0.000000 )  
               a(3) = (   0.000000   0.000000   0.811261 )  

     reciprocal axes: (cart. coord. in units 2 pi/alat)
               b(1) = (  1.000000  0.577350 -0.000000 )  
               b(2) = (  0.000000  1.154701  0.000000 )  
               b(3) = (  0.000000 -0.000000  1.232649 )  


     PseudoPot. # 1 for H  read from file:
     /home/cristian/Escritorio/Proyecto_Grafeno/pseudopotenciales/H.pbe-rrkjus.UPF
     MD5 check sum: 7cc9d459525c9a0585f487a71c3c9563
     Pseudo is Ultrasoft, Zval =  1.0
     Generated by new atomic code, or converted to UPF format
     Using radial grid of 1061 points,  2 beta functions with: 
                l(1) =   0
                l(2) =   0
     Q(r) pseudized with 0 coefficients 


     PseudoPot. # 2 for C  read from file:
     /home/cristian/Escritorio/Proyecto_Grafeno/pseudopotenciales/C.pbe-n-rrkjus_psl.1.0.0.UPF
     MD5 check sum: 1fdd950c42eb37d8afe3dd2f8d12311e
     Pseudo is Ultrasoft + core correction, Zval =  4.0
     Generated using "atomic" code by A. Dal Corso v.6.3MaX
     Using radial grid of 1073 points,  4 beta functions with: 
                l(1) =   0
                l(2) =   0
                l(3) =   1
                l(4) =   1
     Q(r) pseudized with 0 coefficients 


     PseudoPot. # 3 for Ni read from file:
     /home/cristian/Escritorio/Proyecto_Grafeno/pseudopotenciales/Ni.pbe-spn-rrkjus_psl.1.0.0.UPF
     MD5 check sum: 8b3fc9aac6dafe35f580d41bb18c3945
     Pseudo is Ultrasoft + core correction, Zval = 18.0
     Generated using "atomic" code by A. Dal Corso v.6.3
     Using radial grid of 1195 points,  6 beta functions with: 
                l(1) =   0
                l(2) =   0
                l(3) =   1
                l(4) =   1
                l(5) =   2
                l(6) =   2
     Q(r) pseudized with 0 coefficients 


     vdW kernel table read from file rVV10_kernel_table
     MD5 check sum: b8e2538accc0c0b3206b45ba4daaba6c

     atomic species   valence    mass     pseudopotential
        H              1.00     1.00794     H ( 1.00)
        C              4.00    12.01070     C ( 1.00)
        Ni            18.00    58.69340     Ni( 1.00)

     Starting magnetic structure 
     atomic species   magnetization
        H            0.500
        C            0.300
        Ni           0.800

     No symmetry found


                                    s                        frac. trans.

      isym =  1     identity                                     

 cryst.   s( 1) = (     1          0          0      )
                  (     0          1          0      )
                  (     0          0          1      )

 cart.    s( 1) = (  1.0000000  0.0000000  0.0000000 )
                  (  0.0000000  1.0000000  0.0000000 )
                  (  0.0000000  0.0000000  1.0000000 )


     point group C_1 (1)    
     there are  1 classes
     the character table:

       E    
A      1.00

     the symmetry operations in each class and the name of the first element:

     E        1
          identity                                               

   Cartesian axes

     site n.     atom                  positions (alat units)
         1           H   tau(   1) = (   0.1694937   0.4618802   0.1784775  )
         2           H   tau(   2) = (   0.2305063   0.4618802   0.1784775  )
         3           C   tau(   3) = (   0.0000000   0.0000000   0.0000000  )
         4           C   tau(   4) = (   0.0000000   0.1154701   0.0000000  )
         5           C   tau(   5) = (  -0.1000000   0.1732051   0.0000000  )
         6           C   tau(   6) = (  -0.1000000   0.2886751   0.0000000  )
         7           C   tau(   7) = (  -0.2000000   0.3464102   0.0000000  )
         8           C   tau(   8) = (  -0.2000000   0.4618802   0.0000000  )
         9           C   tau(   9) = (  -0.3000000   0.5196152   0.0000000  )
        10           C   tau(  10) = (  -0.3000000   0.6350853   0.0000000  )
        11           C   tau(  11) = (  -0.4000000   0.6928203   0.0000000  )
        12           C   tau(  12) = (  -0.4000000   0.8082904   0.0000000  )
        13           C   tau(  13) = (   0.2000000   0.0000000   0.0000000  )
        14           C   tau(  14) = (   0.2000000   0.1154701   0.0000000  )
        15           C   tau(  15) = (   0.1000000   0.1732051   0.0000000  )
        16           C   tau(  16) = (   0.1000000   0.2886751   0.0000000  )
        17           C   tau(  17) = (   0.0000000   0.3464102   0.0000000  )
        18           C   tau(  18) = (   0.0000000   0.4618802   0.0000000  )
        19           C   tau(  19) = (  -0.1000000   0.5196152   0.0000000  )
        20           C   tau(  20) = (  -0.1000000   0.6350853   0.0000000  )
        21           C   tau(  21) = (  -0.2000000   0.6928203   0.0000000  )
        22           C   tau(  22) = (  -0.2000000   0.8082904   0.0000000  )
        23           C   tau(  23) = (   0.4000000   0.0000000   0.0000000  )
        24           C   tau(  24) = (   0.4000000   0.1154701   0.0000000  )
        25           C   tau(  25) = (   0.3000000   0.1732051   0.0000000  )
        26           C   tau(  26) = (   0.3000000   0.2886751   0.0000000  )
        27           C   tau(  27) = (   0.2000000   0.3464102   0.0000000  )
        28           Ni  tau(  28) = (   0.2000000   0.4618802   0.0000000  )
        29           C   tau(  29) = (   0.1000000   0.5196152   0.0000000  )
        30           C   tau(  30) = (   0.1000000   0.6350853   0.0000000  )
        31           C   tau(  31) = (   0.0000000   0.6928203   0.0000000  )
        32           C   tau(  32) = (   0.0000000   0.8082904   0.0000000  )
        33           C   tau(  33) = (   0.6000000   0.0000000   0.0000000  )
        34           C   tau(  34) = (   0.6000000   0.1154701   0.0000000  )
        35           C   tau(  35) = (   0.5000000   0.1732051   0.0000000  )
        36           C   tau(  36) = (   0.5000000   0.2886751   0.0000000  )
        37           C   tau(  37) = (   0.4000000   0.3464102   0.0000000  )
        38           C   tau(  38) = (   0.4000000   0.4618802   0.0000000  )
        39           C   tau(  39) = (   0.3000000   0.5196152   0.0000000  )
        40           C   tau(  40) = (   0.3000000   0.6350853   0.0000000  )
        41           C   tau(  41) = (   0.2000000   0.6928203   0.0000000  )
        42           C   tau(  42) = (   0.2000000   0.8082904   0.0000000  )
        43           C   tau(  43) = (   0.8000000   0.0000000   0.0000000  )
        44           C   tau(  44) = (   0.8000000   0.1154701   0.0000000  )
        45           C   tau(  45) = (   0.7000000   0.1732051   0.0000000  )
        46           C   tau(  46) = (   0.7000000   0.2886751   0.0000000  )
        47           C   tau(  47) = (   0.6000000   0.3464102   0.0000000  )
        48           C   tau(  48) = (   0.6000000   0.4618802   0.0000000  )
        49           C   tau(  49) = (   0.5000000   0.5196152   0.0000000  )
        50           C   tau(  50) = (   0.5000000   0.6350853   0.0000000  )
        51           C   tau(  51) = (   0.4000000   0.6928203   0.0000000  )
        52           C   tau(  52) = (   0.4000000   0.8082904   0.0000000  )

   Crystallographic axes

     site n.     atom                  positions (cryst. coord.)
         1           H   tau(   1) = (  0.4361603  0.5333333  0.2200000  )
         2           H   tau(   2) = (  0.4971730  0.5333333  0.2200000  )
         3           C   tau(   3) = (  0.0000000  0.0000000  0.0000000  )
         4           C   tau(   4) = (  0.0666667  0.1333333  0.0000000  )
         5           C   tau(   5) = (  0.0000000  0.2000000  0.0000000  )
         6           C   tau(   6) = (  0.0666667  0.3333333  0.0000000  )
         7           C   tau(   7) = (  0.0000000  0.4000000  0.0000000  )
         8           C   tau(   8) = (  0.0666667  0.5333333  0.0000000  )
         9           C   tau(   9) = (  0.0000000  0.6000000  0.0000000  )
        10           C   tau(  10) = (  0.0666667  0.7333333  0.0000000  )
        11           C   tau(  11) = (  0.0000000  0.8000000  0.0000000  )
        12           C   tau(  12) = (  0.0666667  0.9333333  0.0000000  )
        13           C   tau(  13) = (  0.2000000  0.0000000  0.0000000  )
        14           C   tau(  14) = (  0.2666667  0.1333333  0.0000000  )
        15           C   tau(  15) = (  0.2000000  0.2000000  0.0000000  )
        16           C   tau(  16) = (  0.2666667  0.3333333  0.0000000  )
        17           C   tau(  17) = (  0.2000000  0.4000000  0.0000000  )
        18           C   tau(  18) = (  0.2666667  0.5333333  0.0000000  )
        19           C   tau(  19) = (  0.2000000  0.6000000  0.0000000  )
        20           C   tau(  20) = (  0.2666667  0.7333333  0.0000000  )
        21           C   tau(  21) = (  0.2000000  0.8000000  0.0000000  )
        22           C   tau(  22) = (  0.2666667  0.9333333  0.0000000  )
        23           C   tau(  23) = (  0.4000000  0.0000000  0.0000000  )
        24           C   tau(  24) = (  0.4666667  0.1333333  0.0000000  )
        25           C   tau(  25) = (  0.4000000  0.2000000  0.0000000  )
        26           C   tau(  26) = (  0.4666667  0.3333333  0.0000000  )
        27           C   tau(  27) = (  0.4000000  0.4000000  0.0000000  )
        28           Ni  tau(  28) = (  0.4666667  0.5333333  0.0000000  )
        29           C   tau(  29) = (  0.4000000  0.6000000  0.0000000  )
        30           C   tau(  30) = (  0.4666667  0.7333333  0.0000000  )
        31           C   tau(  31) = (  0.4000000  0.8000000  0.0000000  )
        32           C   tau(  32) = (  0.4666667  0.9333333  0.0000000  )
        33           C   tau(  33) = (  0.6000000  0.0000000  0.0000000  )
        34           C   tau(  34) = (  0.6666667  0.1333333  0.0000000  )
        35           C   tau(  35) = (  0.6000000  0.2000000  0.0000000  )
        36           C   tau(  36) = (  0.6666667  0.3333333  0.0000000  )
        37           C   tau(  37) = (  0.6000000  0.4000000  0.0000000  )
        38           C   tau(  38) = (  0.6666667  0.5333333  0.0000000  )
        39           C   tau(  39) = (  0.6000000  0.6000000  0.0000000  )
        40           C   tau(  40) = (  0.6666667  0.7333333  0.0000000  )
        41           C   tau(  41) = (  0.6000000  0.8000000  0.0000000  )
        42           C   tau(  42) = (  0.6666667  0.9333333  0.0000000  )
        43           C   tau(  43) = (  0.8000000  0.0000000  0.0000000  )
        44           C   tau(  44) = (  0.8666667  0.1333333  0.0000000  )
        45           C   tau(  45) = (  0.8000000  0.2000000  0.0000000  )
        46           C   tau(  46) = (  0.8666667  0.3333333  0.0000000  )
        47           C   tau(  47) = (  0.8000000  0.4000000  0.0000000  )
        48           C   tau(  48) = (  0.8666667  0.5333333  0.0000000  )
        49           C   tau(  49) = (  0.8000000  0.6000000  0.0000000  )
        50           C   tau(  50) = (  0.8666667  0.7333333  0.0000000  )
        51           C   tau(  51) = (  0.8000000  0.8000000  0.0000000  )
        52           C   tau(  52) = (  0.8666667  0.9333333  0.0000000  )

     number of k points=     1  Marzari-Vanderbilt smearing, width (Ry)=  0.0010
                       cart. coord. in units 2pi/alat
        k(    1) = (   0.0000000   0.0000000   0.0000000), wk =   1.0000000

                       cryst. coord.
        k(    1) = (   0.0000000   0.0000000   0.0000000), wk =   1.0000000

     Dense  grid:  1626001 G-vectors     FFT dimensions: ( 180, 180, 135)

     Smooth grid:   702581 G-vectors     FFT dimensions: ( 125, 125, 108)

     Dynamical RAM for                 wfc:      29.03 MB

     Dynamical RAM for     wfc (w. buffer):      87.10 MB

     Dynamical RAM for           str. fact:      12.41 MB

     Dynamical RAM for           local pot:       0.00 MB

     Dynamical RAM for          nlocal pot:      92.46 MB

     Dynamical RAM for                qrad:      19.73 MB

     Dynamical RAM for          rho,v,vnew:      58.92 MB

     Dynamical RAM for               rhoin:      19.64 MB

     Dynamical RAM for            rho*nmix:     132.32 MB

     Dynamical RAM for           G-vectors:      16.40 MB

     Dynamical RAM for          h,s,v(r/c):      12.38 MB

     Dynamical RAM for          <psi|beta>:       0.82 MB

     Dynamical RAM for                 psi:     116.14 MB

     Dynamical RAM for                hpsi:     116.14 MB

     Dynamical RAM for                spsi:     116.14 MB

     Dynamical RAM for      wfcinit/wfcrot:      93.90 MB

     Dynamical RAM for           addusdens:     975.89 MB

     Estimated static dynamical RAM per process >     489.64 MB

     Estimated max dynamical RAM per process >       1.43 GB

     Estimated total dynamical RAM >       8.59 GB
     Generating pointlists ...
     new r_m :   0.0252 (alat units)  0.5862 (a.u.) for type    1
     new r_m :   0.0476 (alat units)  1.1095 (a.u.) for type    2
     new r_m :   0.0476 (alat units)  1.1095 (a.u.) for type    3

     Check: negative core charge=   -0.000002

     Initial potential from superposition of free atoms

     starting charge  215.80530, renormalised to  216.00000

     negative rho (up, down):  1.683E-04 1.866E-02


---------------------------------------------------------------------------------
Carrying out rVV10 run using the following parameters:
Nqs =      20    Nr_points =    1024   r_max =   100.000
b_value =  6.30000    beta =  0.00901
     q_mesh =  0.00010000  0.00030000  0.00058939  0.00100810
               0.00161396  0.00249058  0.00375900  0.00559430
               0.00824984  0.01209221  0.01765183  0.02569619
               0.03733578  0.05417739  0.07854596  0.11380545
               0.16482331  0.23864234  0.34545298  0.50000000

Gradients computed in Reciprocal space

---------------------------------------------------------------------------------


     Starting wfcs are  208 randomized atomic wfcs

     total cpu time spent up to now is       76.1 secs

     Self-consistent Calculation

     iteration #  1     ecut=    70.00 Ry     beta= 0.70
     Davidson diagonalization with overlap
     ethr =  1.00E-02,  avg # of iterations =  6.0

     negative rho (up, down):  3.329E-04 1.601E-02

     total cpu time spent up to now is      206.1 secs

     total energy              =    -947.08407703 Ry
     Harris-Foulkes estimate   =    -949.61046275 Ry
     estimated scf accuracy    <      13.73758159 Ry

     total magnetization       =     6.00 Bohr mag/cell
     absolute magnetization    =     6.74 Bohr mag/cell

     iteration #  2     ecut=    70.00 Ry     beta= 0.70
     Davidson diagonalization with overlap
     ethr =  6.36E-03,  avg # of iterations =  3.5

     negative rho (up, down):  8.646E-03 3.104E-01

     total cpu time spent up to now is      318.7 secs

     total energy              =    -950.78811568 Ry
     Harris-Foulkes estimate   =    -955.65297274 Ry
     estimated scf accuracy    <      33.06632052 Ry

     total magnetization       =     4.00 Bohr mag/cell
     absolute magnetization    =     8.32 Bohr mag/cell

     iteration #  3     ecut=    70.00 Ry     beta= 0.70
     Davidson diagonalization with overlap
     ethr =  6.36E-03,  avg # of iterations =  3.0

     negative rho (up, down):  3.619E-02 5.434E-01

     total cpu time spent up to now is      424.8 secs

     total energy              =    -949.04494811 Ry
     Harris-Foulkes estimate   =    -963.32214634 Ry
     estimated scf accuracy    <     653.36331136 Ry

     total magnetization       =     0.00 Bohr mag/cell
     absolute magnetization    =    37.48 Bohr mag/cell

     iteration #  4     ecut=    70.00 Ry     beta= 0.70
     Davidson diagonalization with overlap
     ethr =  6.36E-03,  avg # of iterations =  4.0

     negative rho (up, down):  1.408E-03 5.085E-01

     total cpu time spent up to now is      527.0 secs

     total energy              =    -947.44540215 Ry
     Harris-Foulkes estimate   =    -953.56453430 Ry
     estimated scf accuracy    <      99.42773621 Ry

     total magnetization       =     0.00 Bohr mag/cell
     absolute magnetization    =    15.05 Bohr mag/cell

     iteration #  5     ecut=    70.00 Ry     beta= 0.70
     Davidson diagonalization with overlap
     ethr =  6.36E-03,  avg # of iterations =  4.0

     negative rho (up, down):  1.170E-01 4.350E-01

     total cpu time spent up to now is      651.9 secs

     total energy              =    -952.77706852 Ry
     Harris-Foulkes estimate   =    -956.38819792 Ry
     estimated scf accuracy    <     313.34123432 Ry

     total magnetization       =     2.00 Bohr mag/cell
     absolute magnetization    =    27.72 Bohr mag/cell

     iteration #  6     ecut=    70.00 Ry     beta= 0.70
     Davidson diagonalization with overlap
     ethr =  6.36E-03,  avg # of iterations =  2.0

     negative rho (up, down):  1.194E-01 4.374E-01

     total cpu time spent up to now is      746.5 secs

     total energy              =    -949.04506175 Ry
     Harris-Foulkes estimate   =    -953.60220320 Ry
     estimated scf accuracy    <     151.80422980 Ry

     total magnetization       =     2.00 Bohr mag/cell
     absolute magnetization    =    19.84 Bohr mag/cell

     iteration #  7     ecut=    70.00 Ry     beta= 0.70
     Davidson diagonalization with overlap
     ethr =  6.36E-03,  avg # of iterations =  2.5

     negative rho (up, down):  6.109E-02 3.635E-01

     total cpu time spent up to now is      849.0 secs

     total energy              =    -953.28201627 Ry
     Harris-Foulkes estimate   =    -952.02274856 Ry
     estimated scf accuracy    <      37.66041532 Ry

     total magnetization       =     2.00 Bohr mag/cell
     absolute magnetization    =     9.87 Bohr mag/cell

     iteration #  8     ecut=    70.00 Ry     beta= 0.70
     Davidson diagonalization with overlap
     ethr =  6.36E-03,  avg # of iterations =  2.0

     negative rho (up, down):  5.923E-02 4.614E-01

     total cpu time spent up to now is      944.3 secs

     total energy              =    -948.19252529 Ry
     Harris-Foulkes estimate   =    -954.54096937 Ry
     estimated scf accuracy    <     186.78282498 Ry

     total magnetization       =     0.44 Bohr mag/cell
     absolute magnetization    =    20.76 Bohr mag/cell

     iteration #  9     ecut=    70.00 Ry     beta= 0.70
     Davidson diagonalization with overlap
     ethr =  6.36E-03,  avg # of iterations =  2.5

     negative rho (up, down):  3.185E-02 3.493E-01

     total cpu time spent up to now is     1045.2 secs

     total energy              =    -951.64750287 Ry
     Harris-Foulkes estimate   =    -951.57630278 Ry
     estimated scf accuracy    <       4.19711072 Ry

     total magnetization       =     0.00 Bohr mag/cell
     absolute magnetization    =     2.10 Bohr mag/cell

     iteration # 10     ecut=    70.00 Ry     beta= 0.70
     Davidson diagonalization with overlap
     ethr =  1.94E-03,  avg # of iterations =  2.0

     negative rho (up, down):  4.945E-02 1.807E-01

     total cpu time spent up to now is     1140.3 secs

     total energy              =    -951.63530674 Ry
     Harris-Foulkes estimate   =    -951.94079600 Ry
     estimated scf accuracy    <       5.34398036 Ry

     total magnetization       =    -0.00 Bohr mag/cell
     absolute magnetization    =     2.28 Bohr mag/cell

     iteration # 11     ecut=    70.00 Ry     beta= 0.70
     Davidson diagonalization with overlap
     ethr =  1.94E-03,  avg # of iterations =  2.0

     negative rho (up, down):  1.113E-02 2.186E-01

     total cpu time spent up to now is     1232.9 secs

     total energy              =    -951.78534232 Ry
     Harris-Foulkes estimate   =    -951.85403275 Ry
     estimated scf accuracy    <       0.98985056 Ry

     total magnetization       =     0.00 Bohr mag/cell
     absolute magnetization    =     0.89 Bohr mag/cell

     iteration # 12     ecut=    70.00 Ry     beta= 0.70
     Davidson diagonalization with overlap
     ethr =  4.58E-04,  avg # of iterations =  5.0

     negative rho (up, down):  1.526E-02 1.027E-01

     total cpu time spent up to now is     1329.0 secs

     total energy              =    -951.80476215 Ry
     Harris-Foulkes estimate   =    -951.85165886 Ry
     estimated scf accuracy    <       0.59280665 Ry

     total magnetization       =     0.00 Bohr mag/cell
     absolute magnetization    =     0.53 Bohr mag/cell

     iteration # 13     ecut=    70.00 Ry     beta= 0.70
     Davidson diagonalization with overlap
     ethr =  2.74E-04,  avg # of iterations =  4.5

     negative rho (up, down):  8.077E-03 1.399E-01

     total cpu time spent up to now is     1425.0 secs

     total energy              =    -951.81662074 Ry
     Harris-Foulkes estimate   =    -951.84501470 Ry
     estimated scf accuracy    <       0.42137612 Ry

     total magnetization       =     0.00 Bohr mag/cell
     absolute magnetization    =     0.62 Bohr mag/cell

     iteration # 14     ecut=    70.00 Ry     beta= 0.70
     Davidson diagonalization with overlap
     ethr =  1.95E-04,  avg # of iterations =  2.0

     negative rho (up, down):  3.795E-03 1.785E-01

     total cpu time spent up to now is     1516.4 secs

     total energy              =    -951.82553911 Ry
     Harris-Foulkes estimate   =    -951.84655136 Ry
     estimated scf accuracy    <       0.13558456 Ry

     total magnetization       =     0.00 Bohr mag/cell
     absolute magnetization    =     0.45 Bohr mag/cell

     iteration # 15     ecut=    70.00 Ry     beta= 0.70
     Davidson diagonalization with overlap
     ethr =  6.28E-05,  avg # of iterations =  3.0

     negative rho (up, down):  5.604E-03 3.306E-01

     total cpu time spent up to now is     1619.1 secs

     total energy              =    -951.85052372 Ry
     Harris-Foulkes estimate   =    -951.86928122 Ry
     estimated scf accuracy    <       1.68886899 Ry

     total magnetization       =    -0.14 Bohr mag/cell
     absolute magnetization    =     2.03 Bohr mag/cell

     iteration # 16     ecut=    70.00 Ry     beta= 0.70
     Davidson diagonalization with overlap
     ethr =  6.28E-05,  avg # of iterations =  2.0

     negative rho (up, down):  5.275E-03 3.302E-01

     total cpu time spent up to now is     1712.5 secs

     total energy              =    -951.85948890 Ry
     Harris-Foulkes estimate   =    -951.85475328 Ry
     estimated scf accuracy    <       1.04048995 Ry

     total magnetization       =     0.00 Bohr mag/cell
     absolute magnetization    =     1.54 Bohr mag/cell

     iteration # 17     ecut=    70.00 Ry     beta= 0.70
     Davidson diagonalization with overlap
     ethr =  6.28E-05,  avg # of iterations =  2.0

     negative rho (up, down):  4.018E-03 3.433E-01

     total cpu time spent up to now is     1805.4 secs

     total energy              =    -951.78118389 Ry
     Harris-Foulkes estimate   =    -951.86438516 Ry
     estimated scf accuracy    <       1.58989443 Ry

     total magnetization       =    -0.00 Bohr mag/cell
     absolute magnetization    =     1.91 Bohr mag/cell

     iteration # 18     ecut=    70.00 Ry     beta= 0.70
     Davidson diagonalization with overlap
     ethr =  6.28E-05,  avg # of iterations =  3.0

     negative rho (up, down):  4.830E-03 3.542E-01

     total cpu time spent up to now is     1912.1 secs

     total energy              =    -951.76321106 Ry
     Harris-Foulkes estimate   =    -951.88495884 Ry
     estimated scf accuracy    <       3.78871397 Ry

     total magnetization       =    -0.00 Bohr mag/cell
     absolute magnetization    =     2.94 Bohr mag/cell

     iteration # 19     ecut=    70.00 Ry     beta= 0.70
     Davidson diagonalization with overlap
     ethr =  6.28E-05,  avg # of iterations =  3.0

     negative rho (up, down):  4.615E-03 2.640E-01

     total cpu time spent up to now is     2016.3 secs

     total energy              =    -951.83068526 Ry
     Harris-Foulkes estimate   =    -951.82375333 Ry
     estimated scf accuracy    <       0.08766308 Ry

     total magnetization       =     0.00 Bohr mag/cell
     absolute magnetization    =     0.43 Bohr mag/cell

     iteration # 20     ecut=    70.00 Ry     beta= 0.70
     Davidson diagonalization with overlap
     ethr =  4.06E-05,  avg # of iterations =  2.0

     negative rho (up, down):  3.122E-03 1.711E-01

     total cpu time spent up to now is     2110.5 secs

     total energy              =    -951.83499612 Ry
     Harris-Foulkes estimate   =    -951.83445112 Ry
     estimated scf accuracy    <       0.03828196 Ry

     total magnetization       =    -0.00 Bohr mag/cell
     absolute magnetization    =     0.20 Bohr mag/cell

     iteration # 21     ecut=    70.00 Ry     beta= 0.70
     Davidson diagonalization with overlap
     ethr =  1.77E-05,  avg # of iterations =  2.5

     negative rho (up, down):  1.461E-03 1.069E-01

     total cpu time spent up to now is     2204.7 secs

     total energy              =    -951.83709305 Ry
     Harris-Foulkes estimate   =    -951.83657100 Ry
     estimated scf accuracy    <       0.00754270 Ry

     total magnetization       =    -0.00 Bohr mag/cell
     absolute magnetization    =     0.13 Bohr mag/cell

     iteration # 22     ecut=    70.00 Ry     beta= 0.70
     Davidson diagonalization with overlap
     ethr =  3.49E-06,  avg # of iterations =  4.0

     negative rho (up, down):  1.758E-03 6.566E-02

     total cpu time spent up to now is     2304.2 secs

     total energy              =    -951.83718055 Ry
     Harris-Foulkes estimate   =    -951.83777097 Ry
     estimated scf accuracy    <       0.00905807 Ry

     total magnetization       =     0.09 Bohr mag/cell
     absolute magnetization    =     0.18 Bohr mag/cell

     iteration # 23     ecut=    70.00 Ry     beta= 0.70
     Davidson diagonalization with overlap
     ethr =  3.49E-06,  avg # of iterations =  2.0

     negative rho (up, down):  1.229E-03 4.295E-02

     total cpu time spent up to now is     2396.9 secs

     total energy              =    -951.83764961 Ry
     Harris-Foulkes estimate   =    -951.83758219 Ry
     estimated scf accuracy    <       0.00150309 Ry

     total magnetization       =     0.07 Bohr mag/cell
     absolute magnetization    =     0.14 Bohr mag/cell

     iteration # 24     ecut=    70.00 Ry     beta= 0.70
     Davidson diagonalization with overlap
     ethr =  6.96E-07,  avg # of iterations =  2.0

     negative rho (up, down):  1.402E-03 3.402E-02

     total cpu time spent up to now is     2494.5 secs

     total energy              =    -951.83765838 Ry
     Harris-Foulkes estimate   =    -951.83787924 Ry
     estimated scf accuracy    <       0.00339245 Ry

     total magnetization       =     0.06 Bohr mag/cell
     absolute magnetization    =     0.13 Bohr mag/cell

     iteration # 25     ecut=    70.00 Ry     beta= 0.70
     Davidson diagonalization with overlap
     ethr =  6.96E-07,  avg # of iterations =  2.5

     negative rho (up, down):  1.216E-03 2.845E-02

     total cpu time spent up to now is     2590.8 secs

     total energy              =    -951.83774639 Ry
     Harris-Foulkes estimate   =    -951.83782420 Ry
     estimated scf accuracy    <       0.00097292 Ry

     total magnetization       =     0.06 Bohr mag/cell
     absolute magnetization    =     0.11 Bohr mag/cell

     iteration # 26     ecut=    70.00 Ry     beta= 0.70
     Davidson diagonalization with overlap
     ethr =  4.50E-07,  avg # of iterations =  2.0

     negative rho (up, down):  1.266E-03 1.170E-01

     total cpu time spent up to now is     2686.3 secs

     total energy              =    -951.83776551 Ry
     Harris-Foulkes estimate   =    -951.83795389 Ry
     estimated scf accuracy    <       0.00711760 Ry

     total magnetization       =     0.04 Bohr mag/cell
     absolute magnetization    =     0.20 Bohr mag/cell

     iteration # 27     ecut=    70.00 Ry     beta= 0.70
     Davidson diagonalization with overlap
     ethr =  4.50E-07,  avg # of iterations =  2.5

     negative rho (up, down):  1.263E-03 1.339E-01

     total cpu time spent up to now is     2786.9 secs

     total energy              =    -951.83782823 Ry
     Harris-Foulkes estimate   =    -951.83789910 Ry
     estimated scf accuracy    <       0.00875763 Ry

     total magnetization       =     0.04 Bohr mag/cell
     absolute magnetization    =     0.21 Bohr mag/cell

     iteration # 28     ecut=    70.00 Ry     beta= 0.70
     Davidson diagonalization with overlap
     ethr =  4.50E-07,  avg # of iterations =  2.0

     negative rho (up, down):  1.272E-03 1.543E-01

     total cpu time spent up to now is     2882.4 secs

     total energy              =    -951.83757715 Ry
     Harris-Foulkes estimate   =    -951.83789734 Ry
     estimated scf accuracy    <       0.01436524 Ry

     total magnetization       =     0.04 Bohr mag/cell
     absolute magnetization    =     0.25 Bohr mag/cell

     iteration # 29     ecut=    70.00 Ry     beta= 0.70
     Davidson diagonalization with overlap
     ethr =  4.50E-07,  avg # of iterations =  2.0

     negative rho (up, down):  1.299E-03 1.566E-01

     total cpu time spent up to now is     2981.1 secs

     total energy              =    -951.83735073 Ry
     Harris-Foulkes estimate   =    -951.83771439 Ry
     estimated scf accuracy    <       0.01231886 Ry

     total magnetization       =     0.05 Bohr mag/cell
     absolute magnetization    =     0.24 Bohr mag/cell

     iteration # 30     ecut=    70.00 Ry     beta= 0.70
     Davidson diagonalization with overlap
     ethr =  4.50E-07,  avg # of iterations =  2.0

     negative rho (up, down):  1.319E-03 1.092E-01

     total cpu time spent up to now is     3078.7 secs

     total energy              =    -951.83760981 Ry
     Harris-Foulkes estimate   =    -951.83748516 Ry
     estimated scf accuracy    <       0.00238284 Ry

     total magnetization       =     0.06 Bohr mag/cell
     absolute magnetization    =     0.15 Bohr mag/cell

     iteration # 31     ecut=    70.00 Ry     beta= 0.70
     Davidson diagonalization with overlap
     ethr =  4.50E-07,  avg # of iterations =  2.0

     negative rho (up, down):  1.260E-03 4.957E-02

     total cpu time spent up to now is     3173.7 secs

     total energy              =    -951.83779713 Ry
     Harris-Foulkes estimate   =    -951.83767556 Ry
     estimated scf accuracy    <       0.00077561 Ry

     total magnetization       =     0.07 Bohr mag/cell
     absolute magnetization    =     0.12 Bohr mag/cell

     iteration # 32     ecut=    70.00 Ry     beta= 0.70
     Davidson diagonalization with overlap
     ethr =  3.59E-07,  avg # of iterations =  2.5

     negative rho (up, down):  1.244E-03 1.444E-02

     total cpu time spent up to now is     3269.1 secs

     total energy              =    -951.83782847 Ry
     Harris-Foulkes estimate   =    -951.83784354 Ry
     estimated scf accuracy    <       0.00059322 Ry

     total magnetization       =     0.07 Bohr mag/cell
     absolute magnetization    =     0.12 Bohr mag/cell

     iteration # 33     ecut=    70.00 Ry     beta= 0.70
     Davidson diagonalization with overlap
     ethr =  2.75E-07,  avg # of iterations =  3.0

     negative rho (up, down):  1.221E-03 1.161E-02

     total cpu time spent up to now is     3364.0 secs

     total energy              =    -951.83785376 Ry
     Harris-Foulkes estimate   =    -951.83785820 Ry
     estimated scf accuracy    <       0.00015820 Ry

     total magnetization       =     0.06 Bohr mag/cell
     absolute magnetization    =     0.10 Bohr mag/cell

     iteration # 34     ecut=    70.00 Ry     beta= 0.70
     Davidson diagonalization with overlap
     ethr =  7.32E-08,  avg # of iterations =  2.0

     negative rho (up, down):  1.221E-03 9.889E-03

     total cpu time spent up to now is     3456.0 secs

     total energy              =    -951.83785805 Ry
     Harris-Foulkes estimate   =    -951.83786435 Ry
     estimated scf accuracy    <       0.00009032 Ry

     total magnetization       =     0.06 Bohr mag/cell
     absolute magnetization    =     0.10 Bohr mag/cell

     iteration # 35     ecut=    70.00 Ry     beta= 0.70
     Davidson diagonalization with overlap
     ethr =  4.18E-08,  avg # of iterations =  2.0

     negative rho (up, down):  1.227E-03 1.147E-02

     total cpu time spent up to now is     3552.4 secs

     total energy              =    -951.83784538 Ry
     Harris-Foulkes estimate   =    -951.83786843 Ry
     estimated scf accuracy    <       0.00021323 Ry

     total magnetization       =     0.07 Bohr mag/cell
     absolute magnetization    =     0.11 Bohr mag/cell

     iteration # 36     ecut=    70.00 Ry     beta= 0.70
     Davidson diagonalization with overlap
     ethr =  4.18E-08,  avg # of iterations =  2.5

     negative rho (up, down):  1.217E-03 3.595E-02

     total cpu time spent up to now is     3651.1 secs

     total energy              =    -951.83786534 Ry
     Harris-Foulkes estimate   =    -951.83787231 Ry
     estimated scf accuracy    <       0.00058483 Ry

     total magnetization       =     0.06 Bohr mag/cell
     absolute magnetization    =     0.12 Bohr mag/cell

     iteration # 37     ecut=    70.00 Ry     beta= 0.70
     Davidson diagonalization with overlap
     ethr =  4.18E-08,  avg # of iterations =  1.0

     negative rho (up, down):  1.222E-03 5.374E-02

     total cpu time spent up to now is     3741.4 secs

     total energy              =    -951.83782955 Ry
     Harris-Foulkes estimate   =    -951.83786582 Ry
     estimated scf accuracy    <       0.00070869 Ry

     total magnetization       =     0.06 Bohr mag/cell
     absolute magnetization    =     0.13 Bohr mag/cell

     iteration # 38     ecut=    70.00 Ry     beta= 0.70
     Davidson diagonalization with overlap
     ethr =  4.18E-08,  avg # of iterations =  2.0

     negative rho (up, down):  1.221E-03 5.282E-02

     total cpu time spent up to now is     3840.4 secs

     total energy              =    -951.83781980 Ry
     Harris-Foulkes estimate   =    -951.83784629 Ry
     estimated scf accuracy    <       0.00093398 Ry

     total magnetization       =     0.06 Bohr mag/cell
     absolute magnetization    =     0.14 Bohr mag/cell

     iteration # 39     ecut=    70.00 Ry     beta= 0.70
     Davidson diagonalization with overlap
     ethr =  4.18E-08,  avg # of iterations =  2.0

     negative rho (up, down):  1.222E-03 3.410E-02

     total cpu time spent up to now is     3938.0 secs

     total energy              =    -951.83785199 Ry
     Harris-Foulkes estimate   =    -951.83783119 Ry
     estimated scf accuracy    <       0.00017443 Ry

     total magnetization       =     0.06 Bohr mag/cell
     absolute magnetization    =     0.11 Bohr mag/cell

     iteration # 40     ecut=    70.00 Ry     beta= 0.70
     Davidson diagonalization with overlap
     ethr =  4.18E-08,  avg # of iterations =  2.0

     negative rho (up, down):  1.217E-03 3.206E-02

     total cpu time spent up to now is     4029.0 secs

     total energy              =    -951.83785356 Ry
     Harris-Foulkes estimate   =    -951.83785438 Ry
     estimated scf accuracy    <       0.00023069 Ry

     total magnetization       =     0.06 Bohr mag/cell
     absolute magnetization    =     0.11 Bohr mag/cell

     iteration # 41     ecut=    70.00 Ry     beta= 0.70
     Davidson diagonalization with overlap
     ethr =  4.18E-08,  avg # of iterations =  2.0

     negative rho (up, down):  1.219E-03 2.272E-02

     total cpu time spent up to now is     4121.1 secs

     total energy              =    -951.83785502 Ry
     Harris-Foulkes estimate   =    -951.83785657 Ry
     estimated scf accuracy    <       0.00012866 Ry

     total magnetization       =     0.07 Bohr mag/cell
     absolute magnetization    =     0.11 Bohr mag/cell

     iteration # 42     ecut=    70.00 Ry     beta= 0.70
     Davidson diagonalization with overlap
     ethr =  4.18E-08,  avg # of iterations =  2.0

     negative rho (up, down):  1.215E-03 8.572E-03

     total cpu time spent up to now is     4214.1 secs

     total energy              =    -951.83786401 Ry
     Harris-Foulkes estimate   =    -951.83785868 Ry
     estimated scf accuracy    <       0.00001964 Ry

     total magnetization       =     0.07 Bohr mag/cell
     absolute magnetization    =     0.10 Bohr mag/cell

     iteration # 43     ecut=    70.00 Ry     beta= 0.70
     Davidson diagonalization with overlap
     ethr =  9.09E-09,  avg # of iterations =  2.0

     negative rho (up, down):  1.219E-03 1.314E-02

     total cpu time spent up to now is     4309.9 secs

     total energy              =    -951.83786002 Ry
     Harris-Foulkes estimate   =    -951.83786759 Ry
     estimated scf accuracy    <       0.00009686 Ry

     total magnetization       =     0.06 Bohr mag/cell
     absolute magnetization    =     0.10 Bohr mag/cell

     iteration # 44     ecut=    70.00 Ry     beta= 0.70
     Davidson diagonalization with overlap
     ethr =  9.09E-09,  avg # of iterations =  2.0

     negative rho (up, down):  1.216E-03 8.858E-03

     total cpu time spent up to now is     4407.4 secs

     total energy              =    -951.83786311 Ry
     Harris-Foulkes estimate   =    -951.83786347 Ry
     estimated scf accuracy    <       0.00003181 Ry

     total magnetization       =     0.06 Bohr mag/cell
     absolute magnetization    =     0.10 Bohr mag/cell

     iteration # 45     ecut=    70.00 Ry     beta= 0.70
     Davidson diagonalization with overlap
     ethr =  9.09E-09,  avg # of iterations =  2.0

     negative rho (up, down):  1.217E-03 3.634E-03

     total cpu time spent up to now is     4504.6 secs

     total energy              =    -951.83786378 Ry
     Harris-Foulkes estimate   =    -951.83786528 Ry
     estimated scf accuracy    <       0.00003264 Ry

     total magnetization       =     0.07 Bohr mag/cell
     absolute magnetization    =     0.10 Bohr mag/cell

     iteration # 46     ecut=    70.00 Ry     beta= 0.70
     Davidson diagonalization with overlap
     ethr =  9.09E-09,  avg # of iterations =  2.0

     negative rho (up, down):  1.214E-03 5.940E-03

     total cpu time spent up to now is     4598.1 secs

     total energy              =    -951.83786579 Ry
     Harris-Foulkes estimate   =    -951.83786539 Ry
     estimated scf accuracy    <       0.00001653 Ry

     total magnetization       =     0.06 Bohr mag/cell
     absolute magnetization    =     0.10 Bohr mag/cell

     iteration # 47     ecut=    70.00 Ry     beta= 0.70
     Davidson diagonalization with overlap
     ethr =  7.65E-09,  avg # of iterations =  2.0

     negative rho (up, down):  1.216E-03 1.464E-02

     total cpu time spent up to now is     4691.7 secs

     total energy              =    -951.83786432 Ry
     Harris-Foulkes estimate   =    -951.83786685 Ry
     estimated scf accuracy    <       0.00007320 Ry

     total magnetization       =     0.06 Bohr mag/cell
     absolute magnetization    =     0.10 Bohr mag/cell

     iteration # 48     ecut=    70.00 Ry     beta= 0.70
     Davidson diagonalization with overlap
     ethr =  7.65E-09,  avg # of iterations =  2.0

     negative rho (up, down):  1.217E-03 1.657E-02

     total cpu time spent up to now is     4784.1 secs

     total energy              =    -951.83786322 Ry
     Harris-Foulkes estimate   =    -951.83786487 Ry
     estimated scf accuracy    <       0.00008028 Ry

     total magnetization       =     0.07 Bohr mag/cell
     absolute magnetization    =     0.11 Bohr mag/cell

     iteration # 49     ecut=    70.00 Ry     beta= 0.70
     Davidson diagonalization with overlap
     ethr =  7.65E-09,  avg # of iterations =  1.0

     negative rho (up, down):  1.218E-03 1.664E-02

     total cpu time spent up to now is     4874.9 secs

     total energy              =    -951.83785997 Ry
     Harris-Foulkes estimate   =    -951.83786333 Ry
     estimated scf accuracy    <       0.00006389 Ry

     total magnetization       =     0.07 Bohr mag/cell
     absolute magnetization    =     0.10 Bohr mag/cell

     iteration # 50     ecut=    70.00 Ry     beta= 0.70
     Davidson diagonalization with overlap
     ethr =  7.65E-09,  avg # of iterations =  2.0

     negative rho (up, down):  1.217E-03 2.715E-02

     total cpu time spent up to now is     4976.3 secs

     total energy              =    -951.83785655 Ry
     Harris-Foulkes estimate   =    -951.83786632 Ry
     estimated scf accuracy    <       0.00025241 Ry

     total magnetization       =     0.06 Bohr mag/cell
     absolute magnetization    =     0.11 Bohr mag/cell

     iteration # 51     ecut=    70.00 Ry     beta= 0.70
     Davidson diagonalization with overlap
     ethr =  7.65E-09,  avg # of iterations =  2.0

     negative rho (up, down):  1.218E-03 1.721E-02

     total cpu time spent up to now is     5073.8 secs

     total energy              =    -951.83786093 Ry
     Harris-Foulkes estimate   =    -951.83785860 Ry
     estimated scf accuracy    <       0.00005131 Ry

     total magnetization       =     0.06 Bohr mag/cell
     absolute magnetization    =     0.10 Bohr mag/cell

     iteration # 52     ecut=    70.00 Ry     beta= 0.70
     Davidson diagonalization with overlap
     ethr =  7.65E-09,  avg # of iterations =  2.0

     negative rho (up, down):  1.216E-03 5.549E-03

     total cpu time spent up to now is     5169.4 secs

     total energy              =    -951.83786452 Ry
     Harris-Foulkes estimate   =    -951.83786275 Ry
     estimated scf accuracy    <       0.00001717 Ry

     total magnetization       =     0.07 Bohr mag/cell
     absolute magnetization    =     0.10 Bohr mag/cell

     iteration # 53     ecut=    70.00 Ry     beta= 0.70
     Davidson diagonalization with overlap
     ethr =  7.65E-09,  avg # of iterations =  2.0

     negative rho (up, down):  1.215E-03 3.818E-03

     total cpu time spent up to now is     5262.0 secs

     total energy              =    -951.83786541 Ry
     Harris-Foulkes estimate   =    -951.83786539 Ry
     estimated scf accuracy    <       0.00000581 Ry

     total magnetization       =     0.07 Bohr mag/cell
     absolute magnetization    =     0.10 Bohr mag/cell

     iteration # 54     ecut=    70.00 Ry     beta= 0.70
     Davidson diagonalization with overlap
     ethr =  2.69E-09,  avg # of iterations =  1.5

     negative rho (up, down):  1.214E-03 1.989E-04

     Magnetic moment per site:
     atom:    1    charge:    0.2145    magn:    0.0001    constr:    0.0000
     atom:    2    charge:    0.2145    magn:    0.0001    constr:    0.0000
     atom:    3    charge:    1.7156    magn:    0.0009    constr:    0.0000
     atom:    4    charge:    1.7152    magn:   -0.0004    constr:    0.0000
     atom:    5    charge:    1.7169    magn:    0.0011    constr:    0.0000
     atom:    6    charge:    1.7146    magn:   -0.0002    constr:    0.0000
     atom:    7    charge:    1.7169    magn:    0.0012    constr:    0.0000
     atom:    8    charge:    1.7152    magn:   -0.0004    constr:    0.0000
     atom:    9    charge:    1.7156    magn:    0.0009    constr:    0.0000
     atom:   10    charge:    1.7177    magn:   -0.0002    constr:    0.0000
     atom:   11    charge:    1.7156    magn:    0.0003    constr:    0.0000
     atom:   12    charge:    1.7176    magn:   -0.0002    constr:    0.0000
     atom:   13    charge:    1.7156    magn:    0.0003    constr:    0.0000
     atom:   14    charge:    1.7176    magn:    0.0001    constr:    0.0000
     atom:   15    charge:    1.7118    magn:    0.0001    constr:    0.0000
     atom:   16    charge:    1.7113    magn:   -0.0002    constr:    0.0000
     atom:   17    charge:    1.7210    magn:    0.0026    constr:    0.0000
     atom:   18    charge:    1.7115    magn:   -0.0002    constr:    0.0000
     atom:   19    charge:    1.7118    magn:    0.0001    constr:    0.0000
     atom:   20    charge:    1.7175    magn:    0.0001    constr:    0.0000
     atom:   21    charge:    1.7156    magn:    0.0003    constr:    0.0000
     atom:   22    charge:    1.7176    magn:   -0.0002    constr:    0.0000
     atom:   23    charge:    1.7155    magn:    0.0009    constr:    0.0000
     atom:   24    charge:    1.7152    magn:   -0.0004    constr:    0.0000
     atom:   25    charge:    1.7118    magn:    0.0001    constr:    0.0000
     atom:   26    charge:    1.7113    magn:   -0.0002    constr:    0.0000
     atom:   27    charge:    1.8217    magn:    0.0021    constr:    0.0000
     atom:   28    charge:   13.4107    magn:    0.0002    constr:    0.0000
     atom:   29    charge:    1.8222    magn:    0.0022    constr:    0.0000
     atom:   30    charge:    1.7112    magn:   -0.0002    constr:    0.0000
     atom:   31    charge:    1.7118    magn:    0.0001    constr:    0.0000
     atom:   32    charge:    1.7152    magn:   -0.0004    constr:    0.0000
     atom:   33    charge:    1.7169    magn:    0.0012    constr:    0.0000
     atom:   34    charge:    1.7152    magn:   -0.0007    constr:    0.0000
     atom:   35    charge:    1.7169    magn:    0.0011    constr:    0.0000
     atom:   36    charge:    1.7145    magn:   -0.0002    constr:    0.0000
     atom:   37    charge:    1.7209    magn:    0.0026    constr:    0.0000
     atom:   38    charge:    1.7114    magn:   -0.0003    constr:    0.0000
     atom:   39    charge:    1.8221    magn:    0.0022    constr:    0.0000
     atom:   40    charge:    1.7112    magn:   -0.0002    constr:    0.0000
     atom:   41    charge:    1.7209    magn:    0.0026    constr:    0.0000
     atom:   42    charge:    1.7145    magn:   -0.0002    constr:    0.0000
     atom:   43    charge:    1.7169    magn:    0.0012    constr:    0.0000
     atom:   44    charge:    1.7153    magn:   -0.0006    constr:    0.0000
     atom:   45    charge:    1.7216    magn:    0.0048    constr:    0.0000
     atom:   46    charge:    1.7153    magn:   -0.0007    constr:    0.0000
     atom:   47    charge:    1.7169    magn:    0.0012    constr:    0.0000
     atom:   48    charge:    1.7152    magn:   -0.0004    constr:    0.0000
     atom:   49    charge:    1.7118    magn:    0.0001    constr:    0.0000
     atom:   50    charge:    1.7176    magn:    0.0001    constr:    0.0000
     atom:   51    charge:    1.7118    magn:    0.0001    constr:    0.0000
     atom:   52    charge:    1.7152    magn:   -0.0004    constr:    0.0000

     total cpu time spent up to now is     5353.8 secs

     End of self-consistent calculation

 ------ SPIN UP ------------


          k = 0.0000 0.0000 0.0000 ( 87777 PWs)   bands (ev):

  -107.8323 -69.0080 -69.0056 -66.9170 -19.8094 -18.9919 -18.9877 -18.8711
   -18.8705 -18.7855 -18.7178 -17.1439 -17.1424 -17.1114 -17.0634 -17.0609
   -16.7351 -16.2932 -16.2925 -16.1486 -16.1471 -16.1338 -15.6544 -14.2890
   -14.2887 -14.1309 -13.9983 -13.9979 -13.4960 -13.1111 -13.1106 -13.0592
   -12.8823 -12.8802 -12.4853 -12.0509 -12.0507 -11.6941 -11.5503 -11.5492
   -10.9174 -10.3992 -10.3984  -9.5553  -9.3484  -9.3479  -9.2077  -9.1929
    -9.1928  -9.1777  -8.9308  -8.9299  -8.5686  -8.5671  -8.4284  -8.1577
    -7.8819  -7.8511  -7.8291  -7.6438  -7.6084  -7.5203  -7.5196  -7.4257
    -7.4256  -6.8246  -6.8069  -6.8061  -6.7314  -6.6017  -6.6008  -6.5365
    -6.5323  -6.5313  -6.5031  -6.4532  -6.4085  -6.4032  -6.2626  -6.2620
    -6.2120  -5.5278  -5.5266  -5.0123  -4.9308  -4.8215  -4.8210  -4.7434
    -4.7054  -4.7043  -4.3818  -4.3797  -4.3755  -3.8244  -3.8231  -3.7502
    -3.7396  -3.7394  -3.4322  -3.4043  -3.3992  -2.9874  -1.8783  -1.7901
    -1.7896  -1.5783  -1.5751  -1.0606   0.0979   0.1286   0.9170   0.9746
     0.9763   1.2150   1.2267   1.5954   2.4919   2.8078   2.8137   2.8682
     3.0022   3.0474   3.4479   3.4972   3.6220   3.7424   3.7443   3.7716
     3.9318   4.2235

     occupation numbers 
     1.0000   1.0000   1.0000   1.0000   1.0000   1.0000   1.0000   1.0000
     1.0000   1.0000   1.0000   1.0000   1.0000   1.0000   1.0000   1.0000
     1.0000   1.0000   1.0000   1.0000   1.0000   1.0000   1.0000   1.0000
     1.0000   1.0000   1.0000   1.0000   1.0000   1.0000   1.0000   1.0000
     1.0000   1.0000   1.0000   1.0000   1.0000   1.0000   1.0000   1.0000
     1.0000   1.0000   1.0000   1.0000   1.0000   1.0000   1.0000   1.0000
     1.0000   1.0000   1.0000   1.0000   1.0000   1.0000   1.0000   1.0000
     1.0000   1.0000   1.0000   1.0000   1.0000   1.0000   1.0000   1.0000
     1.0000   1.0000   1.0000   1.0000   1.0000   1.0000   1.0000   1.0000
     1.0000   1.0000   1.0000   1.0000   1.0000   1.0000   1.0000   1.0000
     1.0000   1.0000   1.0000   1.0000   1.0000   1.0000   1.0000   1.0000
     1.0000   1.0000   1.0000   1.0000   1.0000   1.0000   1.0000   1.0000
     1.0000   1.0000   1.0000   1.0000   1.0000   1.0000   1.0000   1.0000
     1.0000   1.0000   1.0000   1.0329   0.0000   0.0000   0.0000   0.0000
     0.0000   0.0000   0.0000   0.0000   0.0000   0.0000   0.0000   0.0000
     0.0000   0.0000   0.0000   0.0000   0.0000   0.0000   0.0000   0.0000
     0.0000   0.0000

 ------ SPIN DOWN ----------


          k = 0.0000 0.0000 0.0000 ( 87777 PWs)   bands (ev):

  -107.8315 -69.0074 -69.0051 -66.9154 -19.8079 -18.9907 -18.9864 -18.8699
   -18.8694 -18.7839 -18.7151 -17.1422 -17.1408 -17.1112 -17.0617 -17.0592
   -16.7330 -16.2923 -16.2916 -16.1474 -16.1458 -16.1309 -15.6524 -14.2874
   -14.2872 -14.1300 -13.9976 -13.9971 -13.4896 -13.1105 -13.1100 -13.0581
   -12.8813 -12.8792 -12.4846 -12.0495 -12.0494 -11.6921 -11.5495 -11.5484
   -10.9156 -10.3980 -10.3972  -9.5551  -9.3471  -9.3466  -9.2073  -9.1920
    -9.1919  -9.1764  -8.9300  -8.9292  -8.5680  -8.5665  -8.4274  -8.1535
    -7.8813  -7.8451  -7.8232  -7.6427  -7.6057  -7.5197  -7.5190  -7.4250
    -7.4249  -6.8243  -6.8044  -6.8036  -6.7270  -6.6010  -6.6000  -6.5362
    -6.5318  -6.5309  -6.5013  -6.4497  -6.4054  -6.4001  -6.2615  -6.2609
    -6.2096  -5.5271  -5.5259  -5.0118  -4.9304  -4.8210  -4.8206  -4.7428
    -4.7007  -4.6997  -4.3793  -4.3771  -4.3704  -3.8221  -3.8208  -3.7425
    -3.7389  -3.7387  -3.4272  -3.4015  -3.3964  -2.9822  -1.8754  -1.7883
    -1.7878  -1.5754  -1.5723  -1.0435   0.1006   0.1313   0.9203   0.9771
     0.9790   1.2188   1.2305   1.6010   2.4923   2.8108   2.8168   2.8760
     3.0057   3.0511   3.4488   3.5029   3.6224   3.7425   3.7444   3.7723
     3.9336   4.2238

     occupation numbers 
     1.0000   1.0000   1.0000   1.0000   1.0000   1.0000   1.0000   1.0000
     1.0000   1.0000   1.0000   1.0000   1.0000   1.0000   1.0000   1.0000
     1.0000   1.0000   1.0000   1.0000   1.0000   1.0000   1.0000   1.0000
     1.0000   1.0000   1.0000   1.0000   1.0000   1.0000   1.0000   1.0000
     1.0000   1.0000   1.0000   1.0000   1.0000   1.0000   1.0000   1.0000
     1.0000   1.0000   1.0000   1.0000   1.0000   1.0000   1.0000   1.0000
     1.0000   1.0000   1.0000   1.0000   1.0000   1.0000   1.0000   1.0000
     1.0000   1.0000   1.0000   1.0000   1.0000   1.0000   1.0000   1.0000
     1.0000   1.0000   1.0000   1.0000   1.0000   1.0000   1.0000   1.0000
     1.0000   1.0000   1.0000   1.0000   1.0000   1.0000   1.0000   1.0000
     1.0000   1.0000   1.0000   1.0000   1.0000   1.0000   1.0000   1.0000
     1.0000   1.0000   1.0000   1.0000   1.0000   1.0000   1.0000   1.0000
     1.0000   1.0000   1.0000   1.0000   1.0000   1.0000   1.0000   1.0000
     1.0000   1.0000   1.0000   0.9671   0.0000   0.0000   0.0000   0.0000
     0.0000   0.0000   0.0000   0.0000   0.0000   0.0000   0.0000   0.0000
     0.0000   0.0000   0.0000   0.0000   0.0000   0.0000   0.0000   0.0000
     0.0000   0.0000

     the Fermi energy is    -1.0321 ev

!    total energy              =    -951.83786547 Ry
     Harris-Foulkes estimate   =    -951.83786569 Ry
     estimated scf accuracy    <       0.00000098 Ry

     The total energy is the sum of the following terms:

     one-electron contribution =   -3002.85566696 Ry
     hartree contribution      =    1544.29119556 Ry
     xc contribution           =    -265.81173089 Ry
     ewald contribution        =     772.53820440 Ry
     smearing contrib. (-TS)   =       0.00013242 Ry

     total magnetization       =     0.07 Bohr mag/cell
     absolute magnetization    =     0.09 Bohr mag/cell

     convergence has been achieved in  54 iterations

     Writing output data file niquel-top-distance-2.2.save/

     init_run     :     73.78s CPU     75.04s WALL (       1 calls)
     electrons    :   5188.94s CPU   5277.84s WALL (       1 calls)

     Called by init_run:
     wfcinit      :     41.12s CPU     41.41s WALL (       1 calls)
     wfcinit:atom :      0.07s CPU      0.09s WALL (       2 calls)
     wfcinit:wfcr :     40.72s CPU     40.91s WALL (       2 calls)
     potinit      :     13.48s CPU     13.91s WALL (       1 calls)
     hinit0       :     10.73s CPU     10.77s WALL (       1 calls)

     Called by electrons:
     c_bands      :   3311.05s CPU   3328.78s WALL (      54 calls)
     sum_band     :   1085.76s CPU   1114.60s WALL (      54 calls)
     v_of_rho     :    390.52s CPU    407.14s WALL (      55 calls)
     v_h          :      4.13s CPU      4.23s WALL (      55 calls)
     v_xc         :    386.39s CPU    402.91s WALL (      55 calls)
     newd         :    378.50s CPU    404.37s WALL (      55 calls)
     mix_rho      :     24.98s CPU     25.33s WALL (      54 calls)

     Called by c_bands:
     init_us_2    :      9.75s CPU      9.81s WALL (     218 calls)
     cegterg      :   3285.58s CPU   3303.19s WALL (     108 calls)

     Called by sum_band:
     sum_band:bec :      0.09s CPU      0.09s WALL (     108 calls)
     addusdens    :    656.79s CPU    682.96s WALL (      54 calls)

     Called by *egterg:
     h_psi        :   1740.32s CPU   1752.88s WALL (     372 calls)
     s_psi        :    587.77s CPU    588.06s WALL (     372 calls)
     g_psi        :      1.85s CPU      1.85s WALL (     262 calls)
     cdiaghg      :     23.37s CPU     23.38s WALL (     370 calls)
     cegterg:over :    383.62s CPU    383.79s WALL (     262 calls)
     cegterg:upda :    232.28s CPU    233.55s WALL (     262 calls)
     cegterg:last :    176.12s CPU    176.17s WALL (     108 calls)

     Called by h_psi:
     h_psi:pot    :   1738.24s CPU   1748.76s WALL (     372 calls)
     h_psi:calbec :    585.80s CPU    586.10s WALL (     372 calls)
     vloc_psi     :    565.19s CPU    575.23s WALL (     372 calls)
     add_vuspsi   :    587.25s CPU    587.42s WALL (     372 calls)

     General routines
     calbec       :    846.55s CPU    846.98s WALL (     480 calls)
     fft          :    226.72s CPU    233.34s WALL (    4119 calls)
     ffts         :      3.87s CPU      3.97s WALL (     218 calls)
     fftw         :    604.82s CPU    616.01s WALL (   77152 calls)
     interpolate  :      9.19s CPU      9.45s WALL (     110 calls)

     Parallel routines
     fft_scatt_xy :    146.44s CPU    148.50s WALL (   81489 calls)
     fft_scatt_yz :    288.00s CPU    300.92s WALL (   81489 calls)

     PWSCF        :      1h27m CPU      1h29m WALL


   This run was terminated on:   6:36:49  31Dec2022            

=------------------------------------------------------------------------------=
   JOB DONE.
=------------------------------------------------------------------------------=
