
     Program PWSCF v.6.4.1 starts on 15Jan2023 at 10:33:29 

     This program is part of the open-source Quantum ESPRESSO suite
     for quantum simulation of materials; please cite
         "P. Giannozzi et al., J. Phys.:Condens. Matter 21 395502 (2009);
         "P. Giannozzi et al., J. Phys.:Condens. Matter 29 465901 (2017);
          URL http://www.quantum-espresso.org", 
     in publications or presentations arising from this work. More details at
     http://www.quantum-espresso.org/quote

     Parallel version (MPI), running on     6 processors

     MPI processes distributed on     1 nodes
     R & G space division:  proc/nbgrp/npool/nimage =       6
     Reading input from distance-2.6.in

     Current dimensions of program PWSCF are:
     Max number of different atomic species (ntypx) = 10
     Max number of k-points (npk) =  40000
     Max angular momentum in pseudopotentials (lmaxx) =  3

     IMPORTANT: XC functional enforced from input :
     Exchange-correlation      = RVV10 ( 1  4 13  4 3 0)
     Any further DFT definition will be discarded
     Please, verify this is what you really want

               file H.pbe-rrkjus.UPF: wavefunction(s)  1S renormalized

     Subspace diagonalization in iterative solution of the eigenvalue problem:
     a serial algorithm will be used


     Parallelization info
     --------------------
     sticks:   dense  smooth     PW     G-vecs:    dense   smooth      PW
     Min        3051    1746    432               270999   117096   14629
     Max        3053    1747    437               271001   117099   14630
     Sum       18313   10477   2611              1626001   702581   87777



     bravais-lattice index     =            4
     lattice parameter (alat)  =      23.2937  a.u.
     unit-cell volume          =    8879.8548 (a.u.)^3
     number of atoms/cell      =           52
     number of atomic types    =            3
     number of electrons       =       214.00
     number of Kohn-Sham states=          128
     kinetic-energy cutoff     =      70.0000  Ry
     charge density cutoff     =     490.0000  Ry
     convergence threshold     =      1.0E-06
     mixing beta               =       0.3000
     number of iterations used =            4  plain     mixing
     Exchange-correlation      = RVV10 ( 1  4 13  4 3 0)

     celldm(1)=  23.293684  celldm(2)=   0.000000  celldm(3)=   0.811261
     celldm(4)=   0.000000  celldm(5)=   0.000000  celldm(6)=   0.000000

     crystal axes: (cart. coord. in units of alat)
               a(1) = (   1.000000   0.000000   0.000000 )  
               a(2) = (  -0.500000   0.866025   0.000000 )  
               a(3) = (   0.000000   0.000000   0.811261 )  

     reciprocal axes: (cart. coord. in units 2 pi/alat)
               b(1) = (  1.000000  0.577350 -0.000000 )  
               b(2) = (  0.000000  1.154701  0.000000 )  
               b(3) = (  0.000000 -0.000000  1.232649 )  


     PseudoPot. # 1 for H  read from file:
     /home/cristian/Escritorio/Proyecto_Grafeno/pseudopotenciales/H.pbe-rrkjus.UPF
     MD5 check sum: 7cc9d459525c9a0585f487a71c3c9563
     Pseudo is Ultrasoft, Zval =  1.0
     Generated by new atomic code, or converted to UPF format
     Using radial grid of 1061 points,  2 beta functions with: 
                l(1) =   0
                l(2) =   0
     Q(r) pseudized with 0 coefficients 


     PseudoPot. # 2 for C  read from file:
     /home/cristian/Escritorio/Proyecto_Grafeno/pseudopotenciales/C.pbe-n-rrkjus_psl.1.0.0.UPF
     MD5 check sum: 1fdd950c42eb37d8afe3dd2f8d12311e
     Pseudo is Ultrasoft + core correction, Zval =  4.0
     Generated using "atomic" code by A. Dal Corso v.6.3MaX
     Using radial grid of 1073 points,  4 beta functions with: 
                l(1) =   0
                l(2) =   0
                l(3) =   1
                l(4) =   1
     Q(r) pseudized with 0 coefficients 


     PseudoPot. # 3 for Fe read from file:
     /home/cristian/Escritorio/Proyecto_Grafeno/pseudopotenciales/Fe.pbe-spn-rrkjus_psl.1.0.0.UPF
     MD5 check sum: 72ea77fed8e64ab3a2ccf2804dfc1862
     Pseudo is Ultrasoft + core correction, Zval = 16.0
     Generated using "atomic" code by A. Dal Corso v.6.3
     Using radial grid of 1191 points,  6 beta functions with: 
                l(1) =   0
                l(2) =   0
                l(3) =   1
                l(4) =   1
                l(5) =   2
                l(6) =   2
     Q(r) pseudized with 0 coefficients 


     vdW kernel table read from file rVV10_kernel_table
     MD5 check sum: b8e2538accc0c0b3206b45ba4daaba6c

     atomic species   valence    mass     pseudopotential
        H              1.00     1.00794     H ( 1.00)
        C              4.00    12.01070     C ( 1.00)
        Fe            16.00    55.84500     Fe( 1.00)

     Starting magnetic structure 
     atomic species   magnetization
        H            0.500
        C            0.300
        Fe           0.800

     No symmetry found


                                    s                        frac. trans.

      isym =  1     identity                                     

 cryst.   s( 1) = (     1          0          0      )
                  (     0          1          0      )
                  (     0          0          1      )

 cart.    s( 1) = (  1.0000000  0.0000000  0.0000000 )
                  (  0.0000000  1.0000000  0.0000000 )
                  (  0.0000000  0.0000000  1.0000000 )


     point group C_1 (1)    
     there are  1 classes
     the character table:

       E    
A      1.00

     the symmetry operations in each class and the name of the first element:

     E        1
          identity                                               

   Cartesian axes

     site n.     atom                  positions (alat units)
         1           H   tau(   1) = (   0.1694937   0.4618802   0.2109279  )
         2           H   tau(   2) = (   0.2305063   0.4618802   0.2109279  )
         3           C   tau(   3) = (   0.0000000   0.0000000   0.0000000  )
         4           C   tau(   4) = (   0.0000000   0.1154701   0.0000000  )
         5           C   tau(   5) = (  -0.1000000   0.1732051   0.0000000  )
         6           C   tau(   6) = (  -0.1000000   0.2886751   0.0000000  )
         7           C   tau(   7) = (  -0.2000000   0.3464102   0.0000000  )
         8           C   tau(   8) = (  -0.2000000   0.4618802   0.0000000  )
         9           C   tau(   9) = (  -0.3000000   0.5196152   0.0000000  )
        10           C   tau(  10) = (  -0.3000000   0.6350853   0.0000000  )
        11           C   tau(  11) = (  -0.4000000   0.6928203   0.0000000  )
        12           C   tau(  12) = (  -0.4000000   0.8082904   0.0000000  )
        13           C   tau(  13) = (   0.2000000   0.0000000   0.0000000  )
        14           C   tau(  14) = (   0.2000000   0.1154701   0.0000000  )
        15           C   tau(  15) = (   0.1000000   0.1732051   0.0000000  )
        16           C   tau(  16) = (   0.1000000   0.2886751   0.0000000  )
        17           C   tau(  17) = (   0.0000000   0.3464102   0.0000000  )
        18           C   tau(  18) = (   0.0000000   0.4618802   0.0000000  )
        19           C   tau(  19) = (  -0.1000000   0.5196152   0.0000000  )
        20           C   tau(  20) = (  -0.1000000   0.6350853   0.0000000  )
        21           C   tau(  21) = (  -0.2000000   0.6928203   0.0000000  )
        22           C   tau(  22) = (  -0.2000000   0.8082904   0.0000000  )
        23           C   tau(  23) = (   0.4000000   0.0000000   0.0000000  )
        24           C   tau(  24) = (   0.4000000   0.1154701   0.0000000  )
        25           C   tau(  25) = (   0.3000000   0.1732051   0.0000000  )
        26           C   tau(  26) = (   0.3000000   0.2886751   0.0000000  )
        27           C   tau(  27) = (   0.2000000   0.3464102   0.0000000  )
        28           Fe  tau(  28) = (   0.2000000   0.4618802   0.0000000  )
        29           C   tau(  29) = (   0.1000000   0.5196152   0.0000000  )
        30           C   tau(  30) = (   0.1000000   0.6350853   0.0000000  )
        31           C   tau(  31) = (   0.0000000   0.6928203   0.0000000  )
        32           C   tau(  32) = (   0.0000000   0.8082904   0.0000000  )
        33           C   tau(  33) = (   0.6000000   0.0000000   0.0000000  )
        34           C   tau(  34) = (   0.6000000   0.1154701   0.0000000  )
        35           C   tau(  35) = (   0.5000000   0.1732051   0.0000000  )
        36           C   tau(  36) = (   0.5000000   0.2886751   0.0000000  )
        37           C   tau(  37) = (   0.4000000   0.3464102   0.0000000  )
        38           C   tau(  38) = (   0.4000000   0.4618802   0.0000000  )
        39           C   tau(  39) = (   0.3000000   0.5196152   0.0000000  )
        40           C   tau(  40) = (   0.3000000   0.6350853   0.0000000  )
        41           C   tau(  41) = (   0.2000000   0.6928203   0.0000000  )
        42           C   tau(  42) = (   0.2000000   0.8082904   0.0000000  )
        43           C   tau(  43) = (   0.8000000   0.0000000   0.0000000  )
        44           C   tau(  44) = (   0.8000000   0.1154701   0.0000000  )
        45           C   tau(  45) = (   0.7000000   0.1732051   0.0000000  )
        46           C   tau(  46) = (   0.7000000   0.2886751   0.0000000  )
        47           C   tau(  47) = (   0.6000000   0.3464102   0.0000000  )
        48           C   tau(  48) = (   0.6000000   0.4618802   0.0000000  )
        49           C   tau(  49) = (   0.5000000   0.5196152   0.0000000  )
        50           C   tau(  50) = (   0.5000000   0.6350853   0.0000000  )
        51           C   tau(  51) = (   0.4000000   0.6928203   0.0000000  )
        52           C   tau(  52) = (   0.4000000   0.8082904   0.0000000  )

   Crystallographic axes

     site n.     atom                  positions (cryst. coord.)
         1           H   tau(   1) = (  0.4361603  0.5333333  0.2600000  )
         2           H   tau(   2) = (  0.4971730  0.5333333  0.2600000  )
         3           C   tau(   3) = (  0.0000000  0.0000000  0.0000000  )
         4           C   tau(   4) = (  0.0666667  0.1333333  0.0000000  )
         5           C   tau(   5) = (  0.0000000  0.2000000  0.0000000  )
         6           C   tau(   6) = (  0.0666667  0.3333333  0.0000000  )
         7           C   tau(   7) = (  0.0000000  0.4000000  0.0000000  )
         8           C   tau(   8) = (  0.0666667  0.5333333  0.0000000  )
         9           C   tau(   9) = (  0.0000000  0.6000000  0.0000000  )
        10           C   tau(  10) = (  0.0666667  0.7333333  0.0000000  )
        11           C   tau(  11) = (  0.0000000  0.8000000  0.0000000  )
        12           C   tau(  12) = (  0.0666667  0.9333333  0.0000000  )
        13           C   tau(  13) = (  0.2000000  0.0000000  0.0000000  )
        14           C   tau(  14) = (  0.2666667  0.1333333  0.0000000  )
        15           C   tau(  15) = (  0.2000000  0.2000000  0.0000000  )
        16           C   tau(  16) = (  0.2666667  0.3333333  0.0000000  )
        17           C   tau(  17) = (  0.2000000  0.4000000  0.0000000  )
        18           C   tau(  18) = (  0.2666667  0.5333333  0.0000000  )
        19           C   tau(  19) = (  0.2000000  0.6000000  0.0000000  )
        20           C   tau(  20) = (  0.2666667  0.7333333  0.0000000  )
        21           C   tau(  21) = (  0.2000000  0.8000000  0.0000000  )
        22           C   tau(  22) = (  0.2666667  0.9333333  0.0000000  )
        23           C   tau(  23) = (  0.4000000  0.0000000  0.0000000  )
        24           C   tau(  24) = (  0.4666667  0.1333333  0.0000000  )
        25           C   tau(  25) = (  0.4000000  0.2000000  0.0000000  )
        26           C   tau(  26) = (  0.4666667  0.3333333  0.0000000  )
        27           C   tau(  27) = (  0.4000000  0.4000000  0.0000000  )
        28           Fe  tau(  28) = (  0.4666667  0.5333333  0.0000000  )
        29           C   tau(  29) = (  0.4000000  0.6000000  0.0000000  )
        30           C   tau(  30) = (  0.4666667  0.7333333  0.0000000  )
        31           C   tau(  31) = (  0.4000000  0.8000000  0.0000000  )
        32           C   tau(  32) = (  0.4666667  0.9333333  0.0000000  )
        33           C   tau(  33) = (  0.6000000  0.0000000  0.0000000  )
        34           C   tau(  34) = (  0.6666667  0.1333333  0.0000000  )
        35           C   tau(  35) = (  0.6000000  0.2000000  0.0000000  )
        36           C   tau(  36) = (  0.6666667  0.3333333  0.0000000  )
        37           C   tau(  37) = (  0.6000000  0.4000000  0.0000000  )
        38           C   tau(  38) = (  0.6666667  0.5333333  0.0000000  )
        39           C   tau(  39) = (  0.6000000  0.6000000  0.0000000  )
        40           C   tau(  40) = (  0.6666667  0.7333333  0.0000000  )
        41           C   tau(  41) = (  0.6000000  0.8000000  0.0000000  )
        42           C   tau(  42) = (  0.6666667  0.9333333  0.0000000  )
        43           C   tau(  43) = (  0.8000000  0.0000000  0.0000000  )
        44           C   tau(  44) = (  0.8666667  0.1333333  0.0000000  )
        45           C   tau(  45) = (  0.8000000  0.2000000  0.0000000  )
        46           C   tau(  46) = (  0.8666667  0.3333333  0.0000000  )
        47           C   tau(  47) = (  0.8000000  0.4000000  0.0000000  )
        48           C   tau(  48) = (  0.8666667  0.5333333  0.0000000  )
        49           C   tau(  49) = (  0.8000000  0.6000000  0.0000000  )
        50           C   tau(  50) = (  0.8666667  0.7333333  0.0000000  )
        51           C   tau(  51) = (  0.8000000  0.8000000  0.0000000  )
        52           C   tau(  52) = (  0.8666667  0.9333333  0.0000000  )

     number of k points=     1  Marzari-Vanderbilt smearing, width (Ry)=  0.0010
                       cart. coord. in units 2pi/alat
        k(    1) = (   0.0000000   0.0000000   0.0000000), wk =   1.0000000

                       cryst. coord.
        k(    1) = (   0.0000000   0.0000000   0.0000000), wk =   1.0000000

     Dense  grid:  1626001 G-vectors     FFT dimensions: ( 180, 180, 135)

     Smooth grid:   702581 G-vectors     FFT dimensions: ( 125, 125, 108)

     Dynamical RAM for                 wfc:      28.59 MB

     Dynamical RAM for     wfc (w. buffer):      85.76 MB

     Dynamical RAM for           str. fact:      12.41 MB

     Dynamical RAM for           local pot:       0.00 MB

     Dynamical RAM for          nlocal pot:      92.46 MB

     Dynamical RAM for                qrad:      19.73 MB

     Dynamical RAM for          rho,v,vnew:      58.92 MB

     Dynamical RAM for               rhoin:      19.64 MB

     Dynamical RAM for            rho*nmix:      66.16 MB

     Dynamical RAM for           G-vectors:      16.40 MB

     Dynamical RAM for          h,s,v(r/c):      12.00 MB

     Dynamical RAM for          <psi|beta>:       0.81 MB

     Dynamical RAM for                 psi:     114.35 MB

     Dynamical RAM for                hpsi:     114.35 MB

     Dynamical RAM for                spsi:     114.35 MB

     Dynamical RAM for      wfcinit/wfcrot:      93.90 MB

     Dynamical RAM for           addusdens:     975.89 MB

     Estimated static dynamical RAM per process >     422.14 MB

     Estimated max dynamical RAM per process >       1.37 GB

     Estimated total dynamical RAM >       8.19 GB
     Generating pointlists ...
     new r_m :   0.0252 (alat units)  0.5862 (a.u.) for type    1
     new r_m :   0.0476 (alat units)  1.1095 (a.u.) for type    2
     new r_m :   0.0476 (alat units)  1.1095 (a.u.) for type    3

     Check: negative core charge=   -0.000002

     Initial potential from superposition of free atoms

     starting charge  213.80512, renormalised to  214.00000

     negative rho (up, down):  6.348E-05 1.197E-02


---------------------------------------------------------------------------------
Carrying out rVV10 run using the following parameters:
Nqs =      20    Nr_points =    1024   r_max =   100.000
b_value =  6.30000    beta =  0.00901
     q_mesh =  0.00010000  0.00030000  0.00058939  0.00100810
               0.00161396  0.00249058  0.00375900  0.00559430
               0.00824984  0.01209221  0.01765183  0.02569619
               0.03733578  0.05417739  0.07854596  0.11380545
               0.16482331  0.23864234  0.34545298  0.50000000

Gradients computed in Reciprocal space

---------------------------------------------------------------------------------


     Starting wfcs are  208 randomized atomic wfcs

     total cpu time spent up to now is       75.3 secs

     Self-consistent Calculation

     iteration #  1     ecut=    70.00 Ry     beta= 0.30
     Davidson diagonalization with overlap
     ethr =  1.00E-02,  avg # of iterations =  2.5

     negative rho (up, down):  8.180E-05 1.190E-02

     total cpu time spent up to now is      202.2 secs

     total energy              =    -857.95149003 Ry
     Harris-Foulkes estimate   =    -858.64816929 Ry
     estimated scf accuracy    <      10.45417121 Ry

     total magnetization       =     6.00 Bohr mag/cell
     absolute magnetization    =     6.62 Bohr mag/cell

     iteration #  2     ecut=    70.00 Ry     beta= 0.30
     Davidson diagonalization with overlap
     ethr =  4.89E-03,  avg # of iterations =  2.0

     negative rho (up, down):  1.109E-04 1.268E-02

     total cpu time spent up to now is      294.0 secs

     total energy              =    -858.36485414 Ry
     Harris-Foulkes estimate   =    -858.71051951 Ry
     estimated scf accuracy    <       5.38092121 Ry

     total magnetization       =     3.88 Bohr mag/cell
     absolute magnetization    =     5.54 Bohr mag/cell

     iteration #  3     ecut=    70.00 Ry     beta= 0.30
     Davidson diagonalization with overlap
     ethr =  2.51E-03,  avg # of iterations =  2.5

     negative rho (up, down):  1.984E-04 2.397E-02

     total cpu time spent up to now is      387.4 secs

     total energy              =    -858.62841529 Ry
     Harris-Foulkes estimate   =    -859.48560773 Ry
     estimated scf accuracy    <       9.19308747 Ry

     total magnetization       =     6.00 Bohr mag/cell
     absolute magnetization    =     6.17 Bohr mag/cell

     iteration #  4     ecut=    70.00 Ry     beta= 0.30
     Davidson diagonalization with overlap
     ethr =  2.51E-03,  avg # of iterations =  2.5

     negative rho (up, down):  2.620E-04 3.613E-02

     total cpu time spent up to now is      480.0 secs

     total energy              =    -859.82165389 Ry
     Harris-Foulkes estimate   =    -859.59659999 Ry
     estimated scf accuracy    <       0.99837234 Ry

     total magnetization       =     2.00 Bohr mag/cell
     absolute magnetization    =     3.45 Bohr mag/cell

     iteration #  5     ecut=    70.00 Ry     beta= 0.30
     Davidson diagonalization with overlap
     ethr =  4.67E-04,  avg # of iterations = 10.0

     negative rho (up, down):  3.353E-04 5.098E-02

     total cpu time spent up to now is      582.1 secs

     total energy              =    -859.98180469 Ry
     Harris-Foulkes estimate   =    -859.91350488 Ry
     estimated scf accuracy    <       0.26656895 Ry

     total magnetization       =     2.00 Bohr mag/cell
     absolute magnetization    =     2.77 Bohr mag/cell

     iteration #  6     ecut=    70.00 Ry     beta= 0.30
     Davidson diagonalization with overlap
     ethr =  1.25E-04,  avg # of iterations =  7.0

     negative rho (up, down):  4.158E-04 5.820E-02

     total cpu time spent up to now is      680.4 secs

     total energy              =    -860.01326335 Ry
     Harris-Foulkes estimate   =    -860.01110711 Ry
     estimated scf accuracy    <       0.10816484 Ry

     total magnetization       =     2.00 Bohr mag/cell
     absolute magnetization    =     2.62 Bohr mag/cell

     iteration #  7     ecut=    70.00 Ry     beta= 0.30
     Davidson diagonalization with overlap
     ethr =  5.05E-05,  avg # of iterations =  8.0

     negative rho (up, down):  2.328E-03 9.758E-02

     total cpu time spent up to now is      778.3 secs

     total energy              =    -860.03225738 Ry
     Harris-Foulkes estimate   =    -860.03423187 Ry
     estimated scf accuracy    <       0.09444184 Ry

     total magnetization       =     2.00 Bohr mag/cell
     absolute magnetization    =     2.46 Bohr mag/cell

     iteration #  8     ecut=    70.00 Ry     beta= 0.30
     Davidson diagonalization with overlap
     ethr =  4.41E-05,  avg # of iterations =  8.0

     negative rho (up, down):  2.384E-03 8.841E-02

     total cpu time spent up to now is      874.2 secs

     total energy              =    -860.03891620 Ry
     Harris-Foulkes estimate   =    -860.03786186 Ry
     estimated scf accuracy    <       0.00894585 Ry

     total magnetization       =     2.00 Bohr mag/cell
     absolute magnetization    =     2.37 Bohr mag/cell

     iteration #  9     ecut=    70.00 Ry     beta= 0.30
     Davidson diagonalization with overlap
     ethr =  4.18E-06,  avg # of iterations =  4.5

     negative rho (up, down):  2.909E-03 9.239E-02

     total cpu time spent up to now is      984.1 secs

     total energy              =    -860.03805322 Ry
     Harris-Foulkes estimate   =    -860.04195636 Ry
     estimated scf accuracy    <       0.09765735 Ry

     total magnetization       =     1.44 Bohr mag/cell
     absolute magnetization    =     1.86 Bohr mag/cell

     iteration # 10     ecut=    70.00 Ry     beta= 0.30
     Davidson diagonalization with overlap
     ethr =  4.18E-06,  avg # of iterations =  1.5

     negative rho (up, down):  2.142E-03 7.728E-02

     total cpu time spent up to now is     1075.5 secs

     total energy              =    -860.04216842 Ry
     Harris-Foulkes estimate   =    -860.04055758 Ry
     estimated scf accuracy    <       0.00737384 Ry

     total magnetization       =     2.10 Bohr mag/cell
     absolute magnetization    =     2.41 Bohr mag/cell

     iteration # 11     ecut=    70.00 Ry     beta= 0.30
     Davidson diagonalization with overlap
     ethr =  3.45E-06,  avg # of iterations =  2.0

     negative rho (up, down):  1.690E-03 7.753E-02

     total cpu time spent up to now is     1174.3 secs

     total energy              =    -860.04465847 Ry
     Harris-Foulkes estimate   =    -860.04359037 Ry
     estimated scf accuracy    <       0.01377415 Ry

     total magnetization       =     2.15 Bohr mag/cell
     absolute magnetization    =     2.47 Bohr mag/cell

     iteration # 12     ecut=    70.00 Ry     beta= 0.30
     Davidson diagonalization with overlap
     ethr =  3.45E-06,  avg # of iterations =  2.0

     negative rho (up, down):  2.173E-03 1.179E-01

     total cpu time spent up to now is     1267.3 secs

     total energy              =    -860.04240065 Ry
     Harris-Foulkes estimate   =    -860.04490973 Ry
     estimated scf accuracy    <       0.00982605 Ry

     total magnetization       =     2.15 Bohr mag/cell
     absolute magnetization    =     2.47 Bohr mag/cell

     iteration # 13     ecut=    70.00 Ry     beta= 0.30
     Davidson diagonalization with overlap
     ethr =  3.45E-06,  avg # of iterations =  2.0

     negative rho (up, down):  2.328E-03 1.384E-01

     total cpu time spent up to now is     1362.9 secs

     total energy              =    -860.03977639 Ry
     Harris-Foulkes estimate   =    -860.04287938 Ry
     estimated scf accuracy    <       0.01031756 Ry

     total magnetization       =     1.83 Bohr mag/cell
     absolute magnetization    =     2.18 Bohr mag/cell

     iteration # 14     ecut=    70.00 Ry     beta= 0.30
     Davidson diagonalization with overlap
     ethr =  3.45E-06,  avg # of iterations =  2.0

     negative rho (up, down):  2.048E-03 1.422E-01

     total cpu time spent up to now is     1459.8 secs

     total energy              =    -860.04032356 Ry
     Harris-Foulkes estimate   =    -860.04095214 Ry
     estimated scf accuracy    <       0.00339820 Ry

     total magnetization       =     2.07 Bohr mag/cell
     absolute magnetization    =     2.36 Bohr mag/cell

     iteration # 15     ecut=    70.00 Ry     beta= 0.30
     Davidson diagonalization with overlap
     ethr =  1.59E-06,  avg # of iterations =  2.0

     negative rho (up, down):  1.932E-03 1.302E-01

     total cpu time spent up to now is     1559.6 secs

     total energy              =    -860.04045745 Ry
     Harris-Foulkes estimate   =    -860.04096807 Ry
     estimated scf accuracy    <       0.00820252 Ry

     total magnetization       =     2.00 Bohr mag/cell
     absolute magnetization    =     2.30 Bohr mag/cell

     iteration # 16     ecut=    70.00 Ry     beta= 0.30
     Davidson diagonalization with overlap
     ethr =  1.59E-06,  avg # of iterations =  1.0

     negative rho (up, down):  1.477E-03 1.380E-01

     total cpu time spent up to now is     1650.9 secs

     total energy              =    -860.04034674 Ry
     Harris-Foulkes estimate   =    -860.04084442 Ry
     estimated scf accuracy    <       0.00301885 Ry

     total magnetization       =     2.01 Bohr mag/cell
     absolute magnetization    =     2.29 Bohr mag/cell

     iteration # 17     ecut=    70.00 Ry     beta= 0.30
     Davidson diagonalization with overlap
     ethr =  1.41E-06,  avg # of iterations =  3.0

     negative rho (up, down):  1.074E-03 1.061E-01

     total cpu time spent up to now is     1756.8 secs

     total energy              =    -860.04172839 Ry
     Harris-Foulkes estimate   =    -860.04131435 Ry
     estimated scf accuracy    <       0.00369018 Ry

     total magnetization       =     2.00 Bohr mag/cell
     absolute magnetization    =     2.27 Bohr mag/cell

     iteration # 18     ecut=    70.00 Ry     beta= 0.30
     Davidson diagonalization with overlap
     ethr =  1.41E-06,  avg # of iterations =  3.0

     negative rho (up, down):  1.165E-03 8.622E-02

     total cpu time spent up to now is     1850.9 secs

     total energy              =    -860.04155011 Ry
     Harris-Foulkes estimate   =    -860.04194529 Ry
     estimated scf accuracy    <       0.00323510 Ry

     total magnetization       =     2.00 Bohr mag/cell
     absolute magnetization    =     2.25 Bohr mag/cell

     iteration # 19     ecut=    70.00 Ry     beta= 0.30
     Davidson diagonalization with overlap
     ethr =  1.41E-06,  avg # of iterations =  1.0

     negative rho (up, down):  9.714E-04 6.772E-02

     total cpu time spent up to now is     1942.0 secs

     total energy              =    -860.04195363 Ry
     Harris-Foulkes estimate   =    -860.04165118 Ry
     estimated scf accuracy    <       0.00129234 Ry

     total magnetization       =     2.03 Bohr mag/cell
     absolute magnetization    =     2.30 Bohr mag/cell

     iteration # 20     ecut=    70.00 Ry     beta= 0.30
     Davidson diagonalization with overlap
     ethr =  6.04E-07,  avg # of iterations =  2.0

     negative rho (up, down):  8.845E-04 6.105E-02

     total cpu time spent up to now is     2036.5 secs

     total energy              =    -860.04208890 Ry
     Harris-Foulkes estimate   =    -860.04218098 Ry
     estimated scf accuracy    <       0.00422297 Ry

     total magnetization       =     2.05 Bohr mag/cell
     absolute magnetization    =     2.27 Bohr mag/cell

     iteration # 21     ecut=    70.00 Ry     beta= 0.30
     Davidson diagonalization with overlap
     ethr =  6.04E-07,  avg # of iterations =  2.0

     negative rho (up, down):  9.201E-04 4.931E-02

     total cpu time spent up to now is     2133.0 secs

     total energy              =    -860.04222002 Ry
     Harris-Foulkes estimate   =    -860.04239726 Ry
     estimated scf accuracy    <       0.00251897 Ry

     total magnetization       =     2.00 Bohr mag/cell
     absolute magnetization    =     2.28 Bohr mag/cell

     iteration # 22     ecut=    70.00 Ry     beta= 0.30
     Davidson diagonalization with overlap
     ethr =  6.04E-07,  avg # of iterations =  1.5

     negative rho (up, down):  9.506E-04 5.987E-02

     total cpu time spent up to now is     2224.5 secs

     total energy              =    -860.04203253 Ry
     Harris-Foulkes estimate   =    -860.04231682 Ry
     estimated scf accuracy    <       0.00173210 Ry

     total magnetization       =     2.00 Bohr mag/cell
     absolute magnetization    =     2.28 Bohr mag/cell

     iteration # 23     ecut=    70.00 Ry     beta= 0.30
     Davidson diagonalization with overlap
     ethr =  6.04E-07,  avg # of iterations =  2.0

     negative rho (up, down):  8.938E-04 5.187E-02

     total cpu time spent up to now is     2317.9 secs

     total energy              =    -860.04209004 Ry
     Harris-Foulkes estimate   =    -860.04225661 Ry
     estimated scf accuracy    <       0.00509716 Ry

     total magnetization       =     2.00 Bohr mag/cell
     absolute magnetization    =     2.29 Bohr mag/cell

     iteration # 24     ecut=    70.00 Ry     beta= 0.30
     Davidson diagonalization with overlap
     ethr =  6.04E-07,  avg # of iterations =  2.0

     negative rho (up, down):  8.539E-04 4.694E-02

     total cpu time spent up to now is     2410.3 secs

     total energy              =    -860.04253709 Ry
     Harris-Foulkes estimate   =    -860.04233070 Ry
     estimated scf accuracy    <       0.00221169 Ry

     total magnetization       =     2.00 Bohr mag/cell
     absolute magnetization    =     2.27 Bohr mag/cell

     iteration # 25     ecut=    70.00 Ry     beta= 0.30
     Davidson diagonalization with overlap
     ethr =  6.04E-07,  avg # of iterations =  2.0

     negative rho (up, down):  7.286E-04 5.284E-02

     total cpu time spent up to now is     2508.7 secs

     total energy              =    -860.04247005 Ry
     Harris-Foulkes estimate   =    -860.04276588 Ry
     estimated scf accuracy    <       0.00365556 Ry

     total magnetization       =     2.00 Bohr mag/cell
     absolute magnetization    =     2.29 Bohr mag/cell

     iteration # 26     ecut=    70.00 Ry     beta= 0.30
     Davidson diagonalization with overlap
     ethr =  6.04E-07,  avg # of iterations =  8.0

     negative rho (up, down):  6.881E-04 4.297E-02

     total cpu time spent up to now is     2612.6 secs

     total energy              =    -860.04303883 Ry
     Harris-Foulkes estimate   =    -860.04272751 Ry
     estimated scf accuracy    <       0.00143434 Ry

     total magnetization       =     2.00 Bohr mag/cell
     absolute magnetization    =     2.26 Bohr mag/cell

     iteration # 27     ecut=    70.00 Ry     beta= 0.30
     Davidson diagonalization with overlap
     ethr =  6.04E-07,  avg # of iterations =  2.0

     negative rho (up, down):  7.240E-04 7.391E-02

     total cpu time spent up to now is     2710.1 secs

     total energy              =    -860.04254040 Ry
     Harris-Foulkes estimate   =    -860.04315442 Ry
     estimated scf accuracy    <       0.00119203 Ry

     total magnetization       =     2.00 Bohr mag/cell
     absolute magnetization    =     2.28 Bohr mag/cell

     iteration # 28     ecut=    70.00 Ry     beta= 0.30
     Davidson diagonalization with overlap
     ethr =  5.57E-07,  avg # of iterations =  2.0

     negative rho (up, down):  7.024E-04 4.873E-02

     total cpu time spent up to now is     2810.2 secs

     total energy              =    -860.04292154 Ry
     Harris-Foulkes estimate   =    -860.04270012 Ry
     estimated scf accuracy    <       0.00153143 Ry

     total magnetization       =     2.00 Bohr mag/cell
     absolute magnetization    =     2.28 Bohr mag/cell

     iteration # 29     ecut=    70.00 Ry     beta= 0.30
     Davidson diagonalization with overlap
     ethr =  5.57E-07,  avg # of iterations =  2.0

     negative rho (up, down):  7.628E-04 1.008E-01

     total cpu time spent up to now is     2913.9 secs

     total energy              =    -860.04141004 Ry
     Harris-Foulkes estimate   =    -860.04366330 Ry
     estimated scf accuracy    <       0.01281167 Ry

     total magnetization       =     2.00 Bohr mag/cell
     absolute magnetization    =     2.27 Bohr mag/cell

     iteration # 30     ecut=    70.00 Ry     beta= 0.30
     Davidson diagonalization with overlap
     ethr =  5.57E-07,  avg # of iterations =  2.0

     negative rho (up, down):  7.516E-04 9.592E-02

     total cpu time spent up to now is     3021.7 secs

     total energy              =    -860.04225050 Ry
     Harris-Foulkes estimate   =    -860.04246974 Ry
     estimated scf accuracy    <       0.00184306 Ry

     total magnetization       =     2.00 Bohr mag/cell
     absolute magnetization    =     2.27 Bohr mag/cell

     iteration # 31     ecut=    70.00 Ry     beta= 0.30
     Davidson diagonalization with overlap
     ethr =  5.57E-07,  avg # of iterations =  2.0

     negative rho (up, down):  6.973E-04 4.856E-02

     total cpu time spent up to now is     3115.2 secs

     total energy              =    -860.04246352 Ry
     Harris-Foulkes estimate   =    -860.04246930 Ry
     estimated scf accuracy    <       0.00311631 Ry

     total magnetization       =     2.00 Bohr mag/cell
     absolute magnetization    =     2.29 Bohr mag/cell

     iteration # 32     ecut=    70.00 Ry     beta= 0.30
     Davidson diagonalization with overlap
     ethr =  5.57E-07,  avg # of iterations =  2.0

     negative rho (up, down):  7.217E-04 6.273E-02

     total cpu time spent up to now is     3222.5 secs

     total energy              =    -860.04289422 Ry
     Harris-Foulkes estimate   =    -860.04330397 Ry
     estimated scf accuracy    <       0.01302132 Ry

     total magnetization       =     2.00 Bohr mag/cell
     absolute magnetization    =     2.25 Bohr mag/cell

     iteration # 33     ecut=    70.00 Ry     beta= 0.30
     Davidson diagonalization with overlap
     ethr =  5.57E-07,  avg # of iterations =  2.0

     negative rho (up, down):  7.316E-04 7.120E-02

     total cpu time spent up to now is     3314.5 secs

     total energy              =    -860.04306488 Ry
     Harris-Foulkes estimate   =    -860.04304887 Ry
     estimated scf accuracy    <       0.00241003 Ry

     total magnetization       =     2.00 Bohr mag/cell
     absolute magnetization    =     2.27 Bohr mag/cell

     iteration # 34     ecut=    70.00 Ry     beta= 0.30
     Davidson diagonalization with overlap
     ethr =  5.57E-07,  avg # of iterations =  2.0

     negative rho (up, down):  7.363E-04 7.805E-02

     total cpu time spent up to now is     3406.9 secs

     total energy              =    -860.04304063 Ry
     Harris-Foulkes estimate   =    -860.04310468 Ry
     estimated scf accuracy    <       0.00321264 Ry

     total magnetization       =     2.00 Bohr mag/cell
     absolute magnetization    =     2.28 Bohr mag/cell

     iteration # 35     ecut=    70.00 Ry     beta= 0.30
     Davidson diagonalization with overlap
     ethr =  5.57E-07,  avg # of iterations =  1.5

     negative rho (up, down):  6.951E-04 5.903E-02

     total cpu time spent up to now is     3498.5 secs

     total energy              =    -860.04334882 Ry
     Harris-Foulkes estimate   =    -860.04310867 Ry
     estimated scf accuracy    <       0.00401060 Ry

     total magnetization       =     2.00 Bohr mag/cell
     absolute magnetization    =     2.27 Bohr mag/cell

     iteration # 36     ecut=    70.00 Ry     beta= 0.30
     Davidson diagonalization with overlap
     ethr =  5.57E-07,  avg # of iterations =  2.0

     negative rho (up, down):  6.912E-04 7.105E-02

     total cpu time spent up to now is     3602.5 secs

     total energy              =    -860.04384536 Ry
     Harris-Foulkes estimate   =    -860.04384372 Ry
     estimated scf accuracy    <       0.00361857 Ry

     total magnetization       =     2.00 Bohr mag/cell
     absolute magnetization    =     2.28 Bohr mag/cell

     iteration # 37     ecut=    70.00 Ry     beta= 0.30
     Davidson diagonalization with overlap
     ethr =  5.57E-07,  avg # of iterations =  1.0

     negative rho (up, down):  6.773E-04 6.469E-02

     total cpu time spent up to now is     3693.7 secs

     total energy              =    -860.04435630 Ry
     Harris-Foulkes estimate   =    -860.04385467 Ry
     estimated scf accuracy    <       0.00272666 Ry

     total magnetization       =     2.00 Bohr mag/cell
     absolute magnetization    =     2.29 Bohr mag/cell

     iteration # 38     ecut=    70.00 Ry     beta= 0.30
     Davidson diagonalization with overlap
     ethr =  5.57E-07,  avg # of iterations =  3.0

     negative rho (up, down):  6.914E-04 9.846E-02

     total cpu time spent up to now is     3799.0 secs

     total energy              =    -860.04334981 Ry
     Harris-Foulkes estimate   =    -860.04544280 Ry
     estimated scf accuracy    <       0.02123868 Ry

     total magnetization       =     2.00 Bohr mag/cell
     absolute magnetization    =     2.35 Bohr mag/cell

     iteration # 39     ecut=    70.00 Ry     beta= 0.30
     Davidson diagonalization with overlap
     ethr =  5.57E-07,  avg # of iterations =  3.0

     negative rho (up, down):  6.824E-04 9.151E-02

     total cpu time spent up to now is     3905.7 secs

     total energy              =    -860.04437591 Ry
     Harris-Foulkes estimate   =    -860.04462985 Ry
     estimated scf accuracy    <       0.01627774 Ry

     total magnetization       =     2.00 Bohr mag/cell
     absolute magnetization    =     2.29 Bohr mag/cell

     iteration # 40     ecut=    70.00 Ry     beta= 0.30
     Davidson diagonalization with overlap
     ethr =  5.57E-07,  avg # of iterations =  2.0

     negative rho (up, down):  6.809E-04 1.084E-01

     total cpu time spent up to now is     4005.0 secs

     total energy              =    -860.04426721 Ry
     Harris-Foulkes estimate   =    -860.04487902 Ry
     estimated scf accuracy    <       0.00446528 Ry

     total magnetization       =     2.00 Bohr mag/cell
     absolute magnetization    =     2.32 Bohr mag/cell

     iteration # 41     ecut=    70.00 Ry     beta= 0.30
     Davidson diagonalization with overlap
     ethr =  5.57E-07,  avg # of iterations =  2.0

     negative rho (up, down):  6.823E-04 1.106E-01

     total cpu time spent up to now is     4108.1 secs

     total energy              =    -860.04445092 Ry
     Harris-Foulkes estimate   =    -860.04453163 Ry
     estimated scf accuracy    <       0.00434000 Ry

     total magnetization       =     2.00 Bohr mag/cell
     absolute magnetization    =     2.32 Bohr mag/cell

     iteration # 42     ecut=    70.00 Ry     beta= 0.30
     Davidson diagonalization with overlap
     ethr =  5.57E-07,  avg # of iterations =  2.0

     negative rho (up, down):  6.647E-04 1.011E-01

     total cpu time spent up to now is     4200.9 secs

     total energy              =    -860.04525648 Ry
     Harris-Foulkes estimate   =    -860.04483534 Ry
     estimated scf accuracy    <       0.00875635 Ry

     total magnetization       =     2.00 Bohr mag/cell
     absolute magnetization    =     2.30 Bohr mag/cell

     iteration # 43     ecut=    70.00 Ry     beta= 0.30
     Davidson diagonalization with overlap
     ethr =  5.57E-07,  avg # of iterations =  3.0

     negative rho (up, down):  6.689E-04 1.063E-01

     total cpu time spent up to now is     4315.2 secs

     total energy              =    -860.04681483 Ry
     Harris-Foulkes estimate   =    -860.04673063 Ry
     estimated scf accuracy    <       0.01060632 Ry

     total magnetization       =     2.00 Bohr mag/cell
     absolute magnetization    =     2.31 Bohr mag/cell

     iteration # 44     ecut=    70.00 Ry     beta= 0.30
     Davidson diagonalization with overlap
     ethr =  5.57E-07,  avg # of iterations =  2.0

     negative rho (up, down):  7.035E-04 1.420E-01

     total cpu time spent up to now is     4407.7 secs

     total energy              =    -860.04444464 Ry
     Harris-Foulkes estimate   =    -860.04696441 Ry
     estimated scf accuracy    <       0.00657258 Ry

     total magnetization       =     2.00 Bohr mag/cell
     absolute magnetization    =     2.34 Bohr mag/cell

     iteration # 45     ecut=    70.00 Ry     beta= 0.30
     Davidson diagonalization with overlap
     ethr =  5.57E-07,  avg # of iterations =  2.5

     negative rho (up, down):  7.656E-04 1.697E-01

     total cpu time spent up to now is     4515.9 secs

     total energy              =    -860.04047503 Ry
     Harris-Foulkes estimate   =    -860.04519000 Ry
     estimated scf accuracy    <       0.01154448 Ry

     total magnetization       =     2.00 Bohr mag/cell
     absolute magnetization    =     2.31 Bohr mag/cell

     iteration # 46     ecut=    70.00 Ry     beta= 0.30
     Davidson diagonalization with overlap
     ethr =  5.57E-07,  avg # of iterations =  4.0

     negative rho (up, down):  7.113E-04 1.409E-01

     total cpu time spent up to now is     4632.0 secs

     total energy              =    -860.04437464 Ry
     Harris-Foulkes estimate   =    -860.04367392 Ry
     estimated scf accuracy    <       0.00316705 Ry

     total magnetization       =     2.00 Bohr mag/cell
     absolute magnetization    =     2.29 Bohr mag/cell

     iteration # 47     ecut=    70.00 Ry     beta= 0.30
     Davidson diagonalization with overlap
     ethr =  5.57E-07,  avg # of iterations =  3.5

     negative rho (up, down):  7.844E-04 1.377E-01

     total cpu time spent up to now is     4741.3 secs

     total energy              =    -860.04397659 Ry
     Harris-Foulkes estimate   =    -860.04618417 Ry
     estimated scf accuracy    <       0.05367129 Ry

     total magnetization       =     2.00 Bohr mag/cell
     absolute magnetization    =     2.29 Bohr mag/cell

     iteration # 48     ecut=    70.00 Ry     beta= 0.30
     Davidson diagonalization with overlap
     ethr =  5.57E-07,  avg # of iterations =  3.0

     negative rho (up, down):  7.687E-04 1.491E-01

     total cpu time spent up to now is     4845.0 secs

     total energy              =    -860.04065105 Ry
     Harris-Foulkes estimate   =    -860.04515167 Ry
     estimated scf accuracy    <       0.00596309 Ry

     total magnetization       =     2.00 Bohr mag/cell
     absolute magnetization    =     2.31 Bohr mag/cell

     iteration # 49     ecut=    70.00 Ry     beta= 0.30
     Davidson diagonalization with overlap
     ethr =  5.57E-07,  avg # of iterations =  3.0

     negative rho (up, down):  7.429E-04 1.380E-01

     total cpu time spent up to now is     4957.1 secs

     total energy              =    -860.04203328 Ry
     Harris-Foulkes estimate   =    -860.04269797 Ry
     estimated scf accuracy    <       0.00340782 Ry

     total magnetization       =     2.00 Bohr mag/cell
     absolute magnetization    =     2.28 Bohr mag/cell

     iteration # 50     ecut=    70.00 Ry     beta= 0.30
     Davidson diagonalization with overlap
     ethr =  5.57E-07,  avg # of iterations =  2.0

     negative rho (up, down):  6.972E-04 1.130E-01

     total cpu time spent up to now is     5059.7 secs

     total energy              =    -860.04243741 Ry
     Harris-Foulkes estimate   =    -860.04250551 Ry
     estimated scf accuracy    <       0.00369389 Ry

     total magnetization       =     2.00 Bohr mag/cell
     absolute magnetization    =     2.29 Bohr mag/cell

     iteration # 51     ecut=    70.00 Ry     beta= 0.30
     Davidson diagonalization with overlap
     ethr =  5.57E-07,  avg # of iterations =  2.5

     negative rho (up, down):  6.819E-04 1.115E-01

     total cpu time spent up to now is     5160.4 secs

     total energy              =    -860.04212722 Ry
     Harris-Foulkes estimate   =    -860.04286359 Ry
     estimated scf accuracy    <       0.00559849 Ry

     total magnetization       =     2.00 Bohr mag/cell
     absolute magnetization    =     2.25 Bohr mag/cell

     iteration # 52     ecut=    70.00 Ry     beta= 0.30
     Davidson diagonalization with overlap
     ethr =  5.57E-07,  avg # of iterations =  2.0

     negative rho (up, down):  6.779E-04 8.756E-02

     total cpu time spent up to now is     5262.8 secs

     total energy              =    -860.04258558 Ry
     Harris-Foulkes estimate   =    -860.04276292 Ry
     estimated scf accuracy    <       0.00515293 Ry

     total magnetization       =     2.00 Bohr mag/cell
     absolute magnetization    =     2.27 Bohr mag/cell

     iteration # 53     ecut=    70.00 Ry     beta= 0.30
     Davidson diagonalization with overlap
     ethr =  5.57E-07,  avg # of iterations =  2.0

     negative rho (up, down):  6.638E-04 6.434E-02

     total cpu time spent up to now is     5355.6 secs

     total energy              =    -860.04278550 Ry
     Harris-Foulkes estimate   =    -860.04283836 Ry
     estimated scf accuracy    <       0.00296860 Ry

     total magnetization       =     2.00 Bohr mag/cell
     absolute magnetization    =     2.29 Bohr mag/cell

     iteration # 54     ecut=    70.00 Ry     beta= 0.30
     Davidson diagonalization with overlap
     ethr =  5.57E-07,  avg # of iterations =  2.0

     negative rho (up, down):  6.660E-04 6.713E-02

     total cpu time spent up to now is     5455.2 secs

     total energy              =    -860.04307778 Ry
     Harris-Foulkes estimate   =    -860.04301356 Ry
     estimated scf accuracy    <       0.00114059 Ry

     total magnetization       =     2.00 Bohr mag/cell
     absolute magnetization    =     2.28 Bohr mag/cell

     iteration # 55     ecut=    70.00 Ry     beta= 0.30
     Davidson diagonalization with overlap
     ethr =  5.33E-07,  avg # of iterations =  1.5

     negative rho (up, down):  6.684E-04 6.268E-02

     total cpu time spent up to now is     5547.2 secs

     total energy              =    -860.04324716 Ry
     Harris-Foulkes estimate   =    -860.04311205 Ry
     estimated scf accuracy    <       0.00254594 Ry

     total magnetization       =     2.00 Bohr mag/cell
     absolute magnetization    =     2.28 Bohr mag/cell

     iteration # 56     ecut=    70.00 Ry     beta= 0.30
     Davidson diagonalization with overlap
     ethr =  5.33E-07,  avg # of iterations =  2.0

     negative rho (up, down):  6.738E-04 7.661E-02

     total cpu time spent up to now is     5640.4 secs

     total energy              =    -860.04311460 Ry
     Harris-Foulkes estimate   =    -860.04330864 Ry
     estimated scf accuracy    <       0.00189112 Ry

     total magnetization       =     2.00 Bohr mag/cell
     absolute magnetization    =     2.29 Bohr mag/cell

     iteration # 57     ecut=    70.00 Ry     beta= 0.30
     Davidson diagonalization with overlap
     ethr =  5.33E-07,  avg # of iterations =  2.0

     negative rho (up, down):  6.704E-04 7.570E-02

     total cpu time spent up to now is     5742.9 secs

     total energy              =    -860.04331271 Ry
     Harris-Foulkes estimate   =    -860.04339704 Ry
     estimated scf accuracy    <       0.00308004 Ry

     total magnetization       =     2.00 Bohr mag/cell
     absolute magnetization    =     2.27 Bohr mag/cell

     iteration # 58     ecut=    70.00 Ry     beta= 0.30
     Davidson diagonalization with overlap
     ethr =  5.33E-07,  avg # of iterations =  2.0

     negative rho (up, down):  6.751E-04 8.324E-02

     total cpu time spent up to now is     5835.9 secs

     total energy              =    -860.04316090 Ry
     Harris-Foulkes estimate   =    -860.04336498 Ry
     estimated scf accuracy    <       0.00232023 Ry

     total magnetization       =     2.00 Bohr mag/cell
     absolute magnetization    =     2.28 Bohr mag/cell

     iteration # 59     ecut=    70.00 Ry     beta= 0.30
     Davidson diagonalization with overlap
     ethr =  5.33E-07,  avg # of iterations =  2.0

     negative rho (up, down):  6.671E-04 7.733E-02

     total cpu time spent up to now is     5935.5 secs

     total energy              =    -860.04351186 Ry
     Harris-Foulkes estimate   =    -860.04329480 Ry
     estimated scf accuracy    <       0.00234972 Ry

     total magnetization       =     2.00 Bohr mag/cell
     absolute magnetization    =     2.29 Bohr mag/cell

     iteration # 60     ecut=    70.00 Ry     beta= 0.30
     Davidson diagonalization with overlap
     ethr =  5.33E-07,  avg # of iterations =  2.5

     negative rho (up, down):  6.574E-04 7.355E-02

     total cpu time spent up to now is     6042.9 secs

     total energy              =    -860.04385216 Ry
     Harris-Foulkes estimate   =    -860.04422688 Ry
     estimated scf accuracy    <       0.00679392 Ry

     total magnetization       =     2.00 Bohr mag/cell
     absolute magnetization    =     2.32 Bohr mag/cell

     iteration # 61     ecut=    70.00 Ry     beta= 0.30
     Davidson diagonalization with overlap
     ethr =  5.33E-07,  avg # of iterations =  2.0

     negative rho (up, down):  6.643E-04 1.020E-01

     total cpu time spent up to now is     6143.1 secs

     total energy              =    -860.04313846 Ry
     Harris-Foulkes estimate   =    -860.04408332 Ry
     estimated scf accuracy    <       0.00259588 Ry

     total magnetization       =     2.00 Bohr mag/cell
     absolute magnetization    =     2.31 Bohr mag/cell

     iteration # 62     ecut=    70.00 Ry     beta= 0.30
     Davidson diagonalization with overlap
     ethr =  5.33E-07,  avg # of iterations =  2.5

     negative rho (up, down):  6.632E-04 9.409E-02

     total cpu time spent up to now is     6254.1 secs

     total energy              =    -860.04360556 Ry
     Harris-Foulkes estimate   =    -860.04440454 Ry
     estimated scf accuracy    <       0.01051169 Ry

     total magnetization       =     2.00 Bohr mag/cell
     absolute magnetization    =     2.29 Bohr mag/cell

     iteration # 63     ecut=    70.00 Ry     beta= 0.30
     Davidson diagonalization with overlap
     ethr =  5.33E-07,  avg # of iterations =  2.0

     negative rho (up, down):  6.863E-04 1.292E-01

     total cpu time spent up to now is     6357.2 secs

     total energy              =    -860.04213516 Ry
     Harris-Foulkes estimate   =    -860.04405400 Ry
     estimated scf accuracy    <       0.00472380 Ry

     total magnetization       =     2.00 Bohr mag/cell
     absolute magnetization    =     2.30 Bohr mag/cell

     iteration # 64     ecut=    70.00 Ry     beta= 0.30
     Davidson diagonalization with overlap
     ethr =  5.33E-07,  avg # of iterations =  2.0

     negative rho (up, down):  6.547E-04 7.702E-02

     total cpu time spent up to now is     6464.4 secs

     total energy              =    -860.04276468 Ry
     Harris-Foulkes estimate   =    -860.04296908 Ry
     estimated scf accuracy    <       0.00272215 Ry

     total magnetization       =     2.00 Bohr mag/cell
     absolute magnetization    =     2.29 Bohr mag/cell

     iteration # 65     ecut=    70.00 Ry     beta= 0.30
     Davidson diagonalization with overlap
     ethr =  5.33E-07,  avg # of iterations =  3.0

     negative rho (up, down):  6.646E-04 1.080E-01

     total cpu time spent up to now is     6579.0 secs

     total energy              =    -860.04244984 Ry
     Harris-Foulkes estimate   =    -860.04472888 Ry
     estimated scf accuracy    <       0.01648105 Ry

     total magnetization       =     2.00 Bohr mag/cell
     absolute magnetization    =     2.27 Bohr mag/cell

     iteration # 66     ecut=    70.00 Ry     beta= 0.30
     Davidson diagonalization with overlap
     ethr =  5.33E-07,  avg # of iterations =  3.0

     negative rho (up, down):  6.690E-04 1.139E-01

     total cpu time spent up to now is     6687.8 secs

     total energy              =    -860.04306412 Ry
     Harris-Foulkes estimate   =    -860.04362781 Ry
     estimated scf accuracy    <       0.00610975 Ry

     total magnetization       =     2.00 Bohr mag/cell
     absolute magnetization    =     2.29 Bohr mag/cell

     iteration # 67     ecut=    70.00 Ry     beta= 0.30
     Davidson diagonalization with overlap
     ethr =  5.33E-07,  avg # of iterations =  2.0

     negative rho (up, down):  6.589E-04 9.458E-02

     total cpu time spent up to now is     6788.7 secs

     total energy              =    -860.04331337 Ry
     Harris-Foulkes estimate   =    -860.04335236 Ry
     estimated scf accuracy    <       0.00226945 Ry

     total magnetization       =     2.00 Bohr mag/cell
     absolute magnetization    =     2.28 Bohr mag/cell

     iteration # 68     ecut=    70.00 Ry     beta= 0.30
     Davidson diagonalization with overlap
     ethr =  5.33E-07,  avg # of iterations =  2.0

     negative rho (up, down):  6.582E-04 9.321E-02

     total cpu time spent up to now is     6891.3 secs

     total energy              =    -860.04364545 Ry
     Harris-Foulkes estimate   =    -860.04363466 Ry
     estimated scf accuracy    <       0.00345683 Ry

     total magnetization       =     2.00 Bohr mag/cell
     absolute magnetization    =     2.30 Bohr mag/cell

     iteration # 69     ecut=    70.00 Ry     beta= 0.30
     Davidson diagonalization with overlap
     ethr =  5.33E-07,  avg # of iterations =  2.0

     negative rho (up, down):  6.510E-04 7.356E-02

     total cpu time spent up to now is     6984.5 secs

     total energy              =    -860.04446124 Ry
     Harris-Foulkes estimate   =    -860.04369589 Ry
     estimated scf accuracy    <       0.00180628 Ry

     total magnetization       =     2.00 Bohr mag/cell
     absolute magnetization    =     2.30 Bohr mag/cell

     iteration # 70     ecut=    70.00 Ry     beta= 0.30
     Davidson diagonalization with overlap
     ethr =  5.33E-07,  avg # of iterations =  2.0

     negative rho (up, down):  6.572E-04 9.726E-02

     total cpu time spent up to now is     7088.3 secs

     total energy              =    -860.04438339 Ry
     Harris-Foulkes estimate   =    -860.04482265 Ry
     estimated scf accuracy    <       0.00391656 Ry

     total magnetization       =     2.00 Bohr mag/cell
     absolute magnetization    =     2.31 Bohr mag/cell

     iteration # 71     ecut=    70.00 Ry     beta= 0.30
     Davidson diagonalization with overlap
     ethr =  5.33E-07,  avg # of iterations =  2.0

     negative rho (up, down):  6.636E-04 1.120E-01

     total cpu time spent up to now is     7186.2 secs

     total energy              =    -860.04374641 Ry
     Harris-Foulkes estimate   =    -860.04458417 Ry
     estimated scf accuracy    <       0.00771506 Ry

     total magnetization       =     2.00 Bohr mag/cell
     absolute magnetization    =     2.29 Bohr mag/cell

     iteration # 72     ecut=    70.00 Ry     beta= 0.30
     Davidson diagonalization with overlap
     ethr =  5.33E-07,  avg # of iterations =  2.0

     negative rho (up, down):  6.661E-04 1.162E-01

     total cpu time spent up to now is     7285.2 secs

     total energy              =    -860.04360162 Ry
     Harris-Foulkes estimate   =    -860.04411552 Ry
     estimated scf accuracy    <       0.00553769 Ry

     total magnetization       =     2.00 Bohr mag/cell
     absolute magnetization    =     2.31 Bohr mag/cell

     iteration # 73     ecut=    70.00 Ry     beta= 0.30
     Davidson diagonalization with overlap
     ethr =  5.33E-07,  avg # of iterations =  2.0

     negative rho (up, down):  6.731E-04 1.212E-01

     total cpu time spent up to now is     7386.3 secs

     total energy              =    -860.04353018 Ry
     Harris-Foulkes estimate   =    -860.04396395 Ry
     estimated scf accuracy    <       0.00501612 Ry

     total magnetization       =     2.00 Bohr mag/cell
     absolute magnetization    =     2.29 Bohr mag/cell

     iteration # 74     ecut=    70.00 Ry     beta= 0.30
     Davidson diagonalization with overlap
     ethr =  5.33E-07,  avg # of iterations =  2.0

     negative rho (up, down):  6.555E-04 7.788E-02

     total cpu time spent up to now is     7489.5 secs

     total energy              =    -860.04426360 Ry
     Harris-Foulkes estimate   =    -860.04389272 Ry
     estimated scf accuracy    <       0.00319104 Ry

     total magnetization       =     2.00 Bohr mag/cell
     absolute magnetization    =     2.30 Bohr mag/cell

     iteration # 75     ecut=    70.00 Ry     beta= 0.30
     Davidson diagonalization with overlap
     ethr =  5.33E-07,  avg # of iterations =  3.0

     negative rho (up, down):  6.575E-04 9.628E-02

     total cpu time spent up to now is     7604.1 secs

     total energy              =    -860.04494727 Ry
     Harris-Foulkes estimate   =    -860.04619803 Ry
     estimated scf accuracy    <       0.02352921 Ry

     total magnetization       =     2.00 Bohr mag/cell
     absolute magnetization    =     2.33 Bohr mag/cell

     iteration # 76     ecut=    70.00 Ry     beta= 0.30
     Davidson diagonalization with overlap
     ethr =  5.33E-07,  avg # of iterations =  2.5

     negative rho (up, down):  7.188E-04 1.589E-01

     total cpu time spent up to now is     7704.5 secs

     total energy              =    -860.03934594 Ry
     Harris-Foulkes estimate   =    -860.04553920 Ry
     estimated scf accuracy    <       0.00375221 Ry

     total magnetization       =     2.00 Bohr mag/cell
     absolute magnetization    =     2.32 Bohr mag/cell

     iteration # 77     ecut=    70.00 Ry     beta= 0.30
     Davidson diagonalization with overlap
     ethr =  5.33E-07,  avg # of iterations =  3.5

     negative rho (up, down):  7.099E-04 1.552E-01

     total cpu time spent up to now is     7821.0 secs

     total energy              =    -860.04123724 Ry
     Harris-Foulkes estimate   =    -860.04260641 Ry
     estimated scf accuracy    <       0.00424133 Ry

     total magnetization       =     2.00 Bohr mag/cell
     absolute magnetization    =     2.29 Bohr mag/cell

     iteration # 78     ecut=    70.00 Ry     beta= 0.30
     Davidson diagonalization with overlap
     ethr =  5.33E-07,  avg # of iterations =  2.5

     negative rho (up, down):  6.831E-04 1.292E-01

     total cpu time spent up to now is     7929.7 secs

     total energy              =    -860.04227266 Ry
     Harris-Foulkes estimate   =    -860.04224095 Ry
     estimated scf accuracy    <       0.00064819 Ry

     total magnetization       =     2.00 Bohr mag/cell
     absolute magnetization    =     2.28 Bohr mag/cell

     iteration # 79     ecut=    70.00 Ry     beta= 0.30
     Davidson diagonalization with overlap
     ethr =  3.03E-07,  avg # of iterations =  1.5

     negative rho (up, down):  6.675E-04 1.092E-01

     total cpu time spent up to now is     8021.6 secs

     total energy              =    -860.04236036 Ry
     Harris-Foulkes estimate   =    -860.04230057 Ry
     estimated scf accuracy    <       0.00035439 Ry

     total magnetization       =     2.00 Bohr mag/cell
     absolute magnetization    =     2.28 Bohr mag/cell

     iteration # 80     ecut=    70.00 Ry     beta= 0.30
     Davidson diagonalization with overlap
     ethr =  1.66E-07,  avg # of iterations =  2.0

     negative rho (up, down):  6.589E-04 8.159E-02

     total cpu time spent up to now is     8122.7 secs

     total energy              =    -860.04241211 Ry
     Harris-Foulkes estimate   =    -860.04247739 Ry
     estimated scf accuracy    <       0.00246551 Ry

     total magnetization       =     2.00 Bohr mag/cell
     absolute magnetization    =     2.25 Bohr mag/cell

     iteration # 81     ecut=    70.00 Ry     beta= 0.30
     Davidson diagonalization with overlap
     ethr =  1.66E-07,  avg # of iterations =  2.0

     negative rho (up, down):  6.508E-04 5.238E-02

     total cpu time spent up to now is     8215.3 secs

     total energy              =    -860.04252222 Ry
     Harris-Foulkes estimate   =    -860.04248300 Ry
     estimated scf accuracy    <       0.00065784 Ry

     total magnetization       =     2.00 Bohr mag/cell
     absolute magnetization    =     2.28 Bohr mag/cell

     iteration # 82     ecut=    70.00 Ry     beta= 0.30
     Davidson diagonalization with overlap
     ethr =  1.66E-07,  avg # of iterations =  2.0

     negative rho (up, down):  6.564E-04 5.903E-02

     total cpu time spent up to now is     8317.4 secs

     total energy              =    -860.04247842 Ry
     Harris-Foulkes estimate   =    -860.04258509 Ry
     estimated scf accuracy    <       0.00062274 Ry

     total magnetization       =     2.00 Bohr mag/cell
     absolute magnetization    =     2.28 Bohr mag/cell

     iteration # 83     ecut=    70.00 Ry     beta= 0.30
     Davidson diagonalization with overlap
     ethr =  1.66E-07,  avg # of iterations =  2.0

     negative rho (up, down):  6.523E-04 4.723E-02

     total cpu time spent up to now is     8414.6 secs

     total energy              =    -860.04250944 Ry
     Harris-Foulkes estimate   =    -860.04250730 Ry
     estimated scf accuracy    <       0.00082311 Ry

     total magnetization       =     2.00 Bohr mag/cell
     absolute magnetization    =     2.28 Bohr mag/cell

     iteration # 84     ecut=    70.00 Ry     beta= 0.30
     Davidson diagonalization with overlap
     ethr =  1.66E-07,  avg # of iterations =  2.0

     negative rho (up, down):  6.471E-04 4.647E-02

     total cpu time spent up to now is     8511.6 secs

     total energy              =    -860.04252096 Ry
     Harris-Foulkes estimate   =    -860.04259528 Ry
     estimated scf accuracy    <       0.00176246 Ry

     total magnetization       =     2.00 Bohr mag/cell
     absolute magnetization    =     2.28 Bohr mag/cell

     iteration # 85     ecut=    70.00 Ry     beta= 0.30
     Davidson diagonalization with overlap
     ethr =  1.66E-07,  avg # of iterations =  2.5

     negative rho (up, down):  6.513E-04 5.965E-02

     total cpu time spent up to now is     8618.0 secs

     total energy              =    -860.04245337 Ry
     Harris-Foulkes estimate   =    -860.04290046 Ry
     estimated scf accuracy    <       0.00614093 Ry

     total magnetization       =     2.00 Bohr mag/cell
     absolute magnetization    =     2.30 Bohr mag/cell

     iteration # 86     ecut=    70.00 Ry     beta= 0.30
     Davidson diagonalization with overlap
     ethr =  1.66E-07,  avg # of iterations =  2.0

     negative rho (up, down):  6.437E-04 3.831E-02

     total cpu time spent up to now is     8721.8 secs

     total energy              =    -860.04263503 Ry
     Harris-Foulkes estimate   =    -860.04268651 Ry
     estimated scf accuracy    <       0.00094415 Ry

     total magnetization       =     2.00 Bohr mag/cell
     absolute magnetization    =     2.27 Bohr mag/cell

     iteration # 87     ecut=    70.00 Ry     beta= 0.30
     Davidson diagonalization with overlap
     ethr =  1.66E-07,  avg # of iterations =  2.0

     negative rho (up, down):  6.456E-04 4.772E-02

     total cpu time spent up to now is     8828.3 secs

     total energy              =    -860.04287850 Ry
     Harris-Foulkes estimate   =    -860.04291036 Ry
     estimated scf accuracy    <       0.00115354 Ry

     total magnetization       =     2.00 Bohr mag/cell
     absolute magnetization    =     2.28 Bohr mag/cell

     iteration # 88     ecut=    70.00 Ry     beta= 0.30
     Davidson diagonalization with overlap
     ethr =  1.66E-07,  avg # of iterations =  2.0

     negative rho (up, down):  6.433E-04 6.652E-02

     total cpu time spent up to now is     8921.0 secs

     total energy              =    -860.04256841 Ry
     Harris-Foulkes estimate   =    -860.04288621 Ry
     estimated scf accuracy    <       0.00106010 Ry

     total magnetization       =     2.00 Bohr mag/cell
     absolute magnetization    =     2.28 Bohr mag/cell

     iteration # 89     ecut=    70.00 Ry     beta= 0.30
     Davidson diagonalization with overlap
     ethr =  1.66E-07,  avg # of iterations =  2.0

     negative rho (up, down):  6.433E-04 8.707E-02

     total cpu time spent up to now is     9024.6 secs

     total energy              =    -860.04208047 Ry
     Harris-Foulkes estimate   =    -860.04267163 Ry
     estimated scf accuracy    <       0.00132104 Ry

     total magnetization       =     2.00 Bohr mag/cell
     absolute magnetization    =     2.27 Bohr mag/cell

     iteration # 90     ecut=    70.00 Ry     beta= 0.30
     Davidson diagonalization with overlap
     ethr =  1.66E-07,  avg # of iterations =  2.0

     negative rho (up, down):  6.420E-04 6.794E-02

     total cpu time spent up to now is     9133.8 secs

     total energy              =    -860.04248771 Ry
     Harris-Foulkes estimate   =    -860.04246647 Ry
     estimated scf accuracy    <       0.00067847 Ry

     total magnetization       =     2.00 Bohr mag/cell
     absolute magnetization    =     2.29 Bohr mag/cell

     iteration # 91     ecut=    70.00 Ry     beta= 0.30
     Davidson diagonalization with overlap
     ethr =  1.66E-07,  avg # of iterations =  2.0

     negative rho (up, down):  6.438E-04 4.970E-02

     total cpu time spent up to now is     9228.6 secs

     total energy              =    -860.04253604 Ry
     Harris-Foulkes estimate   =    -860.04251871 Ry
     estimated scf accuracy    <       0.00058906 Ry

     total magnetization       =     2.00 Bohr mag/cell
     absolute magnetization    =     2.28 Bohr mag/cell

     iteration # 92     ecut=    70.00 Ry     beta= 0.30
     Davidson diagonalization with overlap
     ethr =  1.66E-07,  avg # of iterations =  2.0

     negative rho (up, down):  6.404E-04 5.273E-02

     total cpu time spent up to now is     9333.6 secs

     total energy              =    -860.04257166 Ry
     Harris-Foulkes estimate   =    -860.04271369 Ry
     estimated scf accuracy    <       0.00192434 Ry

     total magnetization       =     2.00 Bohr mag/cell
     absolute magnetization    =     2.29 Bohr mag/cell

     iteration # 93     ecut=    70.00 Ry     beta= 0.30
     Davidson diagonalization with overlap
     ethr =  1.66E-07,  avg # of iterations =  2.0

     negative rho (up, down):  6.438E-04 4.564E-02

     total cpu time spent up to now is     9440.3 secs

     total energy              =    -860.04273469 Ry
     Harris-Foulkes estimate   =    -860.04279534 Ry
     estimated scf accuracy    <       0.00215026 Ry

     total magnetization       =     2.00 Bohr mag/cell
     absolute magnetization    =     2.29 Bohr mag/cell

     iteration # 94     ecut=    70.00 Ry     beta= 0.30
     Davidson diagonalization with overlap
     ethr =  1.66E-07,  avg # of iterations =  2.0

     negative rho (up, down):  6.556E-04 8.178E-02

     total cpu time spent up to now is     9540.2 secs

     total energy              =    -860.04196972 Ry
     Harris-Foulkes estimate   =    -860.04278818 Ry
     estimated scf accuracy    <       0.00106712 Ry

     total magnetization       =     2.00 Bohr mag/cell
     absolute magnetization    =     2.29 Bohr mag/cell

     iteration # 95     ecut=    70.00 Ry     beta= 0.30
     Davidson diagonalization with overlap
     ethr =  1.66E-07,  avg # of iterations =  3.0

     negative rho (up, down):  6.552E-04 7.946E-02

     total cpu time spent up to now is     9651.1 secs

     total energy              =    -860.04232410 Ry
     Harris-Foulkes estimate   =    -860.04248800 Ry
     estimated scf accuracy    <       0.00156830 Ry

     total magnetization       =     2.00 Bohr mag/cell
     absolute magnetization    =     2.26 Bohr mag/cell

     iteration # 96     ecut=    70.00 Ry     beta= 0.30
     Davidson diagonalization with overlap
     ethr =  1.66E-07,  avg # of iterations =  2.5

     negative rho (up, down):  6.401E-04 3.490E-02

     total cpu time spent up to now is     9757.3 secs

     total energy              =    -860.04182782 Ry
     Harris-Foulkes estimate   =    -860.04257422 Ry
     estimated scf accuracy    <       0.00292173 Ry

     total magnetization       =     2.00 Bohr mag/cell
     absolute magnetization    =     2.30 Bohr mag/cell

     iteration # 97     ecut=    70.00 Ry     beta= 0.30
     Davidson diagonalization with overlap
     ethr =  1.66E-07,  avg # of iterations =  3.0

     negative rho (up, down):  6.458E-04 4.976E-02

     total cpu time spent up to now is     9872.5 secs

     total energy              =    -860.04246620 Ry
     Harris-Foulkes estimate   =    -860.04292067 Ry
     estimated scf accuracy    <       0.00309528 Ry

     total magnetization       =     2.00 Bohr mag/cell
     absolute magnetization    =     2.29 Bohr mag/cell

     iteration # 98     ecut=    70.00 Ry     beta= 0.30
     Davidson diagonalization with overlap
     ethr =  1.66E-07,  avg # of iterations =  2.0

     negative rho (up, down):  6.480E-04 5.103E-02

     total cpu time spent up to now is     9979.9 secs

     total energy              =    -860.04271977 Ry
     Harris-Foulkes estimate   =    -860.04274950 Ry
     estimated scf accuracy    <       0.00102213 Ry

     total magnetization       =     2.00 Bohr mag/cell
     absolute magnetization    =     2.29 Bohr mag/cell

     iteration # 99     ecut=    70.00 Ry     beta= 0.30
     Davidson diagonalization with overlap
     ethr =  1.66E-07,  avg # of iterations =  2.0

     negative rho (up, down):  6.508E-04 5.533E-02

     total cpu time spent up to now is    10072.8 secs

     total energy              =    -860.04264993 Ry
     Harris-Foulkes estimate   =    -860.04275992 Ry
     estimated scf accuracy    <       0.00217250 Ry

     total magnetization       =     2.00 Bohr mag/cell
     absolute magnetization    =     2.30 Bohr mag/cell

     iteration #100     ecut=    70.00 Ry     beta= 0.30
     Davidson diagonalization with overlap
     ethr =  1.66E-07,  avg # of iterations =  2.0

     negative rho (up, down):  6.517E-04 5.288E-02

     Magnetic moment per site:
     atom:    1    charge:    0.2109    magn:    0.0044    constr:    0.0000
     atom:    2    charge:    0.2109    magn:    0.0044    constr:    0.0000
     atom:    3    charge:    1.7160    magn:   -0.0025    constr:    0.0000
     atom:    4    charge:    1.7159    magn:    0.0072    constr:    0.0000
     atom:    5    charge:    1.7169    magn:    0.0013    constr:    0.0000
     atom:    6    charge:    1.7149    magn:    0.0007    constr:    0.0000
     atom:    7    charge:    1.7171    magn:    0.0009    constr:    0.0000
     atom:    8    charge:    1.7159    magn:    0.0073    constr:    0.0000
     atom:    9    charge:    1.7159    magn:   -0.0023    constr:    0.0000
     atom:   10    charge:    1.7170    magn:    0.0296    constr:    0.0000
     atom:   11    charge:    1.7159    magn:   -0.0067    constr:    0.0000
     atom:   12    charge:    1.7171    magn:    0.0286    constr:    0.0000
     atom:   13    charge:    1.7157    magn:   -0.0064    constr:    0.0000
     atom:   14    charge:    1.7175    magn:    0.0210    constr:    0.0000
     atom:   15    charge:    1.7126    magn:   -0.0034    constr:    0.0000
     atom:   16    charge:    1.7149    magn:    0.0237    constr:    0.0000
     atom:   17    charge:    1.7205    magn:    0.0075    constr:    0.0000
     atom:   18    charge:    1.7146    magn:    0.0253    constr:    0.0000
     atom:   19    charge:    1.7128    magn:   -0.0035    constr:    0.0000
     atom:   20    charge:    1.7172    magn:    0.0221    constr:    0.0000
     atom:   21    charge:    1.7158    magn:   -0.0066    constr:    0.0000
     atom:   22    charge:    1.7173    magn:    0.0285    constr:    0.0000
     atom:   23    charge:    1.7160    magn:   -0.0026    constr:    0.0000
     atom:   24    charge:    1.7159    magn:    0.0072    constr:    0.0000
     atom:   25    charge:    1.7126    magn:   -0.0033    constr:    0.0000
     atom:   26    charge:    1.7151    magn:    0.0236    constr:    0.0000
     atom:   27    charge:    1.8509    magn:    0.0018    constr:    0.0000
     atom:   28    charge:   11.1626    magn:    0.5313    constr:    0.0000
     atom:   29    charge:    1.8516    magn:   -0.0018    constr:    0.0000
     atom:   30    charge:    1.7147    magn:    0.0242    constr:    0.0000
     atom:   31    charge:    1.7127    magn:   -0.0034    constr:    0.0000
     atom:   32    charge:    1.7159    magn:    0.0072    constr:    0.0000
     atom:   33    charge:    1.7171    magn:    0.0009    constr:    0.0000
     atom:   34    charge:    1.7155    magn:    0.0034    constr:    0.0000
     atom:   35    charge:    1.7169    magn:    0.0012    constr:    0.0000
     atom:   36    charge:    1.7149    magn:    0.0008    constr:    0.0000
     atom:   37    charge:    1.7205    magn:    0.0074    constr:    0.0000
     atom:   38    charge:    1.7146    magn:    0.0255    constr:    0.0000
     atom:   39    charge:    1.8516    magn:   -0.0000    constr:    0.0000
     atom:   40    charge:    1.7147    magn:    0.0244    constr:    0.0000
     atom:   41    charge:    1.7207    magn:    0.0065    constr:    0.0000
     atom:   42    charge:    1.7147    magn:    0.0010    constr:    0.0000
     atom:   43    charge:    1.7171    magn:    0.0008    constr:    0.0000
     atom:   44    charge:    1.7155    magn:    0.0034    constr:    0.0000
     atom:   45    charge:    1.7210    magn:    0.0163    constr:    0.0000
     atom:   46    charge:    1.7154    magn:    0.0038    constr:    0.0000
     atom:   47    charge:    1.7171    magn:    0.0008    constr:    0.0000
     atom:   48    charge:    1.7159    magn:    0.0073    constr:    0.0000
     atom:   49    charge:    1.7128    magn:   -0.0035    constr:    0.0000
     atom:   50    charge:    1.7172    magn:    0.0223    constr:    0.0000
     atom:   51    charge:    1.7128    magn:   -0.0034    constr:    0.0000
     atom:   52    charge:    1.7159    magn:    0.0072    constr:    0.0000

     total cpu time spent up to now is    10167.9 secs

     total energy              =    -860.04272871 Ry
     Harris-Foulkes estimate   =    -860.04270362 Ry
     estimated scf accuracy    <       0.00146858 Ry

     total magnetization       =     2.00 Bohr mag/cell
     absolute magnetization    =     2.29 Bohr mag/cell

     iteration #101     ecut=    70.00 Ry     beta= 0.30
     Davidson diagonalization with overlap
     ethr =  1.66E-07,  avg # of iterations =  2.0

     negative rho (up, down):  6.493E-04 5.901E-02

     total cpu time spent up to now is    10263.4 secs

     total energy              =    -860.04260347 Ry
     Harris-Foulkes estimate   =    -860.04290123 Ry
     estimated scf accuracy    <       0.00512067 Ry

     total magnetization       =     2.00 Bohr mag/cell
     absolute magnetization    =     2.26 Bohr mag/cell

     iteration #102     ecut=    70.00 Ry     beta= 0.30
     Davidson diagonalization with overlap
     ethr =  1.66E-07,  avg # of iterations =  3.0

     negative rho (up, down):  6.432E-04 4.942E-02

     total cpu time spent up to now is    10375.9 secs

     total energy              =    -860.04313858 Ry
     Harris-Foulkes estimate   =    -860.04341495 Ry
     estimated scf accuracy    <       0.00316806 Ry

     total magnetization       =     2.00 Bohr mag/cell
     absolute magnetization    =     2.32 Bohr mag/cell

     iteration #103     ecut=    70.00 Ry     beta= 0.30
     Davidson diagonalization with overlap
     ethr =  1.66E-07,  avg # of iterations =  2.0

     negative rho (up, down):  6.487E-04 7.103E-02

     total cpu time spent up to now is    10483.0 secs

     total energy              =    -860.04297530 Ry
     Harris-Foulkes estimate   =    -860.04335575 Ry
     estimated scf accuracy    <       0.00198145 Ry

     total magnetization       =     2.00 Bohr mag/cell
     absolute magnetization    =     2.31 Bohr mag/cell

     iteration #104     ecut=    70.00 Ry     beta= 0.30
     Davidson diagonalization with overlap
     ethr =  1.66E-07,  avg # of iterations =  2.0

     negative rho (up, down):  6.533E-04 8.232E-02

     total cpu time spent up to now is    10589.2 secs

     total energy              =    -860.04282830 Ry
     Harris-Foulkes estimate   =    -860.04318660 Ry
     estimated scf accuracy    <       0.00394808 Ry

     total magnetization       =     2.00 Bohr mag/cell
     absolute magnetization    =     2.31 Bohr mag/cell

     iteration #105     ecut=    70.00 Ry     beta= 0.30
     Davidson diagonalization with overlap
     ethr =  1.66E-07,  avg # of iterations =  2.0

     negative rho (up, down):  6.466E-04 7.077E-02

     total cpu time spent up to now is    10694.8 secs

     total energy              =    -860.04262477 Ry
     Harris-Foulkes estimate   =    -860.04304034 Ry
     estimated scf accuracy    <       0.00221920 Ry

     total magnetization       =     2.00 Bohr mag/cell
     absolute magnetization    =     2.31 Bohr mag/cell

     iteration #106     ecut=    70.00 Ry     beta= 0.30
     Davidson diagonalization with overlap
     ethr =  1.66E-07,  avg # of iterations =  3.0

     negative rho (up, down):  6.464E-04 7.896E-02

     total cpu time spent up to now is    10812.1 secs

     total energy              =    -860.04239546 Ry
     Harris-Foulkes estimate   =    -860.04357462 Ry
     estimated scf accuracy    <       0.01285619 Ry

     total magnetization       =     2.00 Bohr mag/cell
     absolute magnetization    =     2.31 Bohr mag/cell

     iteration #107     ecut=    70.00 Ry     beta= 0.30
     Davidson diagonalization with overlap
     ethr =  1.66E-07,  avg # of iterations =  3.0

     negative rho (up, down):  6.479E-04 6.742E-02

     total cpu time spent up to now is    10928.7 secs

     total energy              =    -860.04321832 Ry
     Harris-Foulkes estimate   =    -860.04312426 Ry
     estimated scf accuracy    <       0.00326121 Ry

     total magnetization       =     2.00 Bohr mag/cell
     absolute magnetization    =     2.28 Bohr mag/cell

     iteration #108     ecut=    70.00 Ry     beta= 0.30
     Davidson diagonalization with overlap
     ethr =  1.66E-07,  avg # of iterations =  3.0

     negative rho (up, down):  6.583E-04 6.665E-02

     total cpu time spent up to now is    11042.5 secs

     total energy              =    -860.04316274 Ry
     Harris-Foulkes estimate   =    -860.04411361 Ry
     estimated scf accuracy    <       0.02090390 Ry

     total magnetization       =     2.00 Bohr mag/cell
     absolute magnetization    =     2.29 Bohr mag/cell

     iteration #109     ecut=    70.00 Ry     beta= 0.30
     Davidson diagonalization with overlap
     ethr =  1.66E-07,  avg # of iterations =  3.0

     negative rho (up, down):  6.649E-04 9.972E-02

     total cpu time spent up to now is    11150.7 secs

     total energy              =    -860.04264827 Ry
     Harris-Foulkes estimate   =    -860.04371813 Ry
     estimated scf accuracy    <       0.00157237 Ry

     total magnetization       =     2.00 Bohr mag/cell
     absolute magnetization    =     2.31 Bohr mag/cell

     iteration #110     ecut=    70.00 Ry     beta= 0.30
     Davidson diagonalization with overlap
     ethr =  1.66E-07,  avg # of iterations =  3.0

     negative rho (up, down):  6.451E-04 5.214E-02

     total cpu time spent up to now is    11260.8 secs

     total energy              =    -860.04327692 Ry
     Harris-Foulkes estimate   =    -860.04315493 Ry
     estimated scf accuracy    <       0.00800754 Ry

     total magnetization       =     2.00 Bohr mag/cell
     absolute magnetization    =     2.31 Bohr mag/cell

     iteration #111     ecut=    70.00 Ry     beta= 0.30
     Davidson diagonalization with overlap
     ethr =  1.66E-07,  avg # of iterations =  3.0

     negative rho (up, down):  6.457E-04 7.702E-02

     total cpu time spent up to now is    11382.4 secs

     total energy              =    -860.04424232 Ry
     Harris-Foulkes estimate   =    -860.04453930 Ry
     estimated scf accuracy    <       0.00528264 Ry

     total magnetization       =     2.00 Bohr mag/cell
     absolute magnetization    =     2.33 Bohr mag/cell

[...]
     Davidson diagonalization with overlap
     ethr =  1.66E-07,  avg # of iterations =  4.0

     negative rho (up, down):  6.790E-04 1.507E-01

     total cpu time spent up to now is    51553.8 secs

     total energy              =    -860.04127924 Ry
     Harris-Foulkes estimate   =    -860.04347338 Ry
     estimated scf accuracy    <       0.00238232 Ry

     total magnetization       =     2.00 Bohr mag/cell
     absolute magnetization    =     2.34 Bohr mag/cell

     iteration #378     ecut=    70.00 Ry     beta= 0.30
     Davidson diagonalization with overlap
     ethr =  1.66E-07,  avg # of iterations =  3.0

     negative rho (up, down):  6.682E-04 1.320E-01

     total cpu time spent up to now is    51669.8 secs

     total energy              =    -860.04220709 Ry
     Harris-Foulkes estimate   =    -860.04234926 Ry
     estimated scf accuracy    <       0.00185470 Ry

     total magnetization       =     2.00 Bohr mag/cell
     absolute magnetization    =     2.31 Bohr mag/cell

     iteration #379     ecut=    70.00 Ry     beta= 0.30
     Davidson diagonalization with overlap
     ethr =  1.66E-07,  avg # of iterations =  2.0

     negative rho (up, down):  6.537E-04 1.174E-01

     total cpu time spent up to now is    51770.9 secs

     total energy              =    -860.04222796 Ry
     Harris-Foulkes estimate   =    -860.04232356 Ry
     estimated scf accuracy    <       0.00080276 Ry

     total magnetization       =     2.00 Bohr mag/cell
     absolute magnetization    =     2.32 Bohr mag/cell

     iteration #380     ecut=    70.00 Ry     beta= 0.30
     Davidson diagonalization with overlap
     ethr =  1.66E-07,  avg # of iterations =  2.0

     negative rho (up, down):  6.448E-04 8.816E-02

     total cpu time spent up to now is    51877.1 secs

     total energy              =    -860.04240566 Ry
     Harris-Foulkes estimate   =    -860.04238778 Ry
     estimated scf accuracy    <       0.00172126 Ry

     total magnetization       =     2.00 Bohr mag/cell
     absolute magnetization    =     2.33 Bohr mag/cell

     iteration #381     ecut=    70.00 Ry     beta= 0.30
     Davidson diagonalization with overlap
     ethr =  1.66E-07,  avg # of iterations =  2.0

     negative rho (up, down):  6.423E-04 7.254E-02

     total cpu time spent up to now is    51974.8 secs

     total energy              =    -860.04252144 Ry
     Harris-Foulkes estimate   =    -860.04247124 Ry
     estimated scf accuracy    <       0.00046954 Ry

     total magnetization       =     2.00 Bohr mag/cell
     absolute magnetization    =     2.32 Bohr mag/cell

     iteration #382     ecut=    70.00 Ry     beta= 0.30
     Davidson diagonalization with overlap
     ethr =  1.66E-07,  avg # of iterations =  2.0

     negative rho (up, down):  6.434E-04 5.468E-02

     total cpu time spent up to now is    52067.6 secs

     total energy              =    -860.04249351 Ry
     Harris-Foulkes estimate   =    -860.04253357 Ry
     estimated scf accuracy    <       0.00089640 Ry

     total magnetization       =     2.00 Bohr mag/cell
     absolute magnetization    =     2.32 Bohr mag/cell

     iteration #383     ecut=    70.00 Ry     beta= 0.30
     Davidson diagonalization with overlap
     ethr =  1.66E-07,  avg # of iterations =  2.0

     negative rho (up, down):  6.398E-04 4.651E-02

     total cpu time spent up to now is    52172.3 secs

     total energy              =    -860.04271640 Ry
     Harris-Foulkes estimate   =    -860.04262491 Ry
     estimated scf accuracy    <       0.00057276 Ry

     total magnetization       =     2.00 Bohr mag/cell
     absolute magnetization    =     2.32 Bohr mag/cell

     iteration #384     ecut=    70.00 Ry     beta= 0.30
     Davidson diagonalization with overlap
     ethr =  1.66E-07,  avg # of iterations =  2.0

     negative rho (up, down):  6.407E-04 4.963E-02

     total cpu time spent up to now is    52271.7 secs

     total energy              =    -860.04276082 Ry
     Harris-Foulkes estimate   =    -860.04274991 Ry
     estimated scf accuracy    <       0.00106708 Ry

     total magnetization       =     2.00 Bohr mag/cell
     absolute magnetization    =     2.33 Bohr mag/cell

     iteration #385     ecut=    70.00 Ry     beta= 0.30
     Davidson diagonalization with overlap
     ethr =  1.66E-07,  avg # of iterations =  1.0

     negative rho (up, down):  6.410E-04 5.655E-02

     total cpu time spent up to now is    52364.0 secs

     total energy              =    -860.04267017 Ry
     Harris-Foulkes estimate   =    -860.04276254 Ry
     estimated scf accuracy    <       0.00104503 Ry

     total magnetization       =     2.00 Bohr mag/cell
     absolute magnetization    =     2.32 Bohr mag/cell

     iteration #386     ecut=    70.00 Ry     beta= 0.30
     Davidson diagonalization with overlap
     ethr =  1.66E-07,  avg # of iterations =  2.0

     negative rho (up, down):  6.410E-04 5.558E-02

     total cpu time spent up to now is    52465.3 secs

     total energy              =    -860.04265024 Ry
     Harris-Foulkes estimate   =    -860.04276325 Ry
     estimated scf accuracy    <       0.00186794 Ry

     total magnetization       =     2.00 Bohr mag/cell
     absolute magnetization    =     2.31 Bohr mag/cell

     iteration #387     ecut=    70.00 Ry     beta= 0.30
     Davidson diagonalization with overlap
     ethr =  1.66E-07,  avg # of iterations =  2.0

     negative rho (up, down):  6.441E-04 5.835E-02

     total cpu time spent up to now is    52560.6 secs

     total energy              =    -860.04276420 Ry
     Harris-Foulkes estimate   =    -860.04276101 Ry
     estimated scf accuracy    <       0.00120721 Ry

     total magnetization       =     2.00 Bohr mag/cell
     absolute magnetization    =     2.32 Bohr mag/cell

     iteration #388     ecut=    70.00 Ry     beta= 0.30
     Davidson diagonalization with overlap
     ethr =  1.66E-07,  avg # of iterations =  2.0

     negative rho (up, down):  6.409E-04 3.980E-02

     total cpu time spent up to now is    52661.8 secs

     total energy              =    -860.04297975 Ry
     Harris-Foulkes estimate   =    -860.04281334 Ry
     estimated scf accuracy    <       0.00111539 Ry

     total magnetization       =     2.00 Bohr mag/cell
     absolute magnetization    =     2.32 Bohr mag/cell

     iteration #389     ecut=    70.00 Ry     beta= 0.30
     Davidson diagonalization with overlap
     ethr =  1.66E-07,  avg # of iterations =  3.0

     negative rho (up, down):  6.402E-04 5.666E-02

     total cpu time spent up to now is    52775.9 secs

     total energy              =    -860.04293836 Ry
     Harris-Foulkes estimate   =    -860.04359784 Ry
     estimated scf accuracy    <       0.01264408 Ry

     total magnetization       =     2.00 Bohr mag/cell
     absolute magnetization    =     2.36 Bohr mag/cell

     iteration #390     ecut=    70.00 Ry     beta= 0.30
     Davidson diagonalization with overlap
     ethr =  1.66E-07,  avg # of iterations =  3.0

     negative rho (up, down):  6.396E-04 7.134E-02

     total cpu time spent up to now is    52881.1 secs

     total energy              =    -860.04297921 Ry
     Harris-Foulkes estimate   =    -860.04321426 Ry
     estimated scf accuracy    <       0.00161784 Ry

     total magnetization       =     2.00 Bohr mag/cell
     absolute magnetization    =     2.33 Bohr mag/cell

     iteration #391     ecut=    70.00 Ry     beta= 0.30
     Davidson diagonalization with overlap
     ethr =  1.66E-07,  avg # of iterations =  2.0

     negative rho (up, down):  6.397E-04 7.429E-02

     total cpu time spent up to now is    52980.8 secs

     total energy              =    -860.04283449 Ry
     Harris-Foulkes estimate   =    -860.04303411 Ry
     estimated scf accuracy    <       0.00247523 Ry

     total magnetization       =     2.00 Bohr mag/cell
     absolute magnetization    =     2.32 Bohr mag/cell

     iteration #392     ecut=    70.00 Ry     beta= 0.30
     Davidson diagonalization with overlap
     ethr =  1.66E-07,  avg # of iterations =  2.0

     negative rho (up, down):  6.424E-04 9.609E-02

     total cpu time spent up to now is    53076.4 secs

     total energy              =    -860.04206464 Ry
     Harris-Foulkes estimate   =    -860.04310781 Ry
     estimated scf accuracy    <       0.00569526 Ry

     total magnetization       =     2.00 Bohr mag/cell
     absolute magnetization    =     2.30 Bohr mag/cell

     iteration #393     ecut=    70.00 Ry     beta= 0.30
     Davidson diagonalization with overlap
     ethr =  1.66E-07,  avg # of iterations =  3.0

     negative rho (up, down):  6.394E-04 4.301E-02

     total cpu time spent up to now is    53193.1 secs

     total energy              =    -860.04249970 Ry
     Harris-Foulkes estimate   =    -860.04267092 Ry
     estimated scf accuracy    <       0.00174703 Ry

     total magnetization       =     2.00 Bohr mag/cell
     absolute magnetization    =     2.31 Bohr mag/cell

     iteration #394     ecut=    70.00 Ry     beta= 0.30
     Davidson diagonalization with overlap
     ethr =  1.66E-07,  avg # of iterations =  3.0

     negative rho (up, down):  6.428E-04 1.005E-01

     total cpu time spent up to now is    53317.9 secs

     total energy              =    -860.04141306 Ry
     Harris-Foulkes estimate   =    -860.04399551 Ry
     estimated scf accuracy    <       0.01252657 Ry

     total magnetization       =     2.00 Bohr mag/cell
     absolute magnetization    =     2.34 Bohr mag/cell

     iteration #395     ecut=    70.00 Ry     beta= 0.30
     Davidson diagonalization with overlap
     ethr =  1.66E-07,  avg # of iterations =  3.0

     negative rho (up, down):  6.394E-04 5.850E-02

     total cpu time spent up to now is    53442.5 secs

     total energy              =    -860.04286991 Ry
     Harris-Foulkes estimate   =    -860.04295561 Ry
     estimated scf accuracy    <       0.00143116 Ry

     total magnetization       =     2.00 Bohr mag/cell
     absolute magnetization    =     2.32 Bohr mag/cell

     iteration #396     ecut=    70.00 Ry     beta= 0.30
     Davidson diagonalization with overlap
     ethr =  1.66E-07,  avg # of iterations =  3.0

     negative rho (up, down):  6.453E-04 7.152E-02

     total cpu time spent up to now is    53556.3 secs

     total energy              =    -860.04316380 Ry
     Harris-Foulkes estimate   =    -860.04349580 Ry
     estimated scf accuracy    <       0.00631516 Ry

     total magnetization       =     2.00 Bohr mag/cell
     absolute magnetization    =     2.31 Bohr mag/cell

     iteration #397     ecut=    70.00 Ry     beta= 0.30
     Davidson diagonalization with overlap
     ethr =  1.66E-07,  avg # of iterations =  2.0

     negative rho (up, down):  6.455E-04 7.894E-02

     total cpu time spent up to now is    53662.3 secs

     total energy              =    -860.04322809 Ry
     Harris-Foulkes estimate   =    -860.04334054 Ry
     estimated scf accuracy    <       0.00186941 Ry

     total magnetization       =     2.00 Bohr mag/cell
     absolute magnetization    =     2.32 Bohr mag/cell

     iteration #398     ecut=    70.00 Ry     beta= 0.30
     Davidson diagonalization with overlap
     ethr =  1.66E-07,  avg # of iterations =  2.0

     negative rho (up, down):  6.433E-04 6.725E-02

     total cpu time spent up to now is    53755.9 secs

     total energy              =    -860.04342514 Ry
     Harris-Foulkes estimate   =    -860.04324424 Ry
     estimated scf accuracy    <       0.00242641 Ry

     total magnetization       =     2.00 Bohr mag/cell
     absolute magnetization    =     2.32 Bohr mag/cell

     iteration #399     ecut=    70.00 Ry     beta= 0.30
     Davidson diagonalization with overlap
     ethr =  1.66E-07,  avg # of iterations =  2.5

     negative rho (up, down):  6.442E-04 9.536E-02

     total cpu time spent up to now is    53865.4 secs

     total energy              =    -860.04329398 Ry
     Harris-Foulkes estimate   =    -860.04390453 Ry
     estimated scf accuracy    <       0.00452610 Ry

     total magnetization       =     2.00 Bohr mag/cell
     absolute magnetization    =     2.29 Bohr mag/cell

     iteration #400     ecut=    70.00 Ry     beta= 0.30
     Davidson diagonalization with overlap
     ethr =  1.66E-07,  avg # of iterations =  3.0

     negative rho (up, down):  6.414E-04 6.973E-02

     Magnetic moment per site:
     atom:    1    charge:    0.2109    magn:    0.0043    constr:    0.0000
     atom:    2    charge:    0.2109    magn:    0.0043    constr:    0.0000
     atom:    3    charge:    1.7159    magn:   -0.0030    constr:    0.0000
     atom:    4    charge:    1.7159    magn:    0.0078    constr:    0.0000
     atom:    5    charge:    1.7170    magn:    0.0006    constr:    0.0000
     atom:    6    charge:    1.7147    magn:    0.0014    constr:    0.0000
     atom:    7    charge:    1.7169    magn:    0.0008    constr:    0.0000
     atom:    8    charge:    1.7159    magn:    0.0078    constr:    0.0000
     atom:    9    charge:    1.7160    magn:   -0.0032    constr:    0.0000
     atom:   10    charge:    1.7173    magn:    0.0293    constr:    0.0000
     atom:   11    charge:    1.7158    magn:   -0.0074    constr:    0.0000
     atom:   12    charge:    1.7172    magn:    0.0295    constr:    0.0000
     atom:   13    charge:    1.7159    magn:   -0.0077    constr:    0.0000
     atom:   14    charge:    1.7172    magn:    0.0232    constr:    0.0000
     atom:   15    charge:    1.7127    magn:   -0.0043    constr:    0.0000
     atom:   16    charge:    1.7145    magn:    0.0254    constr:    0.0000
     atom:   17    charge:    1.7205    magn:    0.0070    constr:    0.0000
     atom:   18    charge:    1.7149    magn:    0.0242    constr:    0.0000
     atom:   19    charge:    1.7127    magn:   -0.0040    constr:    0.0000
     atom:   20    charge:    1.7174    magn:    0.0222    constr:    0.0000
     atom:   21    charge:    1.7159    magn:   -0.0076    constr:    0.0000
     atom:   22    charge:    1.7175    magn:    0.0302    constr:    0.0000
     atom:   23    charge:    1.7160    magn:   -0.0031    constr:    0.0000
     atom:   24    charge:    1.7160    magn:    0.0078    constr:    0.0000
     atom:   25    charge:    1.7128    magn:   -0.0044    constr:    0.0000
     atom:   26    charge:    1.7146    magn:    0.0259    constr:    0.0000
     atom:   27    charge:    1.8514    magn:    0.0011    constr:    0.0000
     atom:   28    charge:   11.1631    magn:    0.5216    constr:    0.0000
     atom:   29    charge:    1.8512    magn:    0.0030    constr:    0.0000
     atom:   30    charge:    1.7148    magn:    0.0252    constr:    0.0000
     atom:   31    charge:    1.7128    magn:   -0.0043    constr:    0.0000
     atom:   32    charge:    1.7160    magn:    0.0078    constr:    0.0000
     atom:   33    charge:    1.7169    magn:    0.0007    constr:    0.0000
     atom:   34    charge:    1.7154    magn:    0.0041    constr:    0.0000
     atom:   35    charge:    1.7170    magn:    0.0005    constr:    0.0000
     atom:   36    charge:    1.7148    magn:    0.0013    constr:    0.0000
     atom:   37    charge:    1.7205    magn:    0.0070    constr:    0.0000
     atom:   38    charge:    1.7152    magn:    0.0247    constr:    0.0000
     atom:   39    charge:    1.8513    magn:   -0.0016    constr:    0.0000
     atom:   40    charge:    1.7150    magn:    0.0251    constr:    0.0000
     atom:   41    charge:    1.7202    magn:    0.0077    constr:    0.0000
     atom:   42    charge:    1.7148    magn:    0.0012    constr:    0.0000
     atom:   43    charge:    1.7169    magn:    0.0009    constr:    0.0000
     atom:   44    charge:    1.7154    magn:    0.0040    constr:    0.0000
     atom:   45    charge:    1.7207    magn:    0.0171    constr:    0.0000
     atom:   46    charge:    1.7154    magn:    0.0038    constr:    0.0000
     atom:   47    charge:    1.7169    magn:    0.0009    constr:    0.0000
     atom:   48    charge:    1.7159    magn:    0.0077    constr:    0.0000
     atom:   49    charge:    1.7127    magn:   -0.0042    constr:    0.0000
     atom:   50    charge:    1.7177    magn:    0.0224    constr:    0.0000
     atom:   51    charge:    1.7128    magn:   -0.0044    constr:    0.0000
     atom:   52    charge:    1.7159    magn:    0.0077    constr:    0.0000

     total cpu time spent up to now is    53977.6 secs

     total energy              =    -860.04376706 Ry
     Harris-Foulkes estimate   =    -860.04381399 Ry
     estimated scf accuracy    <       0.00299112 Ry

     total magnetization       =     2.00 Bohr mag/cell
     absolute magnetization    =     2.33 Bohr mag/cell

     End of self-consistent calculation

     convergence NOT achieved after 400 iterations: stopping

     Writing output data file Hierro-top-distance-2.6.save/

     init_run     :     73.05s CPU     74.20s WALL (       1 calls)
     electrons    :  53125.13s CPU  53902.47s WALL (       1 calls)

     Called by init_run:
     wfcinit      :     41.42s CPU     41.64s WALL (       1 calls)
     wfcinit:atom :      0.06s CPU      0.08s WALL (       2 calls)
     wfcinit:wfcr :     41.00s CPU     41.16s WALL (       2 calls)
     potinit      :     13.07s CPU     13.51s WALL (       1 calls)
     hinit0       :     10.16s CPU     10.19s WALL (       1 calls)

     Called by electrons:
     c_bands      :  38613.72s CPU  38782.87s WALL (     400 calls)
     sum_band     :   8410.28s CPU   8641.81s WALL (     400 calls)
     v_of_rho     :   2920.41s CPU   3082.12s WALL (     401 calls)
     v_h          :     30.48s CPU     31.45s WALL (     401 calls)
     v_xc         :   2889.92s CPU   3050.67s WALL (     401 calls)
     newd         :   2944.96s CPU   3155.73s WALL (     401 calls)
     mix_rho      :    156.71s CPU    159.53s WALL (     400 calls)

     Called by c_bands:
     init_us_2    :     73.47s CPU     73.61s WALL (    1602 calls)
     cegterg      :  38406.46s CPU  38574.95s WALL (     800 calls)

     Called by sum_band:
     sum_band:bec :      0.64s CPU      0.65s WALL (     800 calls)
     addusdens    :   5248.80s CPU   5463.01s WALL (     400 calls)

     Called by *egterg:
     h_psi        :  17473.22s CPU  17592.45s WALL (    3741 calls)
     s_psi        :   5850.08s CPU   5851.29s WALL (    3741 calls)
     g_psi        :     22.41s CPU     22.47s WALL (    2939 calls)
     cdiaghg      :    375.97s CPU    376.03s WALL (    3739 calls)
     cegterg:over :   6173.31s CPU   6174.43s WALL (    2939 calls)
     cegterg:upda :   4043.13s CPU   4057.40s WALL (    2939 calls)
     cegterg:last :   3064.27s CPU   3064.54s WALL (     986 calls)

     Called by h_psi:
     h_psi:pot    :  17450.45s CPU  17547.28s WALL (    3741 calls)
     h_psi:calbec :   5892.76s CPU   5894.40s WALL (    3741 calls)
     vloc_psi     :   5715.55s CPU   5809.81s WALL (    3741 calls)
     add_vuspsi   :   5842.08s CPU   5843.05s WALL (    3741 calls)

     General routines
     calbec       :   7831.01s CPU   7833.19s WALL (    4541 calls)
     fft          :   1677.56s CPU   1740.06s WALL (   30073 calls)
     ffts         :     29.11s CPU     30.06s WALL (    1602 calls)
     fftw         :   5770.24s CPU   5867.98s WALL (  727966 calls)
     interpolate  :     68.84s CPU     70.75s WALL (     802 calls)
     davcio       :      0.01s CPU      0.08s WALL (      12 calls)

     Parallel routines
     fft_scatt_xy :   1371.96s CPU   1390.19s WALL (  759641 calls)
     fft_scatt_yz :   2370.93s CPU   2480.73s WALL (  759641 calls)

     PWSCF        :     14h46m CPU     14h59m WALL


   This run was terminated on:   1:33: 7  16Jan2023            

=------------------------------------------------------------------------------=
   JOB DONE.
=------------------------------------------------------------------------------=
