
     Program PWSCF v.6.4.1 starts on  8Jan2023 at 10:37: 3 

     This program is part of the open-source Quantum ESPRESSO suite
     for quantum simulation of materials; please cite
         "P. Giannozzi et al., J. Phys.:Condens. Matter 21 395502 (2009);
         "P. Giannozzi et al., J. Phys.:Condens. Matter 29 465901 (2017);
          URL http://www.quantum-espresso.org", 
     in publications or presentations arising from this work. More details at
     http://www.quantum-espresso.org/quote

     Parallel version (MPI), running on     6 processors

     MPI processes distributed on     1 nodes
     R & G space division:  proc/nbgrp/npool/nimage =       6
     Reading input from distance-3.0.in

     Current dimensions of program PWSCF are:
     Max number of different atomic species (ntypx) = 10
     Max number of k-points (npk) =  40000
     Max angular momentum in pseudopotentials (lmaxx) =  3

     IMPORTANT: XC functional enforced from input :
     Exchange-correlation      = RVV10 ( 1  4 13  4 3 0)
     Any further DFT definition will be discarded
     Please, verify this is what you really want

               file H.pbe-rrkjus.UPF: wavefunction(s)  1S renormalized

     Subspace diagonalization in iterative solution of the eigenvalue problem:
     a serial algorithm will be used


     Parallelization info
     --------------------
     sticks:   dense  smooth     PW     G-vecs:    dense   smooth      PW
     Min        3051    1746    432               270999   117096   14629
     Max        3053    1747    437               271001   117099   14630
     Sum       18313   10477   2611              1626001   702581   87777



     bravais-lattice index     =            4
     lattice parameter (alat)  =      23.2937  a.u.
     unit-cell volume          =    8879.8548 (a.u.)^3
     number of atoms/cell      =           52
     number of atomic types    =            3
     number of electrons       =       214.00
     number of Kohn-Sham states=          128
     kinetic-energy cutoff     =      70.0000  Ry
     charge density cutoff     =     490.0000  Ry
     convergence threshold     =      1.0E-06
     mixing beta               =       0.3000
     number of iterations used =            4  plain     mixing
     Exchange-correlation      = RVV10 ( 1  4 13  4 3 0)

     celldm(1)=  23.293684  celldm(2)=   0.000000  celldm(3)=   0.811261
     celldm(4)=   0.000000  celldm(5)=   0.000000  celldm(6)=   0.000000

     crystal axes: (cart. coord. in units of alat)
               a(1) = (   1.000000   0.000000   0.000000 )  
               a(2) = (  -0.500000   0.866025   0.000000 )  
               a(3) = (   0.000000   0.000000   0.811261 )  

     reciprocal axes: (cart. coord. in units 2 pi/alat)
               b(1) = (  1.000000  0.577350 -0.000000 )  
               b(2) = (  0.000000  1.154701  0.000000 )  
               b(3) = (  0.000000 -0.000000  1.232649 )  


     PseudoPot. # 1 for H  read from file:
     /home/cristian/Escritorio/Proyecto_Grafeno/pseudopotenciales/H.pbe-rrkjus.UPF
     MD5 check sum: 7cc9d459525c9a0585f487a71c3c9563
     Pseudo is Ultrasoft, Zval =  1.0
     Generated by new atomic code, or converted to UPF format
     Using radial grid of 1061 points,  2 beta functions with: 
                l(1) =   0
                l(2) =   0
     Q(r) pseudized with 0 coefficients 


     PseudoPot. # 2 for C  read from file:
     /home/cristian/Escritorio/Proyecto_Grafeno/pseudopotenciales/C.pbe-n-rrkjus_psl.1.0.0.UPF
     MD5 check sum: 1fdd950c42eb37d8afe3dd2f8d12311e
     Pseudo is Ultrasoft + core correction, Zval =  4.0
     Generated using "atomic" code by A. Dal Corso v.6.3MaX
     Using radial grid of 1073 points,  4 beta functions with: 
                l(1) =   0
                l(2) =   0
                l(3) =   1
                l(4) =   1
     Q(r) pseudized with 0 coefficients 


     PseudoPot. # 3 for Fe read from file:
     /home/cristian/Escritorio/Proyecto_Grafeno/pseudopotenciales/Fe.pbe-spn-rrkjus_psl.1.0.0.UPF
     MD5 check sum: 72ea77fed8e64ab3a2ccf2804dfc1862
     Pseudo is Ultrasoft + core correction, Zval = 16.0
     Generated using "atomic" code by A. Dal Corso v.6.3
     Using radial grid of 1191 points,  6 beta functions with: 
                l(1) =   0
                l(2) =   0
                l(3) =   1
                l(4) =   1
                l(5) =   2
                l(6) =   2
     Q(r) pseudized with 0 coefficients 


     vdW kernel table read from file rVV10_kernel_table
     MD5 check sum: b8e2538accc0c0b3206b45ba4daaba6c

     atomic species   valence    mass     pseudopotential
        H              1.00     1.00794     H ( 1.00)
        C              4.00    12.01070     C ( 1.00)
        Fe            16.00    55.84500     Fe( 1.00)

     Starting magnetic structure 
     atomic species   magnetization
        H            0.500
        C            0.300
        Fe           0.800

     No symmetry found


                                    s                        frac. trans.

      isym =  1     identity                                     

 cryst.   s( 1) = (     1          0          0      )
                  (     0          1          0      )
                  (     0          0          1      )

 cart.    s( 1) = (  1.0000000  0.0000000  0.0000000 )
                  (  0.0000000  1.0000000  0.0000000 )
                  (  0.0000000  0.0000000  1.0000000 )


     point group C_1 (1)    
     there are  1 classes
     the character table:

       E    
A      1.00

     the symmetry operations in each class and the name of the first element:

     E        1
          identity                                               

   Cartesian axes

     site n.     atom                  positions (alat units)
         1           H   tau(   1) = (   0.1694937   0.4618802   0.2433783  )
         2           H   tau(   2) = (   0.2305063   0.4618802   0.2433783  )
         3           C   tau(   3) = (   0.0000000   0.0000000   0.0000000  )
         4           C   tau(   4) = (   0.0000000   0.1154701   0.0000000  )
         5           C   tau(   5) = (  -0.1000000   0.1732051   0.0000000  )
         6           C   tau(   6) = (  -0.1000000   0.2886751   0.0000000  )
         7           C   tau(   7) = (  -0.2000000   0.3464102   0.0000000  )
         8           C   tau(   8) = (  -0.2000000   0.4618802   0.0000000  )
         9           C   tau(   9) = (  -0.3000000   0.5196152   0.0000000  )
        10           C   tau(  10) = (  -0.3000000   0.6350853   0.0000000  )
        11           C   tau(  11) = (  -0.4000000   0.6928203   0.0000000  )
        12           C   tau(  12) = (  -0.4000000   0.8082904   0.0000000  )
        13           C   tau(  13) = (   0.2000000   0.0000000   0.0000000  )
        14           C   tau(  14) = (   0.2000000   0.1154701   0.0000000  )
        15           C   tau(  15) = (   0.1000000   0.1732051   0.0000000  )
        16           C   tau(  16) = (   0.1000000   0.2886751   0.0000000  )
        17           C   tau(  17) = (   0.0000000   0.3464102   0.0000000  )
        18           C   tau(  18) = (   0.0000000   0.4618802   0.0000000  )
        19           C   tau(  19) = (  -0.1000000   0.5196152   0.0000000  )
        20           C   tau(  20) = (  -0.1000000   0.6350853   0.0000000  )
        21           C   tau(  21) = (  -0.2000000   0.6928203   0.0000000  )
        22           C   tau(  22) = (  -0.2000000   0.8082904   0.0000000  )
        23           C   tau(  23) = (   0.4000000   0.0000000   0.0000000  )
        24           C   tau(  24) = (   0.4000000   0.1154701   0.0000000  )
        25           C   tau(  25) = (   0.3000000   0.1732051   0.0000000  )
        26           C   tau(  26) = (   0.3000000   0.2886751   0.0000000  )
        27           C   tau(  27) = (   0.2000000   0.3464102   0.0000000  )
        28           Fe  tau(  28) = (   0.2000000   0.4618802   0.0000000  )
        29           C   tau(  29) = (   0.1000000   0.5196152   0.0000000  )
        30           C   tau(  30) = (   0.1000000   0.6350853   0.0000000  )
        31           C   tau(  31) = (   0.0000000   0.6928203   0.0000000  )
        32           C   tau(  32) = (   0.0000000   0.8082904   0.0000000  )
        33           C   tau(  33) = (   0.6000000   0.0000000   0.0000000  )
        34           C   tau(  34) = (   0.6000000   0.1154701   0.0000000  )
        35           C   tau(  35) = (   0.5000000   0.1732051   0.0000000  )
        36           C   tau(  36) = (   0.5000000   0.2886751   0.0000000  )
        37           C   tau(  37) = (   0.4000000   0.3464102   0.0000000  )
        38           C   tau(  38) = (   0.4000000   0.4618802   0.0000000  )
        39           C   tau(  39) = (   0.3000000   0.5196152   0.0000000  )
        40           C   tau(  40) = (   0.3000000   0.6350853   0.0000000  )
        41           C   tau(  41) = (   0.2000000   0.6928203   0.0000000  )
        42           C   tau(  42) = (   0.2000000   0.8082904   0.0000000  )
        43           C   tau(  43) = (   0.8000000   0.0000000   0.0000000  )
        44           C   tau(  44) = (   0.8000000   0.1154701   0.0000000  )
        45           C   tau(  45) = (   0.7000000   0.1732051   0.0000000  )
        46           C   tau(  46) = (   0.7000000   0.2886751   0.0000000  )
        47           C   tau(  47) = (   0.6000000   0.3464102   0.0000000  )
        48           C   tau(  48) = (   0.6000000   0.4618802   0.0000000  )
        49           C   tau(  49) = (   0.5000000   0.5196152   0.0000000  )
        50           C   tau(  50) = (   0.5000000   0.6350853   0.0000000  )
        51           C   tau(  51) = (   0.4000000   0.6928203   0.0000000  )
        52           C   tau(  52) = (   0.4000000   0.8082904   0.0000000  )

   Crystallographic axes

     site n.     atom                  positions (cryst. coord.)
         1           H   tau(   1) = (  0.4361603  0.5333333  0.3000000  )
         2           H   tau(   2) = (  0.4971730  0.5333333  0.3000000  )
         3           C   tau(   3) = (  0.0000000  0.0000000  0.0000000  )
         4           C   tau(   4) = (  0.0666667  0.1333333  0.0000000  )
         5           C   tau(   5) = (  0.0000000  0.2000000  0.0000000  )
         6           C   tau(   6) = (  0.0666667  0.3333333  0.0000000  )
         7           C   tau(   7) = (  0.0000000  0.4000000  0.0000000  )
         8           C   tau(   8) = (  0.0666667  0.5333333  0.0000000  )
         9           C   tau(   9) = (  0.0000000  0.6000000  0.0000000  )
        10           C   tau(  10) = (  0.0666667  0.7333333  0.0000000  )
        11           C   tau(  11) = (  0.0000000  0.8000000  0.0000000  )
        12           C   tau(  12) = (  0.0666667  0.9333333  0.0000000  )
        13           C   tau(  13) = (  0.2000000  0.0000000  0.0000000  )
        14           C   tau(  14) = (  0.2666667  0.1333333  0.0000000  )
        15           C   tau(  15) = (  0.2000000  0.2000000  0.0000000  )
        16           C   tau(  16) = (  0.2666667  0.3333333  0.0000000  )
        17           C   tau(  17) = (  0.2000000  0.4000000  0.0000000  )
        18           C   tau(  18) = (  0.2666667  0.5333333  0.0000000  )
        19           C   tau(  19) = (  0.2000000  0.6000000  0.0000000  )
        20           C   tau(  20) = (  0.2666667  0.7333333  0.0000000  )
        21           C   tau(  21) = (  0.2000000  0.8000000  0.0000000  )
        22           C   tau(  22) = (  0.2666667  0.9333333  0.0000000  )
        23           C   tau(  23) = (  0.4000000  0.0000000  0.0000000  )
        24           C   tau(  24) = (  0.4666667  0.1333333  0.0000000  )
        25           C   tau(  25) = (  0.4000000  0.2000000  0.0000000  )
        26           C   tau(  26) = (  0.4666667  0.3333333  0.0000000  )
        27           C   tau(  27) = (  0.4000000  0.4000000  0.0000000  )
        28           Fe  tau(  28) = (  0.4666667  0.5333333  0.0000000  )
        29           C   tau(  29) = (  0.4000000  0.6000000  0.0000000  )
        30           C   tau(  30) = (  0.4666667  0.7333333  0.0000000  )
        31           C   tau(  31) = (  0.4000000  0.8000000  0.0000000  )
        32           C   tau(  32) = (  0.4666667  0.9333333  0.0000000  )
        33           C   tau(  33) = (  0.6000000  0.0000000  0.0000000  )
        34           C   tau(  34) = (  0.6666667  0.1333333  0.0000000  )
        35           C   tau(  35) = (  0.6000000  0.2000000  0.0000000  )
        36           C   tau(  36) = (  0.6666667  0.3333333  0.0000000  )
        37           C   tau(  37) = (  0.6000000  0.4000000  0.0000000  )
        38           C   tau(  38) = (  0.6666667  0.5333333  0.0000000  )
        39           C   tau(  39) = (  0.6000000  0.6000000  0.0000000  )
        40           C   tau(  40) = (  0.6666667  0.7333333  0.0000000  )
        41           C   tau(  41) = (  0.6000000  0.8000000  0.0000000  )
        42           C   tau(  42) = (  0.6666667  0.9333333  0.0000000  )
        43           C   tau(  43) = (  0.8000000  0.0000000  0.0000000  )
        44           C   tau(  44) = (  0.8666667  0.1333333  0.0000000  )
        45           C   tau(  45) = (  0.8000000  0.2000000  0.0000000  )
        46           C   tau(  46) = (  0.8666667  0.3333333  0.0000000  )
        47           C   tau(  47) = (  0.8000000  0.4000000  0.0000000  )
        48           C   tau(  48) = (  0.8666667  0.5333333  0.0000000  )
        49           C   tau(  49) = (  0.8000000  0.6000000  0.0000000  )
        50           C   tau(  50) = (  0.8666667  0.7333333  0.0000000  )
        51           C   tau(  51) = (  0.8000000  0.8000000  0.0000000  )
        52           C   tau(  52) = (  0.8666667  0.9333333  0.0000000  )

     number of k points=     1  Marzari-Vanderbilt smearing, width (Ry)=  0.0010
                       cart. coord. in units 2pi/alat
        k(    1) = (   0.0000000   0.0000000   0.0000000), wk =   1.0000000

                       cryst. coord.
        k(    1) = (   0.0000000   0.0000000   0.0000000), wk =   1.0000000

     Dense  grid:  1626001 G-vectors     FFT dimensions: ( 180, 180, 135)

     Smooth grid:   702581 G-vectors     FFT dimensions: ( 125, 125, 108)

     Dynamical RAM for                 wfc:      28.59 MB

     Dynamical RAM for     wfc (w. buffer):      85.76 MB

     Dynamical RAM for           str. fact:      12.41 MB

     Dynamical RAM for           local pot:       0.00 MB

     Dynamical RAM for          nlocal pot:      92.46 MB

     Dynamical RAM for                qrad:      19.73 MB

     Dynamical RAM for          rho,v,vnew:      58.92 MB

     Dynamical RAM for               rhoin:      19.64 MB

     Dynamical RAM for            rho*nmix:      66.16 MB

     Dynamical RAM for           G-vectors:      16.40 MB

     Dynamical RAM for          h,s,v(r/c):      12.00 MB

     Dynamical RAM for          <psi|beta>:       0.81 MB

     Dynamical RAM for                 psi:     114.35 MB

     Dynamical RAM for                hpsi:     114.35 MB

     Dynamical RAM for                spsi:     114.35 MB

     Dynamical RAM for      wfcinit/wfcrot:      93.90 MB

     Dynamical RAM for           addusdens:     975.89 MB

     Estimated static dynamical RAM per process >     422.14 MB

     Estimated max dynamical RAM per process >       1.37 GB

     Estimated total dynamical RAM >       8.19 GB
     Generating pointlists ...
     new r_m :   0.0252 (alat units)  0.5862 (a.u.) for type    1
     new r_m :   0.0476 (alat units)  1.1095 (a.u.) for type    2
     new r_m :   0.0476 (alat units)  1.1095 (a.u.) for type    3

     Check: negative core charge=   -0.000002

     Initial potential from superposition of free atoms

     starting charge  213.80512, renormalised to  214.00000

     negative rho (up, down):  5.966E-05 1.057E-02


---------------------------------------------------------------------------------
Carrying out rVV10 run using the following parameters:
Nqs =      20    Nr_points =    1024   r_max =   100.000
b_value =  6.30000    beta =  0.00901
     q_mesh =  0.00010000  0.00030000  0.00058939  0.00100810
               0.00161396  0.00249058  0.00375900  0.00559430
               0.00824984  0.01209221  0.01765183  0.02569619
               0.03733578  0.05417739  0.07854596  0.11380545
               0.16482331  0.23864234  0.34545298  0.50000000

Gradients computed in Reciprocal space

---------------------------------------------------------------------------------


     Starting wfcs are  208 randomized atomic wfcs

     total cpu time spent up to now is       76.6 secs

     Self-consistent Calculation

     iteration #  1     ecut=    70.00 Ry     beta= 0.30
     Davidson diagonalization with overlap
     ethr =  1.00E-02,  avg # of iterations =  2.5

     negative rho (up, down):  7.520E-05 1.059E-02

     total cpu time spent up to now is      206.1 secs

     total energy              =    -858.02426287 Ry
     Harris-Foulkes estimate   =    -858.62691768 Ry
     estimated scf accuracy    <      10.24413283 Ry

     total magnetization       =     6.00 Bohr mag/cell
     absolute magnetization    =     6.64 Bohr mag/cell

     iteration #  2     ecut=    70.00 Ry     beta= 0.30
     Davidson diagonalization with overlap
     ethr =  4.79E-03,  avg # of iterations =  2.0

     negative rho (up, down):  1.027E-04 1.118E-02

     total cpu time spent up to now is      299.0 secs

     total energy              =    -858.41957440 Ry
     Harris-Foulkes estimate   =    -858.68642957 Ry
     estimated scf accuracy    <       5.16893364 Ry

     total magnetization       =     4.00 Bohr mag/cell
     absolute magnetization    =     5.60 Bohr mag/cell

     iteration #  3     ecut=    70.00 Ry     beta= 0.30
     Davidson diagonalization with overlap
     ethr =  2.42E-03,  avg # of iterations =  2.5

     negative rho (up, down):  1.843E-04 2.266E-02

     total cpu time spent up to now is      394.4 secs

     total energy              =    -858.66596498 Ry
     Harris-Foulkes estimate   =    -859.59831849 Ry
     estimated scf accuracy    <       9.78040400 Ry

     total magnetization       =     6.00 Bohr mag/cell
     absolute magnetization    =     6.16 Bohr mag/cell

     iteration #  4     ecut=    70.00 Ry     beta= 0.30
     Davidson diagonalization with overlap
     ethr =  2.42E-03,  avg # of iterations =  4.0

     negative rho (up, down):  2.413E-04 3.377E-02

     total cpu time spent up to now is      489.8 secs

     total energy              =    -859.83312813 Ry
     Harris-Foulkes estimate   =    -859.59700670 Ry
     estimated scf accuracy    <       0.88597061 Ry

     total magnetization       =     2.00 Bohr mag/cell
     absolute magnetization    =     3.46 Bohr mag/cell

     iteration #  5     ecut=    70.00 Ry     beta= 0.30
     Davidson diagonalization with overlap
     ethr =  4.14E-04,  avg # of iterations =  8.5

     negative rho (up, down):  2.911E-04 4.107E-02

     total cpu time spent up to now is      591.5 secs

     total energy              =    -859.97147058 Ry
     Harris-Foulkes estimate   =    -859.93357970 Ry
     estimated scf accuracy    <       0.49249436 Ry

     total magnetization       =     2.00 Bohr mag/cell
     absolute magnetization    =     3.00 Bohr mag/cell

     iteration #  6     ecut=    70.00 Ry     beta= 0.30
     Davidson diagonalization with overlap
     c_bands:  4 eigenvalues not converged
     ethr =  2.30E-04,  avg # of iterations = 13.0

     negative rho (up, down):  4.884E-04 6.595E-02

     total cpu time spent up to now is      693.0 secs

     total energy              =    -860.02298048 Ry
     Harris-Foulkes estimate   =    -860.00832107 Ry
     estimated scf accuracy    <       0.14910323 Ry

     total magnetization       =     2.00 Bohr mag/cell
     absolute magnetization    =     2.84 Bohr mag/cell

     iteration #  7     ecut=    70.00 Ry     beta= 0.30
     Davidson diagonalization with overlap
     ethr =  6.97E-05,  avg # of iterations =  4.5

     negative rho (up, down):  2.808E-03 1.006E-01

     total cpu time spent up to now is      788.3 secs

     total energy              =    -860.03742740 Ry
     Harris-Foulkes estimate   =    -860.04202998 Ry
     estimated scf accuracy    <       0.14254424 Ry

     total magnetization       =     2.00 Bohr mag/cell
     absolute magnetization    =     2.74 Bohr mag/cell

     iteration #  8     ecut=    70.00 Ry     beta= 0.30
     Davidson diagonalization with overlap
     ethr =  6.66E-05,  avg # of iterations =  4.5

     negative rho (up, down):  1.916E-03 8.296E-02

     total cpu time spent up to now is      883.6 secs

     total energy              =    -860.04202223 Ry
     Harris-Foulkes estimate   =    -860.04447054 Ry
     estimated scf accuracy    <       0.05506607 Ry

     total magnetization       =     2.03 Bohr mag/cell
     absolute magnetization    =     2.65 Bohr mag/cell

     iteration #  9     ecut=    70.00 Ry     beta= 0.30
     Davidson diagonalization with overlap
     ethr =  2.57E-05,  avg # of iterations =  2.0

     negative rho (up, down):  2.630E-03 8.942E-02

     total cpu time spent up to now is      976.4 secs

     total energy              =    -860.04372629 Ry
     Harris-Foulkes estimate   =    -860.04720051 Ry
     estimated scf accuracy    <       0.12446077 Ry

     total magnetization       =     0.87 Bohr mag/cell
     absolute magnetization    =     2.45 Bohr mag/cell

     iteration # 10     ecut=    70.00 Ry     beta= 0.30
     Davidson diagonalization with overlap
     ethr =  2.57E-05,  avg # of iterations =  1.0

     negative rho (up, down):  2.293E-03 8.663E-02

     total cpu time spent up to now is     1068.4 secs

     total energy              =    -860.04563173 Ry
     Harris-Foulkes estimate   =    -860.04551842 Ry
     estimated scf accuracy    <       0.03120946 Ry

     total magnetization       =     2.08 Bohr mag/cell
     absolute magnetization    =     2.67 Bohr mag/cell

     iteration # 11     ecut=    70.00 Ry     beta= 0.30
     Davidson diagonalization with overlap
     ethr =  1.46E-05,  avg # of iterations =  6.5

     negative rho (up, down):  1.385E-03 6.025E-02

     total cpu time spent up to now is     1163.0 secs

     total energy              =    -860.04735066 Ry
     Harris-Foulkes estimate   =    -860.04650730 Ry
     estimated scf accuracy    <       0.01550865 Ry

     total magnetization       =     2.15 Bohr mag/cell
     absolute magnetization    =     2.66 Bohr mag/cell

     iteration # 12     ecut=    70.00 Ry     beta= 0.30
     Davidson diagonalization with overlap
     ethr =  7.25E-06,  avg # of iterations =  2.5

     negative rho (up, down):  1.107E-03 5.624E-02

     total cpu time spent up to now is     1256.4 secs

     total energy              =    -860.04891743 Ry
     Harris-Foulkes estimate   =    -860.04818728 Ry
     estimated scf accuracy    <       0.02128678 Ry

     total magnetization       =     2.11 Bohr mag/cell
     absolute magnetization    =     2.66 Bohr mag/cell

     iteration # 13     ecut=    70.00 Ry     beta= 0.30
     Davidson diagonalization with overlap
     ethr =  7.25E-06,  avg # of iterations =  2.5

     negative rho (up, down):  1.401E-03 8.654E-02

     total cpu time spent up to now is     1350.8 secs

     total energy              =    -860.04805437 Ry
     Harris-Foulkes estimate   =    -860.04917917 Ry
     estimated scf accuracy    <       0.01432353 Ry

     total magnetization       =     2.03 Bohr mag/cell
     absolute magnetization    =     2.58 Bohr mag/cell

     iteration # 14     ecut=    70.00 Ry     beta= 0.30
     Davidson diagonalization with overlap
     ethr =  6.69E-06,  avg # of iterations =  2.0

     negative rho (up, down):  1.270E-03 7.834E-02

     total cpu time spent up to now is     1444.6 secs

     total energy              =    -860.04890263 Ry
     Harris-Foulkes estimate   =    -860.04830828 Ry
     estimated scf accuracy    <       0.02345994 Ry

     total magnetization       =     2.12 Bohr mag/cell
     absolute magnetization    =     2.62 Bohr mag/cell

     iteration # 15     ecut=    70.00 Ry     beta= 0.30
     Davidson diagonalization with overlap
     ethr =  6.69E-06,  avg # of iterations =  2.0

     negative rho (up, down):  1.549E-03 9.810E-02

     total cpu time spent up to now is     1537.9 secs

     total energy              =    -860.04815199 Ry
     Harris-Foulkes estimate   =    -860.04921844 Ry
     estimated scf accuracy    <       0.01658137 Ry

     total magnetization       =     2.08 Bohr mag/cell
     absolute magnetization    =     2.56 Bohr mag/cell

     iteration # 16     ecut=    70.00 Ry     beta= 0.30
     Davidson diagonalization with overlap
     ethr =  6.69E-06,  avg # of iterations =  1.0

     negative rho (up, down):  1.503E-03 1.010E-01

     total cpu time spent up to now is     1630.0 secs

     total energy              =    -860.04797628 Ry
     Harris-Foulkes estimate   =    -860.04831911 Ry
     estimated scf accuracy    <       0.01155254 Ry

     total magnetization       =     2.05 Bohr mag/cell
     absolute magnetization    =     2.59 Bohr mag/cell

     iteration # 17     ecut=    70.00 Ry     beta= 0.30
     Davidson diagonalization with overlap
     ethr =  5.40E-06,  avg # of iterations =  1.0

     negative rho (up, down):  1.125E-03 9.657E-02

     total cpu time spent up to now is     1722.1 secs

     total energy              =    -860.04827394 Ry
     Harris-Foulkes estimate   =    -860.04807546 Ry
     estimated scf accuracy    <       0.00158463 Ry

     total magnetization       =     2.00 Bohr mag/cell
     absolute magnetization    =     2.60 Bohr mag/cell

     iteration # 18     ecut=    70.00 Ry     beta= 0.30
     Davidson diagonalization with overlap
     ethr =  7.40E-07,  avg # of iterations =  3.0

     negative rho (up, down):  9.155E-04 7.767E-02

     total cpu time spent up to now is     1816.9 secs

     total energy              =    -860.04886697 Ry
     Harris-Foulkes estimate   =    -860.04858965 Ry
     estimated scf accuracy    <       0.00765222 Ry

     total magnetization       =     2.00 Bohr mag/cell
     absolute magnetization    =     2.57 Bohr mag/cell

     iteration # 19     ecut=    70.00 Ry     beta= 0.30
     Davidson diagonalization with overlap
     ethr =  7.40E-07,  avg # of iterations =  2.5

     negative rho (up, down):  1.127E-03 8.649E-02

     total cpu time spent up to now is     1917.0 secs

     total energy              =    -860.04895580 Ry
     Harris-Foulkes estimate   =    -860.04913970 Ry
     estimated scf accuracy    <       0.00820864 Ry

     total magnetization       =     2.00 Bohr mag/cell
     absolute magnetization    =     2.61 Bohr mag/cell

     iteration # 20     ecut=    70.00 Ry     beta= 0.30
     Davidson diagonalization with overlap
     ethr =  7.40E-07,  avg # of iterations =  2.5

     negative rho (up, down):  1.316E-03 1.107E-01

     total cpu time spent up to now is     2011.7 secs

     total energy              =    -860.04802129 Ry
     Harris-Foulkes estimate   =    -860.04904574 Ry
     estimated scf accuracy    <       0.00929199 Ry

     total magnetization       =     2.00 Bohr mag/cell
     absolute magnetization    =     2.61 Bohr mag/cell

     iteration # 21     ecut=    70.00 Ry     beta= 0.30
     Davidson diagonalization with overlap
     ethr =  7.40E-07,  avg # of iterations =  2.0

     negative rho (up, down):  1.317E-03 1.203E-01

     total cpu time spent up to now is     2115.4 secs

     total energy              =    -860.04777728 Ry
     Harris-Foulkes estimate   =    -860.04839359 Ry
     estimated scf accuracy    <       0.02138862 Ry

     total magnetization       =     2.00 Bohr mag/cell
     absolute magnetization    =     2.61 Bohr mag/cell

     iteration # 22     ecut=    70.00 Ry     beta= 0.30
     Davidson diagonalization with overlap
     ethr =  7.40E-07,  avg # of iterations =  2.0

     negative rho (up, down):  1.130E-03 8.640E-02

     total cpu time spent up to now is     2219.4 secs

     total energy              =    -860.04541151 Ry
     Harris-Foulkes estimate   =    -860.04817857 Ry
     estimated scf accuracy    <       0.02430520 Ry

     total magnetization       =     2.00 Bohr mag/cell
     absolute magnetization    =     2.55 Bohr mag/cell

     iteration # 23     ecut=    70.00 Ry     beta= 0.30
     Davidson diagonalization with overlap
     ethr =  7.40E-07,  avg # of iterations =  8.0

     negative rho (up, down):  7.061E-04 1.086E-01

     total cpu time spent up to now is     2343.5 secs

     total energy              =    -860.04419723 Ry
     Harris-Foulkes estimate   =    -860.05319864 Ry
     estimated scf accuracy    <       0.08410684 Ry

     total magnetization       =     2.00 Bohr mag/cell
     absolute magnetization    =     2.71 Bohr mag/cell

     iteration # 24     ecut=    70.00 Ry     beta= 0.30
     Davidson diagonalization with overlap
     ethr =  7.40E-07,  avg # of iterations =  3.0

     negative rho (up, down):  7.337E-04 7.796E-02

     total cpu time spent up to now is     2464.1 secs

     total energy              =    -860.04959999 Ry
     Harris-Foulkes estimate   =    -860.04950836 Ry
     estimated scf accuracy    <       0.00423663 Ry

     total magnetization       =     2.00 Bohr mag/cell
     absolute magnetization    =     2.58 Bohr mag/cell

     iteration # 25     ecut=    70.00 Ry     beta= 0.30
     Davidson diagonalization with overlap
     ethr =  7.40E-07,  avg # of iterations =  2.0

     negative rho (up, down):  7.504E-04 8.520E-02

     total cpu time spent up to now is     2568.7 secs

     total energy              =    -860.05008583 Ry
     Harris-Foulkes estimate   =    -860.05006971 Ry
     estimated scf accuracy    <       0.00315478 Ry

     total magnetization       =     2.00 Bohr mag/cell
     absolute magnetization    =     2.63 Bohr mag/cell

     iteration # 26     ecut=    70.00 Ry     beta= 0.30
     Davidson diagonalization with overlap
     ethr =  7.40E-07,  avg # of iterations =  1.0

     negative rho (up, down):  9.200E-04 1.165E-01

     total cpu time spent up to now is     2660.9 secs

     total energy              =    -860.04859629 Ry
     Harris-Foulkes estimate   =    -860.05011128 Ry
     estimated scf accuracy    <       0.00288743 Ry

     total magnetization       =     2.00 Bohr mag/cell
     absolute magnetization    =     2.63 Bohr mag/cell

     iteration # 27     ecut=    70.00 Ry     beta= 0.30
     Davidson diagonalization with overlap
     ethr =  7.40E-07,  avg # of iterations =  2.0

     negative rho (up, down):  9.631E-04 1.190E-01

     total cpu time spent up to now is     2765.9 secs

     total energy              =    -860.04840454 Ry
     Harris-Foulkes estimate   =    -860.04905043 Ry
     estimated scf accuracy    <       0.00978550 Ry

     total magnetization       =     2.00 Bohr mag/cell
     absolute magnetization    =     2.64 Bohr mag/cell

     iteration # 28     ecut=    70.00 Ry     beta= 0.30
     Davidson diagonalization with overlap
     ethr =  7.40E-07,  avg # of iterations =  3.0

     negative rho (up, down):  7.834E-04 7.129E-02

     total cpu time spent up to now is     2867.8 secs

     total energy              =    -860.04795059 Ry
     Harris-Foulkes estimate   =    -860.04921188 Ry
     estimated scf accuracy    <       0.03542086 Ry

     total magnetization       =     2.00 Bohr mag/cell
     absolute magnetization    =     2.47 Bohr mag/cell

     iteration # 29     ecut=    70.00 Ry     beta= 0.30
     Davidson diagonalization with overlap
     ethr =  7.40E-07,  avg # of iterations =  3.0

     negative rho (up, down):  7.578E-04 8.144E-02

     total cpu time spent up to now is     2980.3 secs

     total energy              =    -860.04915743 Ry
     Harris-Foulkes estimate   =    -860.05112681 Ry
     estimated scf accuracy    <       0.04272747 Ry

     total magnetization       =     2.00 Bohr mag/cell
     absolute magnetization    =     2.67 Bohr mag/cell

     iteration # 30     ecut=    70.00 Ry     beta= 0.30
     Davidson diagonalization with overlap
     ethr =  7.40E-07,  avg # of iterations =  2.5

     negative rho (up, down):  7.078E-04 6.650E-02

     total cpu time spent up to now is     3076.3 secs

     total energy              =    -860.05073787 Ry
     Harris-Foulkes estimate   =    -860.05026654 Ry
     estimated scf accuracy    <       0.00668365 Ry

     total magnetization       =     2.00 Bohr mag/cell
     absolute magnetization    =     2.58 Bohr mag/cell

     iteration # 31     ecut=    70.00 Ry     beta= 0.30
     Davidson diagonalization with overlap
     ethr =  7.40E-07,  avg # of iterations =  2.0

     negative rho (up, down):  7.358E-04 8.283E-02

     total cpu time spent up to now is     3179.2 secs

     total energy              =    -860.05138883 Ry
     Harris-Foulkes estimate   =    -860.05123828 Ry
     estimated scf accuracy    <       0.00581084 Ry

     total magnetization       =     2.00 Bohr mag/cell
     absolute magnetization    =     2.65 Bohr mag/cell

     iteration # 32     ecut=    70.00 Ry     beta= 0.30
     Davidson diagonalization with overlap
     ethr =  7.40E-07,  avg # of iterations =  1.0

     negative rho (up, down):  8.407E-04 1.172E-01

     total cpu time spent up to now is     3271.2 secs

     total energy              =    -860.04969986 Ry
     Harris-Foulkes estimate   =    -860.05140341 Ry
     estimated scf accuracy    <       0.00522853 Ry

     total magnetization       =     2.00 Bohr mag/cell
     absolute magnetization    =     2.65 Bohr mag/cell

     iteration # 33     ecut=    70.00 Ry     beta= 0.30
     Davidson diagonalization with overlap
     ethr =  7.40E-07,  avg # of iterations =  2.0

     negative rho (up, down):  9.593E-04 1.484E-01

     total cpu time spent up to now is     3375.6 secs

     total energy              =    -860.04732301 Ry
     Harris-Foulkes estimate   =    -860.05032917 Ry
     estimated scf accuracy    <       0.01420409 Ry

     total magnetization       =     2.00 Bohr mag/cell
     absolute magnetization    =     2.68 Bohr mag/cell

     iteration # 34     ecut=    70.00 Ry     beta= 0.30
     Davidson diagonalization with overlap
     ethr =  7.40E-07,  avg # of iterations =  3.0

     negative rho (up, down):  8.700E-04 9.670E-02

     total cpu time spent up to now is     3491.2 secs

     total energy              =    -860.04833563 Ry
     Harris-Foulkes estimate   =    -860.04921527 Ry
     estimated scf accuracy    <       0.02905390 Ry

     total magnetization       =     2.00 Bohr mag/cell
     absolute magnetization    =     2.53 Bohr mag/cell

     iteration # 35     ecut=    70.00 Ry     beta= 0.30
     Davidson diagonalization with overlap
     ethr =  7.40E-07,  avg # of iterations =  3.0

     negative rho (up, down):  8.569E-04 1.083E-01

     total cpu time spent up to now is     3603.0 secs

     total energy              =    -860.04928167 Ry
     Harris-Foulkes estimate   =    -860.05039107 Ry
     estimated scf accuracy    <       0.00997069 Ry

     total magnetization       =     2.00 Bohr mag/cell
     absolute magnetization    =     2.67 Bohr mag/cell

     iteration # 36     ecut=    70.00 Ry     beta= 0.30
     Davidson diagonalization with overlap
     ethr =  7.40E-07,  avg # of iterations =  2.0

     negative rho (up, down):  8.068E-04 7.309E-02

     total cpu time spent up to now is     3701.9 secs

     total energy              =    -860.05033206 Ry
     Harris-Foulkes estimate   =    -860.04984640 Ry
     estimated scf accuracy    <       0.00823796 Ry

     total magnetization       =     2.00 Bohr mag/cell
     absolute magnetization    =     2.66 Bohr mag/cell

     iteration # 37     ecut=    70.00 Ry     beta= 0.30
     Davidson diagonalization with overlap
     ethr =  7.40E-07,  avg # of iterations =  2.0

     negative rho (up, down):  7.230E-04 7.593E-02

     total cpu time spent up to now is     3811.2 secs

     total energy              =    -860.05178408 Ry
     Harris-Foulkes estimate   =    -860.05136808 Ry
     estimated scf accuracy    <       0.00414815 Ry

     total magnetization       =     2.00 Bohr mag/cell
     absolute magnetization    =     2.69 Bohr mag/cell

     iteration # 38     ecut=    70.00 Ry     beta= 0.30
     Davidson diagonalization with overlap
     ethr =  7.40E-07,  avg # of iterations =  2.5

     negative rho (up, down):  6.894E-04 7.239E-02

     total cpu time spent up to now is     3908.2 secs

     total energy              =    -860.05278097 Ry
     Harris-Foulkes estimate   =    -860.05190624 Ry
     estimated scf accuracy    <       0.00352683 Ry

     total magnetization       =     2.00 Bohr mag/cell
     absolute magnetization    =     2.71 Bohr mag/cell

     iteration # 39     ecut=    70.00 Ry     beta= 0.30
     Davidson diagonalization with overlap
     ethr =  7.40E-07,  avg # of iterations =  2.0

     negative rho (up, down):  6.966E-04 1.001E-01

     total cpu time spent up to now is     4014.4 secs

     total energy              =    -860.05217136 Ry
     Harris-Foulkes estimate   =    -860.05336520 Ry
     estimated scf accuracy    <       0.01315357 Ry

     total magnetization       =     2.00 Bohr mag/cell
     absolute magnetization    =     2.68 Bohr mag/cell

     iteration # 40     ecut=    70.00 Ry     beta= 0.30
     Davidson diagonalization with overlap
     ethr =  7.40E-07,  avg # of iterations =  2.0

     negative rho (up, down):  7.256E-04 1.054E-01

     total cpu time spent up to now is     4109.4 secs

     total energy              =    -860.05270535 Ry
     Harris-Foulkes estimate   =    -860.05279409 Ry
     estimated scf accuracy    <       0.00561883 Ry

     total magnetization       =     2.00 Bohr mag/cell
     absolute magnetization    =     2.68 Bohr mag/cell

     iteration # 41     ecut=    70.00 Ry     beta= 0.30
     Davidson diagonalization with overlap
     ethr =  7.40E-07,  avg # of iterations =  2.0

     negative rho (up, down):  7.209E-04 1.116E-01

     total cpu time spent up to now is     4206.1 secs

     total energy              =    -860.05330318 Ry
     Harris-Foulkes estimate   =    -860.05298607 Ry
     estimated scf accuracy    <       0.00620569 Ry

     total magnetization       =     2.00 Bohr mag/cell
     absolute magnetization    =     2.73 Bohr mag/cell

     iteration # 42     ecut=    70.00 Ry     beta= 0.30
     Davidson diagonalization with overlap
     ethr =  7.40E-07,  avg # of iterations =  2.0

     negative rho (up, down):  6.979E-04 1.175E-01

     total cpu time spent up to now is     4300.5 secs

     total energy              =    -860.05379991 Ry
     Harris-Foulkes estimate   =    -860.05340739 Ry
     estimated scf accuracy    <       0.00547929 Ry

     total magnetization       =     2.00 Bohr mag/cell
     absolute magnetization    =     2.72 Bohr mag/cell

     iteration # 43     ecut=    70.00 Ry     beta= 0.30
     Davidson diagonalization with overlap
     ethr =  7.40E-07,  avg # of iterations =  2.0

     negative rho (up, down):  8.950E-04 1.390E-01

     total cpu time spent up to now is     4395.5 secs

     total energy              =    -860.05151426 Ry
     Harris-Foulkes estimate   =    -860.05386923 Ry
     estimated scf accuracy    <       0.00525587 Ry

     total magnetization       =     2.00 Bohr mag/cell
     absolute magnetization    =     2.73 Bohr mag/cell

     iteration # 44     ecut=    70.00 Ry     beta= 0.30
     Davidson diagonalization with overlap
     ethr =  7.40E-07,  avg # of iterations =  3.0

     negative rho (up, down):  7.108E-04 1.127E-01

     total cpu time spent up to now is     4507.3 secs

     total energy              =    -860.05366360 Ry
     Harris-Foulkes estimate   =    -860.05249875 Ry
     estimated scf accuracy    <       0.00746736 Ry

     total magnetization       =     2.00 Bohr mag/cell
     absolute magnetization    =     2.71 Bohr mag/cell

     iteration # 45     ecut=    70.00 Ry     beta= 0.30
     Davidson diagonalization with overlap
     ethr =  7.40E-07,  avg # of iterations =  3.0

     negative rho (up, down):  6.846E-04 1.148E-01

     total cpu time spent up to now is     4625.6 secs

     total energy              =    -860.05678298 Ry
     Harris-Foulkes estimate   =    -860.05555351 Ry
     estimated scf accuracy    <       0.01445713 Ry

     total magnetization       =     2.00 Bohr mag/cell
     absolute magnetization    =     2.74 Bohr mag/cell

     iteration # 46     ecut=    70.00 Ry     beta= 0.30
     Davidson diagonalization with overlap
     ethr =  7.40E-07,  avg # of iterations =  2.5

     negative rho (up, down):  7.269E-04 1.462E-01

     total cpu time spent up to now is     4730.6 secs

     total energy              =    -860.05598765 Ry
     Harris-Foulkes estimate   =    -860.05740626 Ry
     estimated scf accuracy    <       0.01096393 Ry

     total magnetization       =     2.00 Bohr mag/cell
     absolute magnetization    =     2.72 Bohr mag/cell

     iteration # 47     ecut=    70.00 Ry     beta= 0.30
     Davidson diagonalization with overlap
     ethr =  7.40E-07,  avg # of iterations =  3.0

     negative rho (up, down):  8.381E-04 1.828E-01

     total cpu time spent up to now is     4835.2 secs

     total energy              =    -860.04532500 Ry
     Harris-Foulkes estimate   =    -860.05638386 Ry
     estimated scf accuracy    <       0.02157192 Ry

     total magnetization       =     2.05 Bohr mag/cell
     absolute magnetization    =     2.62 Bohr mag/cell

     iteration # 48     ecut=    70.00 Ry     beta= 0.30
     Davidson diagonalization with overlap
     ethr =  7.40E-07,  avg # of iterations =  3.5

     negative rho (up, down):  8.125E-04 1.768E-01

     total cpu time spent up to now is     4966.7 secs

     total energy              =    -860.04973118 Ry
     Harris-Foulkes estimate   =    -860.05116069 Ry
     estimated scf accuracy    <       0.00496397 Ry

     total magnetization       =     2.00 Bohr mag/cell
     absolute magnetization    =     2.70 Bohr mag/cell

     iteration # 49     ecut=    70.00 Ry     beta= 0.30
     Davidson diagonalization with overlap
     ethr =  7.40E-07,  avg # of iterations =  2.0

     negative rho (up, down):  7.360E-04 1.571E-01

     total cpu time spent up to now is     5073.8 secs

     total energy              =    -860.05017975 Ry
     Harris-Foulkes estimate   =    -860.05041740 Ry
     estimated scf accuracy    <       0.00472521 Ry

     total magnetization       =     2.00 Bohr mag/cell
     absolute magnetization    =     2.67 Bohr mag/cell

     iteration # 50     ecut=    70.00 Ry     beta= 0.30
     Davidson diagonalization with overlap
     ethr =  7.40E-07,  avg # of iterations =  2.0

     negative rho (up, down):  6.998E-04 1.338E-01

     total cpu time spent up to now is     5168.5 secs

     total energy              =    -860.05027901 Ry
     Harris-Foulkes estimate   =    -860.05042648 Ry
     estimated scf accuracy    <       0.00376405 Ry

     total magnetization       =     2.00 Bohr mag/cell
     absolute magnetization    =     2.67 Bohr mag/cell

     iteration # 51     ecut=    70.00 Ry     beta= 0.30
     Davidson diagonalization with overlap
     ethr =  7.40E-07,  avg # of iterations =  2.0

     negative rho (up, down):  6.531E-04 9.502E-02

     total cpu time spent up to now is     5263.2 secs

     total energy              =    -860.05048133 Ry
     Harris-Foulkes estimate   =    -860.05071514 Ry
     estimated scf accuracy    <       0.00842277 Ry

     total magnetization       =     2.00 Bohr mag/cell
     absolute magnetization    =     2.69 Bohr mag/cell

     iteration # 52     ecut=    70.00 Ry     beta= 0.30
     Davidson diagonalization with overlap
     ethr =  7.40E-07,  avg # of iterations =  3.0

     negative rho (up, down):  6.527E-04 1.031E-01

     total cpu time spent up to now is     5371.1 secs

     total energy              =    -860.05088125 Ry
     Harris-Foulkes estimate   =    -860.05121934 Ry
     estimated scf accuracy    <       0.00166287 Ry

     total magnetization       =     2.00 Bohr mag/cell
     absolute magnetization    =     2.65 Bohr mag/cell

     iteration # 53     ecut=    70.00 Ry     beta= 0.30
     Davidson diagonalization with overlap
     ethr =  7.40E-07,  avg # of iterations =  2.0

     negative rho (up, down):  6.374E-04 8.237E-02

     total cpu time spent up to now is     5472.7 secs

     total energy              =    -860.05167411 Ry
     Harris-Foulkes estimate   =    -860.05112944 Ry
     estimated scf accuracy    <       0.00136649 Ry

     total magnetization       =     2.00 Bohr mag/cell
     absolute magnetization    =     2.64 Bohr mag/cell

     iteration # 54     ecut=    70.00 Ry     beta= 0.30
     Davidson diagonalization with overlap
     ethr =  6.39E-07,  avg # of iterations =  2.0

     negative rho (up, down):  6.538E-04 1.099E-01

     total cpu time spent up to now is     5572.3 secs

     total energy              =    -860.05043374 Ry
     Harris-Foulkes estimate   =    -860.05181731 Ry
     estimated scf accuracy    <       0.00189549 Ry

     total magnetization       =     2.00 Bohr mag/cell
     absolute magnetization    =     2.65 Bohr mag/cell

     iteration # 55     ecut=    70.00 Ry     beta= 0.30
     Davidson diagonalization with overlap
     ethr =  6.39E-07,  avg # of iterations =  2.0

     negative rho (up, down):  6.809E-04 1.339E-01

     total cpu time spent up to now is     5677.3 secs

     total energy              =    -860.04884862 Ry
     Harris-Foulkes estimate   =    -860.05081068 Ry
     estimated scf accuracy    <       0.00116166 Ry

     total magnetization       =     2.00 Bohr mag/cell
     absolute magnetization    =     2.63 Bohr mag/cell

     iteration # 56     ecut=    70.00 Ry     beta= 0.30
     Davidson diagonalization with overlap
     ethr =  5.43E-07,  avg # of iterations =  3.0

     negative rho (up, down):  6.628E-04 1.122E-01

     total cpu time spent up to now is     5787.5 secs

     total energy              =    -860.04979593 Ry
     Harris-Foulkes estimate   =    -860.04986266 Ry
     estimated scf accuracy    <       0.00078498 Ry

     total magnetization       =     2.00 Bohr mag/cell
     absolute magnetization    =     2.63 Bohr mag/cell

     iteration # 57     ecut=    70.00 Ry     beta= 0.30
     Davidson diagonalization with overlap
     ethr =  3.67E-07,  avg # of iterations =  3.0

     negative rho (up, down):  6.467E-04 9.504E-02

     total cpu time spent up to now is     5883.0 secs

     total energy              =    -860.04972453 Ry
     Harris-Foulkes estimate   =    -860.05006960 Ry
     estimated scf accuracy    <       0.00479167 Ry

     total magnetization       =     2.00 Bohr mag/cell
     absolute magnetization    =     2.70 Bohr mag/cell

     iteration # 58     ecut=    70.00 Ry     beta= 0.30
     Davidson diagonalization with overlap
     ethr =  3.67E-07,  avg # of iterations =  2.0

     negative rho (up, down):  6.347E-04 8.413E-02

     total cpu time spent up to now is     5978.1 secs

     total energy              =    -860.04992145 Ry
     Harris-Foulkes estimate   =    -860.04992092 Ry
     estimated scf accuracy    <       0.00019549 Ry

     total magnetization       =     2.00 Bohr mag/cell
     absolute magnetization    =     2.64 Bohr mag/cell

     iteration # 59     ecut=    70.00 Ry     beta= 0.30
     Davidson diagonalization with overlap
     ethr =  9.14E-08,  avg # of iterations =  2.0

     negative rho (up, down):  6.259E-04 6.263E-02

     total cpu time spent up to now is     6082.6 secs

     total energy              =    -860.05002999 Ry
     Harris-Foulkes estimate   =    -860.04996697 Ry
     estimated scf accuracy    <       0.00021351 Ry

     total magnetization       =     2.00 Bohr mag/cell
     absolute magnetization    =     2.67 Bohr mag/cell

     iteration # 60     ecut=    70.00 Ry     beta= 0.30
     Davidson diagonalization with overlap
     ethr =  9.14E-08,  avg # of iterations =  2.0

     negative rho (up, down):  6.214E-04 4.903E-02

     total cpu time spent up to now is     6176.1 secs

     total energy              =    -860.05008599 Ry
     Harris-Foulkes estimate   =    -860.05003637 Ry
     estimated scf accuracy    <       0.00019907 Ry

     total magnetization       =     2.00 Bohr mag/cell
     absolute magnetization    =     2.67 Bohr mag/cell

     iteration # 61     ecut=    70.00 Ry     beta= 0.30
     Davidson diagonalization with overlap
     ethr =  9.14E-08,  avg # of iterations =  2.0

     negative rho (up, down):  6.236E-04 3.886E-02

     total cpu time spent up to now is     6270.1 secs

     total energy              =    -860.04999006 Ry
     Harris-Foulkes estimate   =    -860.05009296 Ry
     estimated scf accuracy    <       0.00021354 Ry

     total magnetization       =     2.00 Bohr mag/cell
     absolute magnetization    =     2.68 Bohr mag/cell

     iteration # 62     ecut=    70.00 Ry     beta= 0.30
     Davidson diagonalization with overlap
     ethr =  9.14E-08,  avg # of iterations =  2.0

     negative rho (up, down):  6.193E-04 3.440E-02

     total cpu time spent up to now is     6373.9 secs

     total energy              =    -860.05004121 Ry
     Harris-Foulkes estimate   =    -860.05003567 Ry
     estimated scf accuracy    <       0.00014036 Ry

     total magnetization       =     2.00 Bohr mag/cell
     absolute magnetization    =     2.67 Bohr mag/cell

     iteration # 63     ecut=    70.00 Ry     beta= 0.30
     Davidson diagonalization with overlap
     ethr =  6.56E-08,  avg # of iterations =  2.0

     negative rho (up, down):  6.197E-04 3.232E-02

     total cpu time spent up to now is     6467.9 secs

     total energy              =    -860.04999350 Ry
     Harris-Foulkes estimate   =    -860.05007542 Ry
     estimated scf accuracy    <       0.00069452 Ry

     total magnetization       =     2.00 Bohr mag/cell
     absolute magnetization    =     2.70 Bohr mag/cell

     iteration # 64     ecut=    70.00 Ry     beta= 0.30
     Davidson diagonalization with overlap
     ethr =  6.56E-08,  avg # of iterations =  2.0

     negative rho (up, down):  6.195E-04 3.008E-02

     total cpu time spent up to now is     6566.4 secs

     total energy              =    -860.05004464 Ry
     Harris-Foulkes estimate   =    -860.05003837 Ry
     estimated scf accuracy    <       0.00019602 Ry

     total magnetization       =     2.00 Bohr mag/cell
     absolute magnetization    =     2.67 Bohr mag/cell

     iteration # 65     ecut=    70.00 Ry     beta= 0.30
     Davidson diagonalization with overlap
     ethr =  6.56E-08,  avg # of iterations =  2.0

     negative rho (up, down):  6.173E-04 2.385E-02

     total cpu time spent up to now is     6660.3 secs

     total energy              =    -860.05008518 Ry
     Harris-Foulkes estimate   =    -860.05004843 Ry
     estimated scf accuracy    <       0.00017258 Ry

     total magnetization       =     2.00 Bohr mag/cell
     absolute magnetization    =     2.67 Bohr mag/cell

     iteration # 66     ecut=    70.00 Ry     beta= 0.30
     Davidson diagonalization with overlap
     ethr =  6.56E-08,  avg # of iterations =  2.0

     negative rho (up, down):  6.167E-04 2.316E-02

     total cpu time spent up to now is     6759.9 secs

     total energy              =    -860.05012000 Ry
     Harris-Foulkes estimate   =    -860.05010856 Ry
     estimated scf accuracy    <       0.00035532 Ry

     total magnetization       =     2.00 Bohr mag/cell
     absolute magnetization    =     2.64 Bohr mag/cell

     iteration # 67     ecut=    70.00 Ry     beta= 0.30
     Davidson diagonalization with overlap
     ethr =  6.56E-08,  avg # of iterations =  2.0

     negative rho (up, down):  6.197E-04 3.722E-02

     total cpu time spent up to now is     6854.1 secs

     total energy              =    -860.04996453 Ry
     Harris-Foulkes estimate   =    -860.05013548 Ry
     estimated scf accuracy    <       0.00017987 Ry

     total magnetization       =     2.00 Bohr mag/cell
     absolute magnetization    =     2.69 Bohr mag/cell

     iteration # 68     ecut=    70.00 Ry     beta= 0.30
     Davidson diagonalization with overlap
     ethr =  6.56E-08,  avg # of iterations =  2.0

     negative rho (up, down):  6.158E-04 2.776E-02

     total cpu time spent up to now is     6961.2 secs

     total energy              =    -860.05006806 Ry
     Harris-Foulkes estimate   =    -860.05004328 Ry
     estimated scf accuracy    <       0.00013432 Ry

     total magnetization       =     2.00 Bohr mag/cell
     absolute magnetization    =     2.67 Bohr mag/cell

     iteration # 69     ecut=    70.00 Ry     beta= 0.30
     Davidson diagonalization with overlap
     ethr =  6.28E-08,  avg # of iterations =  3.0

     negative rho (up, down):  6.164E-04 3.121E-02

     total cpu time spent up to now is     7059.3 secs

     total energy              =    -860.05001294 Ry
     Harris-Foulkes estimate   =    -860.05011476 Ry
     estimated scf accuracy    <       0.00080354 Ry

     total magnetization       =     2.00 Bohr mag/cell
     absolute magnetization    =     2.71 Bohr mag/cell

     iteration # 70     ecut=    70.00 Ry     beta= 0.30
     Davidson diagonalization with overlap
     ethr =  6.28E-08,  avg # of iterations =  3.0

     negative rho (up, down):  6.161E-04 2.613E-02

     total cpu time spent up to now is     7163.0 secs

     total energy              =    -860.05008851 Ry
     Harris-Foulkes estimate   =    -860.05007022 Ry
     estimated scf accuracy    <       0.00015241 Ry

     total magnetization       =     2.00 Bohr mag/cell
     absolute magnetization    =     2.68 Bohr mag/cell

     iteration # 71     ecut=    70.00 Ry     beta= 0.30
     Davidson diagonalization with overlap
     ethr =  6.28E-08,  avg # of iterations =  1.0

     negative rho (up, down):  6.214E-04 3.926E-02

     total cpu time spent up to now is     7254.8 secs

     total energy              =    -860.04991119 Ry
     Harris-Foulkes estimate   =    -860.05008992 Ry
     estimated scf accuracy    <       0.00017486 Ry

     total magnetization       =     2.00 Bohr mag/cell
     absolute magnetization    =     2.69 Bohr mag/cell

     iteration # 72     ecut=    70.00 Ry     beta= 0.30
     Davidson diagonalization with overlap
     ethr =  6.28E-08,  avg # of iterations =  2.0

     negative rho (up, down):  6.192E-04 3.342E-02

     total cpu time spent up to now is     7362.2 secs

     total energy              =    -860.05000841 Ry
     Harris-Foulkes estimate   =    -860.05000241 Ry
     estimated scf accuracy    <       0.00018171 Ry

     total magnetization       =     2.00 Bohr mag/cell
     absolute magnetization    =     2.65 Bohr mag/cell

     iteration # 73     ecut=    70.00 Ry     beta= 0.30
     Davidson diagonalization with overlap
     ethr =  6.28E-08,  avg # of iterations =  1.5

     negative rho (up, down):  6.185E-04 2.944E-02

     total cpu time spent up to now is     7455.0 secs

     total energy              =    -860.05001651 Ry
     Harris-Foulkes estimate   =    -860.05001482 Ry
     estimated scf accuracy    <       0.00011395 Ry

     total magnetization       =     2.00 Bohr mag/cell
     absolute magnetization    =     2.68 Bohr mag/cell

     iteration # 74     ecut=    70.00 Ry     beta= 0.30
     Davidson diagonalization with overlap
     ethr =  5.32E-08,  avg # of iterations =  2.0

     negative rho (up, down):  6.183E-04 2.298E-02

     total cpu time spent up to now is     7554.1 secs

     total energy              =    -860.05003033 Ry
     Harris-Foulkes estimate   =    -860.05002718 Ry
     estimated scf accuracy    <       0.00009312 Ry

     total magnetization       =     2.00 Bohr mag/cell
     absolute magnetization    =     2.68 Bohr mag/cell

     iteration # 75     ecut=    70.00 Ry     beta= 0.30
     Davidson diagonalization with overlap
     ethr =  4.35E-08,  avg # of iterations =  2.0

     negative rho (up, down):  6.168E-04 2.268E-02

     total cpu time spent up to now is     7649.4 secs

     total energy              =    -860.05004421 Ry
     Harris-Foulkes estimate   =    -860.05003479 Ry
     estimated scf accuracy    <       0.00006466 Ry

     total magnetization       =     2.00 Bohr mag/cell
     absolute magnetization    =     2.68 Bohr mag/cell

     iteration # 76     ecut=    70.00 Ry     beta= 0.30
     Davidson diagonalization with overlap
     ethr =  3.02E-08,  avg # of iterations =  2.0

     negative rho (up, down):  6.155E-04 1.911E-02

     total cpu time spent up to now is     7751.8 secs

     total energy              =    -860.05003585 Ry
     Harris-Foulkes estimate   =    -860.05005704 Ry
     estimated scf accuracy    <       0.00007138 Ry

     total magnetization       =     2.00 Bohr mag/cell
     absolute magnetization    =     2.68 Bohr mag/cell

     iteration # 77     ecut=    70.00 Ry     beta= 0.30
     Davidson diagonalization with overlap
     ethr =  3.02E-08,  avg # of iterations =  2.0

     negative rho (up, down):  6.149E-04 1.909E-02

     total cpu time spent up to now is     7853.8 secs

     total energy              =    -860.05005922 Ry
     Harris-Foulkes estimate   =    -860.05005093 Ry
     estimated scf accuracy    <       0.00007691 Ry

     total magnetization       =     2.00 Bohr mag/cell
     absolute magnetization    =     2.69 Bohr mag/cell

     iteration # 78     ecut=    70.00 Ry     beta= 0.30
     Davidson diagonalization with overlap
     ethr =  3.02E-08,  avg # of iterations =  2.0

     negative rho (up, down):  6.152E-04 1.869E-02

     total cpu time spent up to now is     7952.1 secs

     total energy              =    -860.05007448 Ry
     Harris-Foulkes estimate   =    -860.05006726 Ry
     estimated scf accuracy    <       0.00010349 Ry

     total magnetization       =     2.00 Bohr mag/cell
     absolute magnetization    =     2.69 Bohr mag/cell

     iteration # 79     ecut=    70.00 Ry     beta= 0.30
     Davidson diagonalization with overlap
     ethr =  3.02E-08,  avg # of iterations =  2.0

     negative rho (up, down):  6.166E-04 2.280E-02

     total cpu time spent up to now is     8049.8 secs

     total energy              =    -860.05002426 Ry
     Harris-Foulkes estimate   =    -860.05008199 Ry
     estimated scf accuracy    <       0.00007438 Ry

     total magnetization       =     2.00 Bohr mag/cell
     absolute magnetization    =     2.70 Bohr mag/cell

     iteration # 80     ecut=    70.00 Ry     beta= 0.30
     Davidson diagonalization with overlap
     ethr =  3.02E-08,  avg # of iterations =  2.0

     negative rho (up, down):  6.161E-04 2.267E-02

     total cpu time spent up to now is     8154.5 secs

     total energy              =    -860.05004249 Ry
     Harris-Foulkes estimate   =    -860.05004419 Ry
     estimated scf accuracy    <       0.00009324 Ry

     total magnetization       =     2.00 Bohr mag/cell
     absolute magnetization    =     2.69 Bohr mag/cell

     iteration # 81     ecut=    70.00 Ry     beta= 0.30
     Davidson diagonalization with overlap
     ethr =  3.02E-08,  avg # of iterations =  2.0

     negative rho (up, down):  6.136E-04 1.945E-02

     total cpu time spent up to now is     8248.1 secs

     total energy              =    -860.05006694 Ry
     Harris-Foulkes estimate   =    -860.05004440 Ry
     estimated scf accuracy    <       0.00007521 Ry

     total magnetization       =     2.00 Bohr mag/cell
     absolute magnetization    =     2.69 Bohr mag/cell

     iteration # 82     ecut=    70.00 Ry     beta= 0.30
     Davidson diagonalization with overlap
     ethr =  3.02E-08,  avg # of iterations =  2.0

     negative rho (up, down):  6.132E-04 1.936E-02

     total cpu time spent up to now is     8349.7 secs

     total energy              =    -860.05009003 Ry
     Harris-Foulkes estimate   =    -860.05007898 Ry
     estimated scf accuracy    <       0.00005405 Ry

     total magnetization       =     2.00 Bohr mag/cell
     absolute magnetization    =     2.71 Bohr mag/cell

     iteration # 83     ecut=    70.00 Ry     beta= 0.30
     Davidson diagonalization with overlap
     ethr =  2.53E-08,  avg # of iterations =  2.0

     negative rho (up, down):  6.133E-04 1.757E-02

     total cpu time spent up to now is     8448.8 secs

     total energy              =    -860.05009510 Ry
     Harris-Foulkes estimate   =    -860.05009730 Ry
     estimated scf accuracy    <       0.00007345 Ry

     total magnetization       =     2.00 Bohr mag/cell
     absolute magnetization    =     2.72 Bohr mag/cell

     iteration # 84     ecut=    70.00 Ry     beta= 0.30
     Davidson diagonalization with overlap
     ethr =  2.53E-08,  avg # of iterations =  2.0

     negative rho (up, down):  6.135E-04 1.936E-02

     total cpu time spent up to now is     8547.3 secs

     total energy              =    -860.05010286 Ry
     Harris-Foulkes estimate   =    -860.05011099 Ry
     estimated scf accuracy    <       0.00029721 Ry

     total magnetization       =     2.00 Bohr mag/cell
     absolute magnetization    =     2.70 Bohr mag/cell

     iteration # 85     ecut=    70.00 Ry     beta= 0.30
     Davidson diagonalization with overlap
     ethr =  2.53E-08,  avg # of iterations =  2.0

     negative rho (up, down):  6.152E-04 2.861E-02

     total cpu time spent up to now is     8646.7 secs

     total energy              =    -860.05000931 Ry
     Harris-Foulkes estimate   =    -860.05011459 Ry
     estimated scf accuracy    <       0.00006838 Ry

     total magnetization       =     2.00 Bohr mag/cell
     absolute magnetization    =     2.72 Bohr mag/cell

     iteration # 86     ecut=    70.00 Ry     beta= 0.30
     Davidson diagonalization with overlap
     ethr =  2.53E-08,  avg # of iterations =  3.0

     negative rho (up, down):  6.153E-04 2.757E-02

     total cpu time spent up to now is     8757.3 secs

     total energy              =    -860.05006178 Ry
     Harris-Foulkes estimate   =    -860.05006736 Ry
     estimated scf accuracy    <       0.00006383 Ry

     total magnetization       =     2.00 Bohr mag/cell
     absolute magnetization    =     2.71 Bohr mag/cell

     iteration # 87     ecut=    70.00 Ry     beta= 0.30
     Davidson diagonalization with overlap
     ethr =  2.53E-08,  avg # of iterations =  2.0

     negative rho (up, down):  6.146E-04 2.229E-02

     total cpu time spent up to now is     8855.9 secs

     total energy              =    -860.05007456 Ry
     Harris-Foulkes estimate   =    -860.05006693 Ry
     estimated scf accuracy    <       0.00005574 Ry

     total magnetization       =     2.00 Bohr mag/cell
     absolute magnetization    =     2.70 Bohr mag/cell

     iteration # 88     ecut=    70.00 Ry     beta= 0.30
     Davidson diagonalization with overlap
     ethr =  2.53E-08,  avg # of iterations =  2.0

     negative rho (up, down):  6.141E-04 1.997E-02

     total cpu time spent up to now is     8949.3 secs

     total energy              =    -860.05008821 Ry
     Harris-Foulkes estimate   =    -860.05007627 Ry
     estimated scf accuracy    <       0.00006948 Ry

     total magnetization       =     2.00 Bohr mag/cell
     absolute magnetization    =     2.71 Bohr mag/cell

     iteration # 89     ecut=    70.00 Ry     beta= 0.30
     Davidson diagonalization with overlap
     ethr =  2.53E-08,  avg # of iterations =  2.0

     negative rho (up, down):  6.149E-04 2.447E-02

     total cpu time spent up to now is     9043.6 secs

     total energy              =    -860.05003905 Ry
     Harris-Foulkes estimate   =    -860.05008999 Ry
     estimated scf accuracy    <       0.00007002 Ry

     total magnetization       =     2.00 Bohr mag/cell
     absolute magnetization    =     2.72 Bohr mag/cell

     iteration # 90     ecut=    70.00 Ry     beta= 0.30
     Davidson diagonalization with overlap
     ethr =  2.53E-08,  avg # of iterations =  2.0

     negative rho (up, down):  6.146E-04 2.461E-02

     total cpu time spent up to now is     9148.0 secs

     total energy              =    -860.05003066 Ry
     Harris-Foulkes estimate   =    -860.05006030 Ry
     estimated scf accuracy    <       0.00013440 Ry

     total magnetization       =     2.00 Bohr mag/cell
     absolute magnetization    =     2.72 Bohr mag/cell

     iteration # 91     ecut=    70.00 Ry     beta= 0.30
     Davidson diagonalization with overlap
     ethr =  2.53E-08,  avg # of iterations =  2.0

     negative rho (up, down):  6.145E-04 2.291E-02

     total cpu time spent up to now is     9256.2 secs

     total energy              =    -860.05006593 Ry
     Harris-Foulkes estimate   =    -860.05006966 Ry
     estimated scf accuracy    <       0.00009792 Ry

     total magnetization       =     2.00 Bohr mag/cell
     absolute magnetization    =     2.69 Bohr mag/cell

     iteration # 92     ecut=    70.00 Ry     beta= 0.30
     Davidson diagonalization with overlap
     ethr =  2.53E-08,  avg # of iterations =  2.0

     negative rho (up, down):  6.148E-04 2.094E-02

     total cpu time spent up to now is     9352.1 secs

     total energy              =    -860.05006072 Ry
     Harris-Foulkes estimate   =    -860.05006922 Ry
     estimated scf accuracy    <       0.00007844 Ry

     total magnetization       =     2.00 Bohr mag/cell
     absolute magnetization    =     2.70 Bohr mag/cell

     iteration # 93     ecut=    70.00 Ry     beta= 0.30
     Davidson diagonalization with overlap
     ethr =  2.53E-08,  avg # of iterations =  2.0

     negative rho (up, down):  6.149E-04 2.046E-02

     total cpu time spent up to now is     9445.8 secs

     total energy              =    -860.05005771 Ry
     Harris-Foulkes estimate   =    -860.05006229 Ry
     estimated scf accuracy    <       0.00006746 Ry

     total magnetization       =     2.00 Bohr mag/cell
     absolute magnetization    =     2.70 Bohr mag/cell

     iteration # 94     ecut=    70.00 Ry     beta= 0.30
     Davidson diagonalization with overlap
     ethr =  2.53E-08,  avg # of iterations =  2.0

     negative rho (up, down):  6.142E-04 1.791E-02

     total cpu time spent up to now is     9539.5 secs

     total energy              =    -860.05007648 Ry
     Harris-Foulkes estimate   =    -860.05005970 Ry
     estimated scf accuracy    <       0.00010168 Ry

     total magnetization       =     2.00 Bohr mag/cell
     absolute magnetization    =     2.70 Bohr mag/cell

     iteration # 95     ecut=    70.00 Ry     beta= 0.30
     Davidson diagonalization with overlap
     ethr =  2.53E-08,  avg # of iterations =  2.0

     negative rho (up, down):  6.140E-04 1.807E-02

     total cpu time spent up to now is     9639.8 secs

     total energy              =    -860.05008095 Ry
     Harris-Foulkes estimate   =    -860.05008405 Ry
     estimated scf accuracy    <       0.00009204 Ry

     total magnetization       =     2.00 Bohr mag/cell
     absolute magnetization    =     2.71 Bohr mag/cell

     iteration # 96     ecut=    70.00 Ry     beta= 0.30
     Davidson diagonalization with overlap
     ethr =  2.53E-08,  avg # of iterations =  2.5

     negative rho (up, down):  6.137E-04 2.092E-02

     total cpu time spent up to now is     9742.0 secs

     total energy              =    -860.05006338 Ry
     Harris-Foulkes estimate   =    -860.05010242 Ry
     estimated scf accuracy    <       0.00029615 Ry

     total magnetization       =     2.00 Bohr mag/cell
     absolute magnetization    =     2.73 Bohr mag/cell

     iteration # 97     ecut=    70.00 Ry     beta= 0.30
     Davidson diagonalization with overlap
     ethr =  2.53E-08,  avg # of iterations =  2.5

     negative rho (up, down):  6.137E-04 1.999E-02

     total cpu time spent up to now is     9847.7 secs

     total energy              =    -860.05008703 Ry
     Harris-Foulkes estimate   =    -860.05008953 Ry
     estimated scf accuracy    <       0.00006819 Ry

     total magnetization       =     2.00 Bohr mag/cell
     absolute magnetization    =     2.71 Bohr mag/cell

     iteration # 98     ecut=    70.00 Ry     beta= 0.30
     Davidson diagonalization with overlap
     ethr =  2.53E-08,  avg # of iterations =  1.0

     negative rho (up, down):  6.138E-04 2.343E-02

     total cpu time spent up to now is     9939.8 secs

     total energy              =    -860.05005755 Ry
     Harris-Foulkes estimate   =    -860.05008752 Ry
     estimated scf accuracy    <       0.00007026 Ry

     total magnetization       =     2.00 Bohr mag/cell
     absolute magnetization    =     2.71 Bohr mag/cell

     iteration # 99     ecut=    70.00 Ry     beta= 0.30
     Davidson diagonalization with overlap
     ethr =  2.53E-08,  avg # of iterations =  2.0

     negative rho (up, down):  6.132E-04 2.020E-02

     total cpu time spent up to now is    10044.3 secs

     total energy              =    -860.05009446 Ry
     Harris-Foulkes estimate   =    -860.05007335 Ry
     estimated scf accuracy    <       0.00005426 Ry

     total magnetization       =     2.00 Bohr mag/cell
     absolute magnetization    =     2.71 Bohr mag/cell

     iteration #100     ecut=    70.00 Ry     beta= 0.30
     Davidson diagonalization with overlap
     ethr =  2.53E-08,  avg # of iterations =  2.0

     negative rho (up, down):  6.138E-04 2.325E-02

     Magnetic moment per site:
     atom:    1    charge:    0.2107    magn:    0.0009    constr:    0.0000
     atom:    2    charge:    0.2107    magn:    0.0009    constr:    0.0000
     atom:    3    charge:    1.7168    magn:   -0.0077    constr:    0.0000
     atom:    4    charge:    1.7152    magn:    0.0145    constr:    0.0000
     atom:    5    charge:    1.7176    magn:   -0.0051    constr:    0.0000
     atom:    6    charge:    1.7143    magn:    0.0034    constr:    0.0000
     atom:    7    charge:    1.7172    magn:   -0.0038    constr:    0.0000
     atom:    8    charge:    1.7158    magn:    0.0105    constr:    0.0000
     atom:    9    charge:    1.7162    magn:   -0.0074    constr:    0.0000
     atom:   10    charge:    1.7176    magn:    0.0328    constr:    0.0000
     atom:   11    charge:    1.7167    magn:   -0.0111    constr:    0.0000
     atom:   12    charge:    1.7152    magn:    0.0484    constr:    0.0000
     atom:   13    charge:    1.7171    magn:   -0.0123    constr:    0.0000
     atom:   14    charge:    1.7170    magn:    0.0286    constr:    0.0000
     atom:   15    charge:    1.7131    magn:   -0.0079    constr:    0.0000
     atom:   16    charge:    1.7128    magn:    0.0359    constr:    0.0000
     atom:   17    charge:    1.7218    magn:   -0.0043    constr:    0.0000
     atom:   18    charge:    1.7134    magn:    0.0341    constr:    0.0000
     atom:   19    charge:    1.7133    magn:   -0.0081    constr:    0.0000
     atom:   20    charge:    1.7161    magn:    0.0357    constr:    0.0000
     atom:   21    charge:    1.7167    magn:   -0.0112    constr:    0.0000
     atom:   22    charge:    1.7150    magn:    0.0506    constr:    0.0000
     atom:   23    charge:    1.7169    magn:   -0.0079    constr:    0.0000
     atom:   24    charge:    1.7151    magn:    0.0148    constr:    0.0000
     atom:   25    charge:    1.7132    magn:   -0.0079    constr:    0.0000
     atom:   26    charge:    1.7127    magn:    0.0377    constr:    0.0000
     atom:   27    charge:    1.8518    magn:   -0.0169    constr:    0.0000
     atom:   28    charge:   11.1523    magn:    0.5116    constr:    0.0000
     atom:   29    charge:    1.8522    magn:   -0.0115    constr:    0.0000
     atom:   30    charge:    1.7115    magn:    0.0483    constr:    0.0000
     atom:   31    charge:    1.7135    magn:   -0.0080    constr:    0.0000
     atom:   32    charge:    1.7156    magn:    0.0126    constr:    0.0000
     atom:   33    charge:    1.7174    magn:   -0.0042    constr:    0.0000
     atom:   34    charge:    1.7143    magn:    0.0094    constr:    0.0000
     atom:   35    charge:    1.7177    magn:   -0.0052    constr:    0.0000
     atom:   36    charge:    1.7143    magn:    0.0034    constr:    0.0000
     atom:   37    charge:    1.7219    magn:   -0.0045    constr:    0.0000
     atom:   38    charge:    1.7134    magn:    0.0360    constr:    0.0000
     atom:   39    charge:    1.8524    magn:   -0.0108    constr:    0.0000
     atom:   40    charge:    1.7116    magn:    0.0484    constr:    0.0000
     atom:   41    charge:    1.7223    magn:   -0.0042    constr:    0.0000
     atom:   42    charge:    1.7145    magn:    0.0026    constr:    0.0000
     atom:   43    charge:    1.7174    magn:   -0.0041    constr:    0.0000
     atom:   44    charge:    1.7143    magn:    0.0090    constr:    0.0000
     atom:   45    charge:    1.7227    magn:    0.0023    constr:    0.0000
     atom:   46    charge:    1.7147    magn:    0.0059    constr:    0.0000
     atom:   47    charge:    1.7172    magn:   -0.0037    constr:    0.0000
     atom:   48    charge:    1.7159    magn:    0.0102    constr:    0.0000
     atom:   49    charge:    1.7134    magn:   -0.0082    constr:    0.0000
     atom:   50    charge:    1.7161    magn:    0.0371    constr:    0.0000
     atom:   51    charge:    1.7136    magn:   -0.0081    constr:    0.0000
     atom:   52    charge:    1.7157    magn:    0.0120    constr:    0.0000

     total cpu time spent up to now is    10147.0 secs

     total energy              =    -860.05007019 Ry
     Harris-Foulkes estimate   =    -860.05010524 Ry
     estimated scf accuracy    <       0.00007476 Ry

     total magnetization       =     2.00 Bohr mag/cell
     absolute magnetization    =     2.73 Bohr mag/cell

     iteration #101     ecut=    70.00 Ry     beta= 0.30
     Davidson diagonalization with overlap
     ethr =  2.53E-08,  avg # of iterations =  2.0

     negative rho (up, down):  6.140E-04 2.344E-02

     total cpu time spent up to now is    10248.2 secs

     total energy              =    -860.05006410 Ry
     Harris-Foulkes estimate   =    -860.05007864 Ry
     estimated scf accuracy    <       0.00008978 Ry

     total magnetization       =     2.00 Bohr mag/cell
     absolute magnetization    =     2.72 Bohr mag/cell

     iteration #102     ecut=    70.00 Ry     beta= 0.30
     Davidson diagonalization with overlap
     ethr =  2.53E-08,  avg # of iterations =  2.0

     negative rho (up, down):  6.136E-04 2.277E-02

     total cpu time spent up to now is    10344.8 secs

     total energy              =    -860.05003248 Ry
     Harris-Foulkes estimate   =    -860.05007936 Ry
     estimated scf accuracy    <       0.00027679 Ry

     total magnetization       =     2.00 Bohr mag/cell
     absolute magnetization    =     2.72 Bohr mag/cell

     iteration #103     ecut=    70.00 Ry     beta= 0.30
     Davidson diagonalization with overlap
     ethr =  2.53E-08,  avg # of iterations =  2.5

     negative rho (up, down):  6.135E-04 2.032E-02

     total cpu time spent up to now is    10454.3 secs

     total energy              =    -860.05008763 Ry
     Harris-Foulkes estimate   =    -860.05008030 Ry
     estimated scf accuracy    <       0.00008567 Ry

     total magnetization       =     2.00 Bohr mag/cell
     absolute magnetization    =     2.71 Bohr mag/cell

     iteration #104     ecut=    70.00 Ry     beta= 0.30
     Davidson diagonalization with overlap
     ethr =  2.53E-08,  avg # of iterations =  2.0

     negative rho (up, down):  6.136E-04 1.885E-02

     total cpu time spent up to now is    10548.8 secs

     total energy              =    -860.05009413 Ry
     Harris-Foulkes estimate   =    -860.05009042 Ry
     estimated scf accuracy    <       0.00008635 Ry

     total magnetization       =     2.00 Bohr mag/cell
     absolute magnetization    =     2.72 Bohr mag/cell

     iteration #105     ecut=    70.00 Ry     beta= 0.30
     Davidson diagonalization with overlap
     ethr =  2.53E-08,  avg # of iterations =  1.5

     negative rho (up, down):  6.138E-04 1.905E-02

     total cpu time spent up to now is    10641.6 secs

     total energy              =    -860.05009750 Ry
     Harris-Foulkes estimate   =    -860.05009514 Ry
     estimated scf accuracy    <       0.00009265 Ry

     total magnetization       =     2.00 Bohr mag/cell
     absolute magnetization    =     2.72 Bohr mag/cell

     iteration #106     ecut=    70.00 Ry     beta= 0.30
     Davidson diagonalization with overlap
     ethr =  2.53E-08,  avg # of iterations =  1.0

     negative rho (up, down):  6.146E-04 2.395E-02

     total cpu time spent up to now is    10734.5 secs

     total energy              =    -860.05006658 Ry
     Harris-Foulkes estimate   =    -860.05009803 Ry
     estimated scf accuracy    <       0.00009304 Ry

     total magnetization       =     2.00 Bohr mag/cell
     absolute magnetization    =     2.73 Bohr mag/cell

     iteration #107     ecut=    70.00 Ry     beta= 0.30
     Davidson diagonalization with overlap
     ethr =  2.53E-08,  avg # of iterations =  2.0

     negative rho (up, down):  6.135E-04 1.619E-02

     total cpu time spent up to now is    10837.1 secs

     total energy              =    -860.05008389 Ry
     Harris-Foulkes estimate   =    -860.05007679 Ry
     estimated scf accuracy    <       0.00011376 Ry

     total magnetization       =     2.00 Bohr mag/cell
     absolute magnetization    =     2.72 Bohr mag/cell

     iteration #108     ecut=    70.00 Ry     beta= 0.30
     Davidson diagonalization with overlap
     ethr =  2.53E-08,  avg # of iterations =  3.0

     negative rho (up, down):  6.130E-04 2.143E-02

     total cpu time spent up to now is    10949.1 secs

     total energy              =    -860.05005460 Ry
     Harris-Foulkes estimate   =    -860.05016333 Ry
     estimated scf accuracy    <       0.00095488 Ry

     total magnetization       =     2.00 Bohr mag/cell
     absolute magnetization    =     2.75 Bohr mag/cell

     iteration #109     ecut=    70.00 Ry     beta= 0.30
     Davidson diagonalization with overlap
     ethr =  2.53E-08,  avg # of iterations =  3.0

     negative rho (up, down):  6.130E-04 2.106E-02

     total cpu time spent up to now is    11058.6 secs

     total energy              =    -860.05011359 Ry
     Harris-Foulkes estimate   =    -860.05011513 Ry
     estimated scf accuracy    <       0.00006888 Ry

     total magnetization       =     2.00 Bohr mag/cell
     absolute magnetization    =     2.73 Bohr mag/cell

     iteration #110     ecut=    70.00 Ry     beta= 0.30
     Davidson diagonalization with overlap
     ethr =  2.53E-08,  avg # of iterations =  2.0

     negative rho (up, down):  6.133E-04 2.535E-02

     total cpu time spent up to now is    11152.8 secs

     total energy              =    -860.05007244 Ry
     Harris-Foulkes estimate   =    -860.05011862 Ry
     estimated scf accuracy    <       0.00011225 Ry

     total magnetization       =     2.00 Bohr mag/cell
     absolute magnetization    =     2.71 Bohr mag/cell

     iteration #111     ecut=    70.00 Ry     beta= 0.30
     Davidson diagonalization with overlap
     ethr =  2.53E-08,  avg # of iterations =  2.0

     negative rho (up, down):  6.133E-04 2.575E-02

     total cpu time spent up to now is    11257.2 secs

     total energy              =    -860.05008573 Ry
     Harris-Foulkes estimate   =    -860.05009169 Ry
     estimated scf accuracy    <       0.00005813 Ry

     total magnetization       =     2.00 Bohr mag/cell
[...]
     Davidson diagonalization with overlap
     ethr =  9.51E-09,  avg # of iterations =  2.0

     negative rho (up, down):  6.127E-04 2.076E-02

     total cpu time spent up to now is    19031.8 secs

     total energy              =    -860.05010622 Ry
     Harris-Foulkes estimate   =    -860.05011001 Ry
     estimated scf accuracy    <       0.00003931 Ry

     total magnetization       =     2.00 Bohr mag/cell
     absolute magnetization    =     2.79 Bohr mag/cell

     iteration #188     ecut=    70.00 Ry     beta= 0.30
     Davidson diagonalization with overlap
     ethr =  9.51E-09,  avg # of iterations =  2.0

     negative rho (up, down):  6.126E-04 2.163E-02

     total cpu time spent up to now is    19136.8 secs

     total energy              =    -860.05010981 Ry
     Harris-Foulkes estimate   =    -860.05011566 Ry
     estimated scf accuracy    <       0.00003583 Ry

     total magnetization       =     2.00 Bohr mag/cell
     absolute magnetization    =     2.80 Bohr mag/cell

     iteration #189     ecut=    70.00 Ry     beta= 0.30
     Davidson diagonalization with overlap
     ethr =  9.51E-09,  avg # of iterations =  2.0

     negative rho (up, down):  6.125E-04 2.205E-02

     total cpu time spent up to now is    19239.6 secs

     total energy              =    -860.05011464 Ry
     Harris-Foulkes estimate   =    -860.05011380 Ry
     estimated scf accuracy    <       0.00002552 Ry

     total magnetization       =     2.00 Bohr mag/cell
     absolute magnetization    =     2.81 Bohr mag/cell

     iteration #190     ecut=    70.00 Ry     beta= 0.30
     Davidson diagonalization with overlap
     ethr =  9.51E-09,  avg # of iterations =  3.0

     negative rho (up, down):  6.124E-04 1.801E-02

     total cpu time spent up to now is    19348.5 secs

     total energy              =    -860.05013336 Ry
     Harris-Foulkes estimate   =    -860.05013056 Ry
     estimated scf accuracy    <       0.00003407 Ry

     total magnetization       =     2.00 Bohr mag/cell
     absolute magnetization    =     2.82 Bohr mag/cell

     iteration #191     ecut=    70.00 Ry     beta= 0.30
     Davidson diagonalization with overlap
     ethr =  9.51E-09,  avg # of iterations =  2.0

     negative rho (up, down):  6.127E-04 2.039E-02

     total cpu time spent up to now is    19447.1 secs

     total energy              =    -860.05011134 Ry
     Harris-Foulkes estimate   =    -860.05013522 Ry
     estimated scf accuracy    <       0.00003500 Ry

     total magnetization       =     2.01 Bohr mag/cell
     absolute magnetization    =     2.82 Bohr mag/cell

     iteration #192     ecut=    70.00 Ry     beta= 0.30
     Davidson diagonalization with overlap
     ethr =  9.51E-09,  avg # of iterations =  2.0

     negative rho (up, down):  6.128E-04 2.033E-02

     total cpu time spent up to now is    19552.9 secs

     total energy              =    -860.05011756 Ry
     Harris-Foulkes estimate   =    -860.05012070 Ry
     estimated scf accuracy    <       0.00004693 Ry

     total magnetization       =     2.00 Bohr mag/cell
     absolute magnetization    =     2.81 Bohr mag/cell

     iteration #193     ecut=    70.00 Ry     beta= 0.30
     Davidson diagonalization with overlap
     ethr =  9.51E-09,  avg # of iterations =  2.0

     negative rho (up, down):  6.125E-04 2.421E-02

     total cpu time spent up to now is    19649.3 secs

     total energy              =    -860.05008484 Ry
     Harris-Foulkes estimate   =    -860.05011914 Ry
     estimated scf accuracy    <       0.00002462 Ry

     total magnetization       =     2.00 Bohr mag/cell
     absolute magnetization    =     2.81 Bohr mag/cell

     iteration #194     ecut=    70.00 Ry     beta= 0.30
     Davidson diagonalization with overlap
     ethr =  9.51E-09,  avg # of iterations =  3.0

     negative rho (up, down):  6.123E-04 2.440E-02

     total cpu time spent up to now is    19757.7 secs

     total energy              =    -860.05009492 Ry
     Harris-Foulkes estimate   =    -860.05010249 Ry
     estimated scf accuracy    <       0.00001345 Ry

     total magnetization       =     2.01 Bohr mag/cell
     absolute magnetization    =     2.82 Bohr mag/cell

     iteration #195     ecut=    70.00 Ry     beta= 0.30
     Davidson diagonalization with overlap
     ethr =  6.29E-09,  avg # of iterations =  2.0

     negative rho (up, down):  6.121E-04 2.082E-02

     total cpu time spent up to now is    19864.9 secs

     total energy              =    -860.05010384 Ry
     Harris-Foulkes estimate   =    -860.05010134 Ry
     estimated scf accuracy    <       0.00001001 Ry

     total magnetization       =     2.01 Bohr mag/cell
     absolute magnetization    =     2.83 Bohr mag/cell

     iteration #196     ecut=    70.00 Ry     beta= 0.30
     Davidson diagonalization with overlap
     ethr =  4.68E-09,  avg # of iterations =  2.0

     negative rho (up, down):  6.120E-04 1.774E-02

     total cpu time spent up to now is    19959.4 secs

     total energy              =    -860.05010506 Ry
     Harris-Foulkes estimate   =    -860.05010455 Ry
     estimated scf accuracy    <       0.00001080 Ry

     total magnetization       =     2.01 Bohr mag/cell
     absolute magnetization    =     2.84 Bohr mag/cell

     iteration #197     ecut=    70.00 Ry     beta= 0.30
     Davidson diagonalization with overlap
     ethr =  4.68E-09,  avg # of iterations =  2.0

     negative rho (up, down):  6.122E-04 1.673E-02

     total cpu time spent up to now is    20062.3 secs

     total energy              =    -860.05010439 Ry
     Harris-Foulkes estimate   =    -860.05010706 Ry
     estimated scf accuracy    <       0.00000223 Ry

     total magnetization       =     2.01 Bohr mag/cell
     absolute magnetization    =     2.85 Bohr mag/cell

     iteration #198     ecut=    70.00 Ry     beta= 0.30
     Davidson diagonalization with overlap
     ethr =  1.04E-09,  avg # of iterations =  3.0

     negative rho (up, down):  6.120E-04 1.545E-02

     total cpu time spent up to now is    20192.3 secs

     total energy              =    -860.05010858 Ry
     Harris-Foulkes estimate   =    -860.05010788 Ry
     estimated scf accuracy    <       0.00000155 Ry

     total magnetization       =     2.02 Bohr mag/cell
     absolute magnetization    =     2.87 Bohr mag/cell

     iteration #199     ecut=    70.00 Ry     beta= 0.30
     Davidson diagonalization with overlap
     ethr =  7.25E-10,  avg # of iterations =  2.0

     negative rho (up, down):  6.119E-04 1.495E-02

     total cpu time spent up to now is    20286.1 secs

     total energy              =    -860.05010781 Ry
     Harris-Foulkes estimate   =    -860.05010865 Ry
     estimated scf accuracy    <       0.00000106 Ry

     total magnetization       =     2.02 Bohr mag/cell
     absolute magnetization    =     2.87 Bohr mag/cell

     iteration #200     ecut=    70.00 Ry     beta= 0.30
     Davidson diagonalization with overlap
     ethr =  4.95E-10,  avg # of iterations =  3.0

     negative rho (up, down):  6.117E-04 1.411E-02

     Magnetic moment per site:
     atom:    1    charge:    0.2107    magn:    0.0008    constr:    0.0000
     atom:    2    charge:    0.2108    magn:    0.0008    constr:    0.0000
     atom:    3    charge:    1.7169    magn:   -0.0099    constr:    0.0000
     atom:    4    charge:    1.7151    magn:    0.0165    constr:    0.0000
     atom:    5    charge:    1.7177    magn:   -0.0071    constr:    0.0000
     atom:    6    charge:    1.7142    magn:    0.0046    constr:    0.0000
     atom:    7    charge:    1.7173    magn:   -0.0053    constr:    0.0000
     atom:    8    charge:    1.7157    magn:    0.0120    constr:    0.0000
     atom:    9    charge:    1.7163    magn:   -0.0092    constr:    0.0000
     atom:   10    charge:    1.7174    magn:    0.0355    constr:    0.0000
     atom:   11    charge:    1.7168    magn:   -0.0131    constr:    0.0000
     atom:   12    charge:    1.7151    magn:    0.0528    constr:    0.0000
     atom:   13    charge:    1.7173    magn:   -0.0144    constr:    0.0000
     atom:   14    charge:    1.7169    magn:    0.0312    constr:    0.0000
     atom:   15    charge:    1.7132    magn:   -0.0093    constr:    0.0000
     atom:   16    charge:    1.7126    magn:    0.0391    constr:    0.0000
     atom:   17    charge:    1.7220    magn:   -0.0072    constr:    0.0000
     atom:   18    charge:    1.7133    magn:    0.0363    constr:    0.0000
     atom:   19    charge:    1.7134    magn:   -0.0094    constr:    0.0000
     atom:   20    charge:    1.7162    magn:    0.0383    constr:    0.0000
     atom:   21    charge:    1.7168    magn:   -0.0130    constr:    0.0000
     atom:   22    charge:    1.7148    magn:    0.0550    constr:    0.0000
     atom:   23    charge:    1.7171    magn:   -0.0101    constr:    0.0000
     atom:   24    charge:    1.7151    magn:    0.0168    constr:    0.0000
     atom:   25    charge:    1.7133    magn:   -0.0092    constr:    0.0000
     atom:   26    charge:    1.7124    magn:    0.0409    constr:    0.0000
     atom:   27    charge:    1.8520    magn:   -0.0187    constr:    0.0000
     atom:   28    charge:   11.1510    magn:    0.5134    constr:    0.0000
     atom:   29    charge:    1.8524    magn:   -0.0126    constr:    0.0000
     atom:   30    charge:    1.7114    magn:    0.0524    constr:    0.0000
     atom:   31    charge:    1.7136    magn:   -0.0098    constr:    0.0000
     atom:   32    charge:    1.7155    magn:    0.0146    constr:    0.0000
     atom:   33    charge:    1.7174    magn:   -0.0060    constr:    0.0000
     atom:   34    charge:    1.7141    magn:    0.0114    constr:    0.0000
     atom:   35    charge:    1.7177    magn:   -0.0071    constr:    0.0000
     atom:   36    charge:    1.7142    magn:    0.0047    constr:    0.0000
     atom:   37    charge:    1.7221    magn:   -0.0079    constr:    0.0000
     atom:   38    charge:    1.7130    magn:    0.0393    constr:    0.0000
     atom:   39    charge:    1.8527    magn:   -0.0130    constr:    0.0000
     atom:   40    charge:    1.7112    magn:    0.0536    constr:    0.0000
     atom:   41    charge:    1.7225    magn:   -0.0077    constr:    0.0000
     atom:   42    charge:    1.7145    magn:    0.0038    constr:    0.0000
     atom:   43    charge:    1.7174    magn:   -0.0061    constr:    0.0000
     atom:   44    charge:    1.7142    magn:    0.0111    constr:    0.0000
     atom:   45    charge:    1.7229    magn:   -0.0020    constr:    0.0000
     atom:   46    charge:    1.7146    magn:    0.0075    constr:    0.0000
     atom:   47    charge:    1.7173    magn:   -0.0054    constr:    0.0000
     atom:   48    charge:    1.7158    magn:    0.0118    constr:    0.0000
     atom:   49    charge:    1.7135    magn:   -0.0097    constr:    0.0000
     atom:   50    charge:    1.7159    magn:    0.0408    constr:    0.0000
     atom:   51    charge:    1.7137    magn:   -0.0102    constr:    0.0000
     atom:   52    charge:    1.7156    magn:    0.0139    constr:    0.0000

     total cpu time spent up to now is    20399.1 secs

     End of self-consistent calculation

 ------ SPIN UP ------------


          k = 0.0000 0.0000 0.0000 ( 87777 PWs)   bands (ev):

   -88.9763 -55.8776 -55.7554 -54.2587 -19.8204 -18.9993 -18.9711 -18.8905
   -18.8793 -18.8715 -18.5524 -17.1366 -17.1142 -17.1092 -17.0509 -17.0410
   -16.7379 -16.2779 -16.2677 -16.1680 -16.1310 -16.1247 -15.4567 -14.2029
   -14.1614 -14.0947 -14.0389 -14.0318 -13.3961 -13.1116 -13.1050 -13.0792
   -12.8125 -12.8079 -12.3900 -11.9008 -11.8946 -11.6992 -11.4623 -11.4569
   -10.5969  -9.7875  -9.7805  -9.4856  -9.3588  -9.3573  -9.2684  -9.2398
    -9.2377  -9.2268  -8.7790  -8.7749  -8.2642  -8.2550  -8.1450  -7.9766
    -7.8784  -7.4880  -7.4809  -7.3201  -7.2307  -7.2065  -7.0508  -7.0481
    -6.8850  -6.8723  -6.8523  -6.7636  -6.7396  -6.6140  -6.5935  -6.5763
    -6.5688  -6.5618  -6.5214  -6.3510  -5.7594  -5.7305  -5.7228  -5.6981
    -5.4438  -5.4371  -5.3878  -5.0285  -4.9269  -4.7860  -4.7591  -4.7493
    -4.5382  -4.5329  -4.4397  -4.3047  -4.2756  -3.9126  -3.9049  -3.8250
    -3.7296  -3.7227  -3.1882  -2.9102  -2.8903  -1.9135  -1.8464  -1.8412
    -1.5096  -1.3134  -1.1883  -0.9076   0.8794   0.9253   0.9298   1.4141
     1.4510   1.5623   2.2407   2.2719   2.5377   2.7310   2.7317   2.8194
     3.2874   3.3364   3.4846   3.4911   3.6650   3.7516   3.7586   3.7595

     occupation numbers 
     1.0000   1.0000   1.0000   1.0000   1.0000   1.0000   1.0000   1.0000
     1.0000   1.0000   1.0000   1.0000   1.0000   1.0000   1.0000   1.0000
     1.0000   1.0000   1.0000   1.0000   1.0000   1.0000   1.0000   1.0000
     1.0000   1.0000   1.0000   1.0000   1.0000   1.0000   1.0000   1.0000
     1.0000   1.0000   1.0000   1.0000   1.0000   1.0000   1.0000   1.0000
     1.0000   1.0000   1.0000   1.0000   1.0000   1.0000   1.0000   1.0000
     1.0000   1.0000   1.0000   1.0000   1.0000   1.0000   1.0000   1.0000
     1.0000   1.0000   1.0000   1.0000   1.0000   1.0000   1.0000   1.0000
     1.0000   1.0000   1.0000   1.0000   1.0000   1.0000   1.0000   1.0000
     1.0000   1.0000   1.0000   1.0000   1.0000   1.0000   1.0000   1.0000
     1.0000   1.0000   1.0000   1.0000   1.0000   1.0000   1.0000   1.0000
     1.0000   1.0000   1.0000   1.0000   1.0000   1.0000   1.0000   1.0000
     1.0000   1.0000   1.0000   1.0000   1.0000   1.0000   1.0000   1.0000
     1.0000   1.0000   1.0000   1.0080   0.0000   0.0000   0.0000   0.0000
     0.0000   0.0000   0.0000   0.0000   0.0000   0.0000   0.0000   0.0000
     0.0000   0.0000   0.0000   0.0000   0.0000   0.0000   0.0000   0.0000

 ------ SPIN DOWN ----------


          k = 0.0000 0.0000 0.0000 ( 87777 PWs)   bands (ev):

   -88.1556 -55.1728 -55.1375 -53.2191 -19.7850 -18.9561 -18.9311 -18.8618
   -18.8546 -18.8497 -18.5009 -17.0992 -17.0895 -17.0830 -17.0051 -16.9974
   -16.7109 -16.2361 -16.2332 -16.1386 -16.0914 -16.0896 -15.4318 -14.1325
   -14.1095 -14.0453 -14.0292 -14.0213 -13.3960 -13.0878 -13.0830 -13.0525
   -12.7926 -12.7919 -12.3618 -11.8672 -11.8594 -11.6782 -11.4396 -11.4388
   -10.5696  -9.7316  -9.7262  -9.4585  -9.3307  -9.3304  -9.2536  -9.2195
    -9.2185  -9.2115  -8.7654  -8.7623  -8.2236  -8.2155  -8.1196  -7.8948
    -7.8634  -7.4760  -7.4674  -7.2815  -7.0645  -7.0577  -6.9964  -6.9959
    -6.8174  -6.8087  -6.7907  -6.7505  -6.6865  -6.5978  -6.5798  -6.5670
    -6.5577  -6.5507  -6.5049  -6.2748  -5.6645  -5.6590  -5.5030  -5.5025
    -5.3997  -5.3947  -5.2261  -5.0158  -4.9190  -4.7209  -4.6797  -4.6786
    -4.4548  -4.4466  -4.3729  -4.1804  -4.1770  -3.8023  -3.7966  -3.7458
    -3.7146  -3.7092  -3.1360  -2.6847  -2.6772  -1.8218  -1.8167  -1.7855
    -0.9320  -0.8848  -0.8478  -0.7970   0.9656   0.9704   1.0053   1.5713
     1.5717   1.6729   2.4292   2.4488   2.5480   2.8429   2.8505   2.8843
     3.4210   3.4604   3.5258   3.5840   3.6784   3.7558   3.7621   3.7667

     occupation numbers 
     1.0000   1.0000   1.0000   1.0000   1.0000   1.0000   1.0000   1.0000
     1.0000   1.0000   1.0000   1.0000   1.0000   1.0000   1.0000   1.0000
     1.0000   1.0000   1.0000   1.0000   1.0000   1.0000   1.0000   1.0000
     1.0000   1.0000   1.0000   1.0000   1.0000   1.0000   1.0000   1.0000
     1.0000   1.0000   1.0000   1.0000   1.0000   1.0000   1.0000   1.0000
     1.0000   1.0000   1.0000   1.0000   1.0000   1.0000   1.0000   1.0000
     1.0000   1.0000   1.0000   1.0000   1.0000   1.0000   1.0000   1.0000
     1.0000   1.0000   1.0000   1.0000   1.0000   1.0000   1.0000   1.0000
     1.0000   1.0000   1.0000   1.0000   1.0000   1.0000   1.0000   1.0000
     1.0000   1.0000   1.0000   1.0000   1.0000   1.0000   1.0000   1.0000
     1.0000   1.0000   1.0000   1.0000   1.0000   1.0000   1.0000   1.0000
     1.0000   1.0000   1.0000   1.0000   1.0000   1.0000   1.0000   1.0000
     1.0000   1.0000   1.0000   1.0000   1.0000   1.0000   1.0000   1.0000
     1.0000   0.9912   0.0008   0.0000   0.0000   0.0000   0.0000   0.0000
     0.0000   0.0000   0.0000   0.0000   0.0000   0.0000   0.0000   0.0000
     0.0000   0.0000   0.0000   0.0000   0.0000   0.0000   0.0000   0.0000

     the Fermi energy is    -0.8725 ev

!    total energy              =    -860.05010914 Ry
     Harris-Foulkes estimate   =    -860.05010831 Ry
     estimated scf accuracy    <       0.00000059 Ry

     The total energy is the sum of the following terms:

     one-electron contribution =   -2798.36154837 Ry
     hartree contribution      =    1443.22555369 Ry
     xc contribution           =    -259.34938403 Ry
     ewald contribution        =     754.43517518 Ry
     smearing contrib. (-TS)   =       0.00009438 Ry

     total magnetization       =     2.02 Bohr mag/cell
     absolute magnetization    =     2.87 Bohr mag/cell

     convergence has been achieved in 200 iterations

     Writing output data file Hierro-top-distance-3.0.save/

     init_run     :     74.11s CPU     75.44s WALL (       1 calls)
     electrons    :  19946.36s CPU  20322.62s WALL (       1 calls)

     Called by init_run:
     wfcinit      :     42.71s CPU     43.01s WALL (       1 calls)
     wfcinit:atom :      0.05s CPU      0.08s WALL (       2 calls)
     wfcinit:wfcr :     42.31s CPU     42.50s WALL (       2 calls)
     potinit      :     13.10s CPU     13.57s WALL (       1 calls)
     hinit0       :      9.88s CPU      9.91s WALL (       1 calls)

     Called by electrons:
     c_bands      :  12822.25s CPU  12889.70s WALL (     200 calls)
     sum_band     :   4145.56s CPU   4266.63s WALL (     200 calls)
     v_of_rho     :   1425.13s CPU   1503.21s WALL (     201 calls)
     v_h          :     15.64s CPU     16.14s WALL (     201 calls)
     v_xc         :   1409.48s CPU   1487.07s WALL (     201 calls)
     newd         :   1441.30s CPU   1549.37s WALL (     201 calls)
     mix_rho      :     78.70s CPU     80.07s WALL (     200 calls)

     Called by c_bands:
     init_us_2    :     37.50s CPU     37.61s WALL (     802 calls)
     cegterg      :  12726.55s CPU  12793.55s WALL (     400 calls)

     Called by sum_band:
     sum_band:bec :      0.32s CPU      0.32s WALL (     400 calls)
     addusdens    :   2499.01s CPU   2611.23s WALL (     200 calls)

     Called by *egterg:
     h_psi        :   6630.89s CPU   6676.23s WALL (    1316 calls)
     s_psi        :   2248.45s CPU   2249.54s WALL (    1316 calls)
     g_psi        :      7.18s CPU      7.20s WALL (     914 calls)
     cdiaghg      :     84.38s CPU     84.43s WALL (    1314 calls)
     cegterg:over :   1537.27s CPU   1537.93s WALL (     914 calls)
     cegterg:upda :    930.49s CPU    935.75s WALL (     914 calls)
     cegterg:last :    673.24s CPU    673.43s WALL (     400 calls)

     Called by h_psi:
     h_psi:pot    :   6623.62s CPU   6660.44s WALL (    1316 calls)
     h_psi:calbec :   2244.87s CPU   2245.79s WALL (    1316 calls)
     vloc_psi     :   2129.04s CPU   2164.22s WALL (    1316 calls)
     add_vuspsi   :   2249.70s CPU   2250.42s WALL (    1316 calls)

     General routines
     calbec       :   3230.78s CPU   3232.06s WALL (    1716 calls)
     fft          :    865.68s CPU    896.09s WALL (   15069 calls)
     ffts         :     15.06s CPU     15.57s WALL (     802 calls)
     fftw         :   2294.50s CPU   2333.11s WALL (  284824 calls)
     interpolate  :     35.12s CPU     36.07s WALL (     402 calls)

     Parallel routines
     fft_scatt_xy :    552.46s CPU    559.59s WALL (  300695 calls)
     fft_scatt_yz :   1140.53s CPU   1188.84s WALL (  300695 calls)

     PWSCF        :      5h33m CPU      5h39m WALL


   This run was terminated on:  16:17: 3   8Jan2023            

=------------------------------------------------------------------------------=
   JOB DONE.
=------------------------------------------------------------------------------=
