
     Program PWSCF v.6.4.1 starts on 17Jun2022 at 21: 6:28 

     This program is part of the open-source Quantum ESPRESSO suite
     for quantum simulation of materials; please cite
         "P. Giannozzi et al., J. Phys.:Condens. Matter 21 395502 (2009);
         "P. Giannozzi et al., J. Phys.:Condens. Matter 29 465901 (2017);
          URL http://www.quantum-espresso.org", 
     in publications or presentations arising from this work. More details at
     http://www.quantum-espresso.org/quote

     Parallel version (MPI), running on     6 processors

     MPI processes distributed on     1 nodes
     R & G space division:  proc/nbgrp/npool/nimage =       6
     Reading input from H-0.75.in
Warning: card 1  1  1  1  1  1 ignored

     Current dimensions of program PWSCF are:
     Max number of different atomic species (ntypx) = 10
     Max number of k-points (npk) =  40000
     Max angular momentum in pseudopotentials (lmaxx) =  3
               file H.pbe-rrkjus.UPF: wavefunction(s)  1S renormalized

     gamma-point specific algorithms are used

     Subspace diagonalization in iterative solution of the eigenvalue problem:
     a serial algorithm will be used

     Message from routine setup:
     DEPRECATED: symmetry with ibrav=0, use correct ibrav instead

     Parallelization info
     --------------------
     sticks:   dense  smooth     PW     G-vecs:    dense   smooth      PW
     Min        3788    1513    373               429728   108775   13549
     Max        3790    1516    378               429734   108784   13556
     Sum       22733    9085   2253              2578383   652671   81313



     bravais-lattice index     =            0
     lattice parameter (alat)  =      18.8973  a.u.
     unit-cell volume          =    6748.3346 (a.u.)^3
     number of atoms/cell      =            2
     number of atomic types    =            1
     number of electrons       =         2.00
     number of Kohn-Sham states=            5
     kinetic-energy cutoff     =      80.0000  Ry
     charge density cutoff     =     800.0000  Ry
     convergence threshold     =      1.0E-06
     mixing beta               =       0.7000
     number of iterations used =            8  plain     mixing
     Exchange-correlation      =  SLA  PW   PBE  PBE ( 1  4  3  4 0 0)
     nstep                     =           50


     celldm(1)=  18.897261  celldm(2)=   0.000000  celldm(3)=   0.000000
     celldm(4)=   0.000000  celldm(5)=   0.000000  celldm(6)=   0.000000

     crystal axes: (cart. coord. in units of alat)
               a(1) = (   1.000000   0.000000   0.000000 )  
               a(2) = (   0.000000   1.000000   0.000000 )  
               a(3) = (   0.000000   0.000000   1.000000 )  

     reciprocal axes: (cart. coord. in units 2 pi/alat)
               b(1) = (  1.000000  0.000000  0.000000 )  
               b(2) = (  0.000000  1.000000  0.000000 )  
               b(3) = (  0.000000  0.000000  1.000000 )  


     PseudoPot. # 1 for H  read from file:
     ./H.pbe-rrkjus.UPF
     MD5 check sum: 7cc9d459525c9a0585f487a71c3c9563
     Pseudo is Ultrasoft, Zval =  1.0
     Generated by new atomic code, or converted to UPF format
     Using radial grid of 1061 points,  2 beta functions with: 
                l(1) =   0
                l(2) =   0
     Q(r) pseudized with 0 coefficients 


     atomic species   valence    mass     pseudopotential
        H              1.00     1.00794     H ( 1.00)

      8 Sym. Ops. (no inversion) found



   Cartesian axes

     site n.     atom                  positions (alat units)
         1           H   tau(   1) = (   0.5000000   0.5000000   0.5000000  )
         2           H   tau(   2) = (   0.5000000   0.5000000   0.5750000  )

     number of k points=     1  Methfessel-Paxton smearing, width (Ry)=  0.0200
                       cart. coord. in units 2pi/alat
        k(    1) = (   0.0000000   0.0000000   0.0000000), wk =   2.0000000

     Dense  grid:  1289192 G-vectors     FFT dimensions: ( 180, 180, 180)

     Smooth grid:   326336 G-vectors     FFT dimensions: ( 108, 108, 108)

     Estimated max dynamical RAM per process >     190.41 MB

     Estimated total dynamical RAM >       1.12 GB

     Initial potential from superposition of free atoms

     starting charge    1.80759, renormalised to    2.00000

     negative rho (up, down):  9.346E-04 0.000E+00
     Starting wfcs are    2 randomized atomic wfcs +    3 random wfcs

     total cpu time spent up to now is        2.9 secs

     Self-consistent Calculation

     iteration #  1     ecut=    80.00 Ry     beta= 0.70
     CG style diagonalization
     ethr =  1.00E-02,  avg # of iterations =  7.0

     negative rho (up, down):  2.797E-04 0.000E+00

     total cpu time spent up to now is        6.0 secs

     total energy              =      -2.29793110 Ry
     Harris-Foulkes estimate   =      -2.70542568 Ry
     estimated scf accuracy    <       0.62949802 Ry

     iteration #  2     ecut=    80.00 Ry     beta= 0.70
     CG style diagonalization
     ethr =  1.00E-02,  avg # of iterations =  3.4

     negative rho (up, down):  9.225E-05 0.000E+00

     total cpu time spent up to now is        8.4 secs

     total energy              =      -2.32848451 Ry
     Harris-Foulkes estimate   =      -2.33777074 Ry
     estimated scf accuracy    <       0.01744565 Ry

     iteration #  3     ecut=    80.00 Ry     beta= 0.70
     CG style diagonalization
     ethr =  8.72E-04,  avg # of iterations =  4.8

     negative rho (up, down):  3.802E-05 0.000E+00

     total cpu time spent up to now is       10.8 secs

     total energy              =      -2.33120737 Ry
     Harris-Foulkes estimate   =      -2.33103764 Ry
     estimated scf accuracy    <       0.00084016 Ry

     iteration #  4     ecut=    80.00 Ry     beta= 0.70
     CG style diagonalization
     ethr =  4.20E-05,  avg # of iterations =  4.6

     negative rho (up, down):  4.427E-05 0.000E+00

     total cpu time spent up to now is       13.2 secs

     total energy              =      -2.33122493 Ry
     Harris-Foulkes estimate   =      -2.33126564 Ry
     estimated scf accuracy    <       0.00007697 Ry

     iteration #  5     ecut=    80.00 Ry     beta= 0.70
     CG style diagonalization
     ethr =  3.85E-06,  avg # of iterations =  5.2

     negative rho (up, down):  1.510E-06 0.000E+00

     total cpu time spent up to now is       15.8 secs

     End of self-consistent calculation

          k = 0.0000 0.0000 0.0000 ( 40657 PWs)   bands (ev):

   -10.3076  -0.1807   0.3905   0.9586   0.9586

     the Fermi energy is    -4.6745 ev

!    total energy              =      -2.33123500 Ry
     Harris-Foulkes estimate   =      -2.33123519 Ry
     estimated scf accuracy    <       0.00000020 Ry

     The total energy is the sum of the following terms:

     one-electron contribution =      -3.78781070 Ry
     hartree contribution      =       2.01676797 Ry
     xc contribution           =      -1.37201549 Ry
     ewald contribution        =       0.81182322 Ry
     smearing contrib. (-TS)   =       0.00000000 Ry

     convergence has been achieved in   5 iterations

     Forces acting on atoms (cartesian axes, Ry/au):

     atom    1 type  1   force =     0.00000000    0.00000000   -0.00289599
     atom    2 type  1   force =     0.00000000    0.00000000    0.00289599

     Total force =     0.004096     Total SCF correction =     0.000126

     BFGS Geometry Optimization

     number of scf cycles    =   1
     number of bfgs steps    =   0

     energy   new            =      -2.3312349988 Ry

     new trust radius        =       0.0028959858 bohr
     new conv_thr            =       0.0000010000 Ry


ATOMIC_POSITIONS (angstrom)
H        5.000000000   5.000000000   4.998467510
H        5.000000000   5.000000000   5.751532490



     Writing output data file H-0.75.save/
     Message from routine punch:
     wavefunctions written to file
     NEW-OLD atomic charge density approx. for the potential

     negative rho (up, down):  1.276E-04 0.000E+00

     total cpu time spent up to now is       18.8 secs

     Self-consistent Calculation

     iteration #  1     ecut=    80.00 Ry     beta= 0.70
     CG style diagonalization
     ethr =  1.00E-06,  avg # of iterations =  3.4

     negative rho (up, down):  3.552E-05 0.000E+00

     total cpu time spent up to now is       21.1 secs

     total energy              =      -2.33123883 Ry
     Harris-Foulkes estimate   =      -2.33124066 Ry
     estimated scf accuracy    <       0.00000435 Ry

     iteration #  2     ecut=    80.00 Ry     beta= 0.70
     CG style diagonalization
     ethr =  2.17E-07,  avg # of iterations =  3.4

     negative rho (up, down):  1.489E-06 0.000E+00

     total cpu time spent up to now is       23.1 secs

     End of self-consistent calculation

          k = 0.0000 0.0000 0.0000 ( 40657 PWs)   bands (ev):

   -10.2970  -0.1891   0.3760   0.9502   0.9501

     the Fermi energy is    -4.6735 ev

!    total energy              =      -2.33123921 Ry
     Harris-Foulkes estimate   =      -2.33123918 Ry
     estimated scf accuracy    <       0.00000006 Ry

     The total energy is the sum of the following terms:

     one-electron contribution =      -3.77992248 Ry
     hartree contribution      =       2.01272402 Ry
     xc contribution           =      -1.37013100 Ry
     ewald contribution        =       0.80609026 Ry
     smearing contrib. (-TS)   =       0.00000000 Ry

     convergence has been achieved in   2 iterations

     Forces acting on atoms (cartesian axes, Ry/au):

     atom    1 type  1   force =     0.00000000    0.00000000    0.00138783
     atom    2 type  1   force =     0.00000000    0.00000000   -0.00138783

     Total force =     0.001963     Total SCF correction =     0.000149

     number of scf cycles    =   2
     number of bfgs steps    =   1

     energy   old            =      -2.3312349988 Ry
     energy   new            =      -2.3312392079 Ry

     CASE: energy  _new < energy  _old

     new trust radius        =       0.0009382131 bohr
     new conv_thr            =       0.0000000100 Ry


ATOMIC_POSITIONS (angstrom)
H        5.000000000   5.000000000   4.998963991
H        5.000000000   5.000000000   5.751036009



     Writing output data file H-0.75.save/
     Message from routine punch:
     wavefunctions written to file
     NEW-OLD atomic charge density approx. for the potential

     negative rho (up, down):  4.842E-05 0.000E+00

     total cpu time spent up to now is       26.4 secs

     Self-consistent Calculation

     iteration #  1     ecut=    80.00 Ry     beta= 0.70
     CG style diagonalization
     ethr =  1.00E-06,  avg # of iterations =  2.2

     Threshold (ethr) on eigenvalues was too large:
     Diagonalizing with lowered threshold

     CG style diagonalization
     ethr =  3.11E-08,  avg # of iterations =  2.0

     negative rho (up, down):  1.310E-05 0.000E+00

     total cpu time spent up to now is       29.6 secs

     total energy              =      -2.33124046 Ry
     Harris-Foulkes estimate   =      -2.33124083 Ry
     estimated scf accuracy    <       0.00000063 Ry

     iteration #  2     ecut=    80.00 Ry     beta= 0.70
     CG style diagonalization
     ethr =  3.15E-08,  avg # of iterations =  3.0

     negative rho (up, down):  1.490E-06 0.000E+00

     total cpu time spent up to now is       31.8 secs

     End of self-consistent calculation

          k = 0.0000 0.0000 0.0000 ( 40657 PWs)   bands (ev):

   -10.3027  -0.1736   0.3821   0.9576   0.9577

     the Fermi energy is    -4.6725 ev

!    total energy              =      -2.33124051 Ry
     Harris-Foulkes estimate   =      -2.33124052 Ry
     estimated scf accuracy    <          7.2E-09 Ry

     The total energy is the sum of the following terms:

     one-electron contribution =      -3.78257030 Ry
     hartree contribution      =       2.01422532 Ry
     xc contribution           =      -1.37083796 Ry
     ewald contribution        =       0.80794244 Ry
     smearing contrib. (-TS)   =       0.00000000 Ry

     convergence has been achieved in   2 iterations

     Forces acting on atoms (cartesian axes, Ry/au):

     atom    1 type  1   force =     0.00000000    0.00000000    0.00006044
     atom    2 type  1   force =     0.00000000    0.00000000   -0.00006044

     Total force =     0.000085     Total SCF correction =     0.000013
     SCF correction compared to forces is large: reduce conv_thr to get better values

     bfgs converged in   3 scf cycles and   2 bfgs steps
     (criteria: energy <  1.0E-04 Ry, force <  1.0E-03 Ry/Bohr)

     End of BFGS Geometry Optimization

     Final energy   =      -2.3312405062 Ry
Begin final coordinates

ATOMIC_POSITIONS (angstrom)
H        5.000000000   5.000000000   4.998963991
H        5.000000000   5.000000000   5.751036009
End final coordinates



     Writing output data file H-0.75.save/

     init_run     :      2.65s CPU      2.87s WALL (       1 calls)
     electrons    :     21.99s CPU     23.01s WALL (       3 calls)
     update_pot   :      3.24s CPU      3.38s WALL (       2 calls)
     forces       :      2.17s CPU      2.22s WALL (       3 calls)

     Called by init_run:
     wfcinit      :      0.10s CPU      0.11s WALL (       1 calls)
     potinit      :      1.58s CPU      1.74s WALL (       1 calls)
     hinit0       :      0.34s CPU      0.36s WALL (       1 calls)

     Called by electrons:
     c_bands      :      4.71s CPU      4.77s WALL (      10 calls)
     sum_band     :      2.75s CPU      2.82s WALL (      10 calls)
     v_of_rho     :     12.53s CPU     13.41s WALL (      12 calls)
     newd         :      1.94s CPU      2.01s WALL (      12 calls)
     mix_rho      :      1.70s CPU      1.75s WALL (      10 calls)

     Called by c_bands:
     init_us_2    :      0.01s CPU      0.01s WALL (      21 calls)
     rcgdiagg     :      4.23s CPU      4.28s WALL (      10 calls)
     wfcrot       :      0.56s CPU      0.58s WALL (       7 calls)

     Called by sum_band:
     sum_band:bec :      0.00s CPU      0.00s WALL (      10 calls)
     addusdens    :      0.55s CPU      0.55s WALL (      10 calls)

     Called by *cgdiagg:
     h_psi        :      4.67s CPU      4.72s WALL (     172 calls)
     s_psi        :      0.01s CPU      0.01s WALL (     337 calls)
     rdiaghg      :      0.00s CPU      0.02s WALL (       7 calls)

     Called by h_psi:
     h_psi:pot    :      4.66s CPU      4.71s WALL (     172 calls)
     h_psi:calbec :      0.05s CPU      0.05s WALL (     172 calls)
     vloc_psi     :      4.60s CPU      4.65s WALL (     172 calls)
     add_vuspsi   :      0.01s CPU      0.01s WALL (     172 calls)
     hs_1psi      :      4.13s CPU      4.18s WALL (     165 calls)
     s_1psi       :      0.02s CPU      0.02s WALL (     165 calls)

     General routines
     calbec       :      0.08s CPU      0.09s WALL (     359 calls)
     fft          :     15.96s CPU     16.66s WALL (     135 calls)
     ffts         :      0.45s CPU      0.46s WALL (      22 calls)
     fftw         :      3.13s CPU      3.18s WALL (     402 calls)
     interpolate  :      1.91s CPU      1.95s WALL (      12 calls)
     davcio       :      0.00s CPU      0.00s WALL (       2 calls)

     Parallel routines
     fft_scatt_xy :      2.27s CPU      2.29s WALL (     559 calls)
     fft_scatt_yz :      8.24s CPU      8.81s WALL (     559 calls)

     PWSCF        :     31.19s CPU     32.77s WALL


   This run was terminated on:  21: 7: 1  17Jun2022            

=------------------------------------------------------------------------------=
   JOB DONE.
=------------------------------------------------------------------------------=
