
     Program PWSCF v.6.4.1 starts on 19Jun2022 at 13:30:16 

     This program is part of the open-source Quantum ESPRESSO suite
     for quantum simulation of materials; please cite
         "P. Giannozzi et al., J. Phys.:Condens. Matter 21 395502 (2009);
         "P. Giannozzi et al., J. Phys.:Condens. Matter 29 465901 (2017);
          URL http://www.quantum-espresso.org", 
     in publications or presentations arising from this work. More details at
     http://www.quantum-espresso.org/quote

     Parallel version (MPI), running on     5 processors

     MPI processes distributed on     1 nodes
     R & G space division:  proc/nbgrp/npool/nimage =       5
     Reading input from distance-4.5.in

     Current dimensions of program PWSCF are:
     Max number of different atomic species (ntypx) = 10
     Max number of k-points (npk) =  40000
     Max angular momentum in pseudopotentials (lmaxx) =  3

     IMPORTANT: XC functional enforced from input :
     Exchange-correlation      = RVV10 ( 1  4 13  4 3 0)
     Any further DFT definition will be discarded
     Please, verify this is what you really want

               file H.pbe-rrkjus.UPF: wavefunction(s)  1S renormalized
               file H.pbe-rrkjus.UPF: wavefunction(s)  1S renormalized

     Subspace diagonalization in iterative solution of the eigenvalue problem:
     a serial algorithm will be used


     Parallelization info
     --------------------
     sticks:   dense  smooth     PW     G-vecs:    dense   smooth      PW
     Min        3662    2095    542               487826   210779   27834
     Max        3663    2096    543               487829   210784   27841
     Sum       18313   10477   2713              2439139  1053907  139193



     bravais-lattice index     =            4
     lattice parameter (alat)  =      23.2937  a.u.
     unit-cell volume          =   13319.7822 (a.u.)^3
     number of atoms/cell      =           52
     number of atomic types    =            3
     number of electrons       =       202.00
     number of Kohn-Sham states=          121
     kinetic-energy cutoff     =      70.0000  Ry
     charge density cutoff     =     490.0000  Ry
     convergence threshold     =      1.0E-06
     mixing beta               =       0.7000
     number of iterations used =            8  plain     mixing
     Exchange-correlation      = RVV10 ( 1  4 13  4 3 0)

     celldm(1)=  23.293684  celldm(2)=   0.000000  celldm(3)=   1.216892
     celldm(4)=   0.000000  celldm(5)=   0.000000  celldm(6)=   0.000000

     crystal axes: (cart. coord. in units of alat)
               a(1) = (   1.000000   0.000000   0.000000 )  
               a(2) = (  -0.500000   0.866025   0.000000 )  
               a(3) = (   0.000000   0.000000   1.216892 )  

     reciprocal axes: (cart. coord. in units 2 pi/alat)
               b(1) = (  1.000000  0.577350 -0.000000 )  
               b(2) = (  0.000000  1.154701  0.000000 )  
               b(3) = (  0.000000 -0.000000  0.821766 )  


     PseudoPot. # 1 for H  read from file:
     /home/cristian/Escritorio/Proyecto_Grafeno/pseudopotenciales/H.pbe-rrkjus.UPF
     MD5 check sum: 7cc9d459525c9a0585f487a71c3c9563
     Pseudo is Ultrasoft, Zval =  1.0
     Generated by new atomic code, or converted to UPF format
     Using radial grid of 1061 points,  2 beta functions with: 
                l(1) =   0
                l(2) =   0
     Q(r) pseudized with 0 coefficients 


     PseudoPot. # 2 for H  read from file:
     /home/cristian/Escritorio/Proyecto_Grafeno/pseudopotenciales/H.pbe-rrkjus.UPF
     MD5 check sum: 7cc9d459525c9a0585f487a71c3c9563
     Pseudo is Ultrasoft, Zval =  1.0
     Generated by new atomic code, or converted to UPF format
     Using radial grid of 1061 points,  2 beta functions with: 
                l(1) =   0
                l(2) =   0
     Q(r) pseudized with 0 coefficients 


     PseudoPot. # 3 for C  read from file:
     /home/cristian/Escritorio/Proyecto_Grafeno/pseudopotenciales/C.pbe-n-rrkjus_psl.1.0.0.UPF
     MD5 check sum: 1fdd950c42eb37d8afe3dd2f8d12311e
     Pseudo is Ultrasoft + core correction, Zval =  4.0
     Generated using "atomic" code by A. Dal Corso v.6.3MaX
     Using radial grid of 1073 points,  4 beta functions with: 
                l(1) =   0
                l(2) =   0
                l(3) =   1
                l(4) =   1
     Q(r) pseudized with 0 coefficients 


     vdW kernel table read from file rVV10_kernel_table
     MD5 check sum: b8e2538accc0c0b3206b45ba4daaba6c

     atomic species   valence    mass     pseudopotential
        H1             1.00     1.00794     H ( 1.00)
        H2             1.00     1.00794     H ( 1.00)
        C              4.00    12.01070     C ( 1.00)

      2 Sym. Ops. (no inversion) found



   Cartesian axes

     site n.     atom                  positions (alat units)
         1           H1  tau(   1) = (   0.2500000   0.4330127   0.3650675  )
         2           H2  tau(   2) = (   0.2500000   0.4330127   0.4260802  )
         3           C   tau(   3) = (   0.0000000   0.0000000   0.0000000  )
         4           C   tau(   4) = (   0.0000000   0.1154701   0.0000000  )
         5           C   tau(   5) = (  -0.1000000   0.1732051   0.0000000  )
         6           C   tau(   6) = (  -0.1000000   0.2886751   0.0000000  )
         7           C   tau(   7) = (  -0.2000000   0.3464102   0.0000000  )
         8           C   tau(   8) = (  -0.2000000   0.4618802   0.0000000  )
         9           C   tau(   9) = (  -0.3000000   0.5196152   0.0000000  )
        10           C   tau(  10) = (  -0.3000000   0.6350853   0.0000000  )
        11           C   tau(  11) = (  -0.4000000   0.6928203   0.0000000  )
        12           C   tau(  12) = (  -0.4000000   0.8082904   0.0000000  )
        13           C   tau(  13) = (   0.2000000   0.0000000   0.0000000  )
        14           C   tau(  14) = (   0.2000000   0.1154701   0.0000000  )
        15           C   tau(  15) = (   0.1000000   0.1732051   0.0000000  )
        16           C   tau(  16) = (   0.1000000   0.2886751   0.0000000  )
        17           C   tau(  17) = (   0.0000000   0.3464102   0.0000000  )
        18           C   tau(  18) = (   0.0000000   0.4618802   0.0000000  )
        19           C   tau(  19) = (  -0.1000000   0.5196152   0.0000000  )
        20           C   tau(  20) = (  -0.1000000   0.6350853   0.0000000  )
        21           C   tau(  21) = (  -0.2000000   0.6928203   0.0000000  )
        22           C   tau(  22) = (  -0.2000000   0.8082904   0.0000000  )
        23           C   tau(  23) = (   0.4000000   0.0000000   0.0000000  )
        24           C   tau(  24) = (   0.4000000   0.1154701   0.0000000  )
        25           C   tau(  25) = (   0.3000000   0.1732051   0.0000000  )
        26           C   tau(  26) = (   0.3000000   0.2886751   0.0000000  )
        27           C   tau(  27) = (   0.2000000   0.3464102   0.0000000  )
        28           C   tau(  28) = (   0.2000000   0.4618802   0.0000000  )
        29           C   tau(  29) = (   0.1000000   0.5196152   0.0000000  )
        30           C   tau(  30) = (   0.1000000   0.6350853   0.0000000  )
        31           C   tau(  31) = (   0.0000000   0.6928203   0.0000000  )
        32           C   tau(  32) = (   0.0000000   0.8082904   0.0000000  )
        33           C   tau(  33) = (   0.6000000   0.0000000   0.0000000  )
        34           C   tau(  34) = (   0.6000000   0.1154701   0.0000000  )
        35           C   tau(  35) = (   0.5000000   0.1732051   0.0000000  )
        36           C   tau(  36) = (   0.5000000   0.2886751   0.0000000  )
        37           C   tau(  37) = (   0.4000000   0.3464102   0.0000000  )
        38           C   tau(  38) = (   0.4000000   0.4618802   0.0000000  )
        39           C   tau(  39) = (   0.3000000   0.5196152   0.0000000  )
        40           C   tau(  40) = (   0.3000000   0.6350853   0.0000000  )
        41           C   tau(  41) = (   0.2000000   0.6928203   0.0000000  )
        42           C   tau(  42) = (   0.2000000   0.8082904   0.0000000  )
        43           C   tau(  43) = (   0.8000000   0.0000000   0.0000000  )
        44           C   tau(  44) = (   0.8000000   0.1154701   0.0000000  )
        45           C   tau(  45) = (   0.7000000   0.1732051   0.0000000  )
        46           C   tau(  46) = (   0.7000000   0.2886751   0.0000000  )
        47           C   tau(  47) = (   0.6000000   0.3464102   0.0000000  )
        48           C   tau(  48) = (   0.6000000   0.4618802   0.0000000  )
        49           C   tau(  49) = (   0.5000000   0.5196152   0.0000000  )
        50           C   tau(  50) = (   0.5000000   0.6350853   0.0000000  )
        51           C   tau(  51) = (   0.4000000   0.6928203   0.0000000  )
        52           C   tau(  52) = (   0.4000000   0.8082904   0.0000000  )

     number of k points=     3  Marzari-Vanderbilt smearing, width (Ry)=  0.0010
                       cart. coord. in units 2pi/alat
        k(    1) = (   0.0000000   0.0000000   0.0000000), wk =   0.5000000
        k(    2) = (   0.0000000  -0.5773503   0.0000000), wk =   1.0000000
        k(    3) = (   0.5000000  -0.2886751   0.0000000), wk =   0.5000000

     Dense  grid:  2439139 G-vectors     FFT dimensions: ( 180, 180, 200)

     Smooth grid:  1053907 G-vectors     FFT dimensions: ( 125, 125, 160)

     Estimated max dynamical RAM per process >       1.34 GB

     Estimated total dynamical RAM >       6.71 GB

     Check: negative core charge=   -0.000001

     Initial potential from superposition of free atoms

     starting charge  201.80551, renormalised to  202.00000

     negative rho (up, down):  8.149E-04 0.000E+00


---------------------------------------------------------------------------------
Carrying out rVV10 run using the following parameters:
Nqs =      20    Nr_points =    1024   r_max =   100.000
b_value =  6.30000    beta =  0.00901
     q_mesh =  0.00010000  0.00030000  0.00058939  0.00100810
               0.00161396  0.00249058  0.00375900  0.00559430
               0.00824984  0.01209221  0.01765183  0.02569619
               0.03733578  0.05417739  0.07854596  0.11380545
               0.16482331  0.23864234  0.34545298  0.50000000

Gradients computed in Reciprocal space

---------------------------------------------------------------------------------


     Starting wfcs are  202 randomized atomic wfcs

     total cpu time spent up to now is      131.5 secs

     Self-consistent Calculation

     iteration #  1     ecut=    70.00 Ry     beta= 0.70
     Davidson diagonalization with overlap
     ethr =  1.00E-02,  avg # of iterations =  2.0

     negative rho (up, down):  8.197E-04 0.000E+00

     total cpu time spent up to now is      349.4 secs

     total energy              =    -624.75915781 Ry
     Harris-Foulkes estimate   =    -628.29083236 Ry
     estimated scf accuracy    <       5.87583370 Ry

     iteration #  2     ecut=    70.00 Ry     beta= 0.70
     Davidson diagonalization with overlap
     ethr =  2.91E-03,  avg # of iterations =  7.0

     negative rho (up, down):  9.851E-04 0.000E+00

     total cpu time spent up to now is      545.8 secs

     total energy              =    -625.64278333 Ry
     Harris-Foulkes estimate   =    -625.67701388 Ry
     estimated scf accuracy    <       0.11454901 Ry

     iteration #  3     ecut=    70.00 Ry     beta= 0.70
     Davidson diagonalization with overlap
     ethr =  5.67E-05,  avg # of iterations = 11.7

     negative rho (up, down):  1.064E-03 0.000E+00

     total cpu time spent up to now is      754.5 secs

     total energy              =    -625.64243362 Ry
     Harris-Foulkes estimate   =    -625.66485851 Ry
     estimated scf accuracy    <       0.03618729 Ry

     iteration #  4     ecut=    70.00 Ry     beta= 0.70
     Davidson diagonalization with overlap
     ethr =  1.79E-05,  avg # of iterations = 12.3

     negative rho (up, down):  1.272E-03 0.000E+00

     total cpu time spent up to now is      980.3 secs

     total energy              =    -625.64654557 Ry
     Harris-Foulkes estimate   =    -625.67337214 Ry
     estimated scf accuracy    <       0.07251267 Ry

     iteration #  5     ecut=    70.00 Ry     beta= 0.70
     Davidson diagonalization with overlap
     ethr =  1.79E-05,  avg # of iterations =  8.3

     negative rho (up, down):  1.524E-03 0.000E+00

     total cpu time spent up to now is     1176.3 secs

     total energy              =    -625.65885617 Ry
     Harris-Foulkes estimate   =    -625.65913958 Ry
     estimated scf accuracy    <       0.00049969 Ry

     iteration #  6     ecut=    70.00 Ry     beta= 0.70
     Davidson diagonalization with overlap
     ethr =  2.47E-07,  avg # of iterations =  6.3

     negative rho (up, down):  1.707E-03 0.000E+00

     total cpu time spent up to now is     1381.1 secs

     total energy              =    -625.65899934 Ry
     Harris-Foulkes estimate   =    -625.65908664 Ry
     estimated scf accuracy    <       0.00013455 Ry

     iteration #  7     ecut=    70.00 Ry     beta= 0.70
     Davidson diagonalization with overlap
     ethr =  6.66E-08,  avg # of iterations =  2.0

     negative rho (up, down):  1.716E-03 0.000E+00

     total cpu time spent up to now is     1563.3 secs

     total energy              =    -625.65902638 Ry
     Harris-Foulkes estimate   =    -625.65902946 Ry
     estimated scf accuracy    <       0.00000394 Ry

     iteration #  8     ecut=    70.00 Ry     beta= 0.70
     Davidson diagonalization with overlap
     ethr =  1.95E-09,  avg # of iterations =  2.3

     negative rho (up, down):  1.724E-03 0.000E+00

     total cpu time spent up to now is     1750.5 secs

     End of self-consistent calculation

          k = 0.0000 0.0000 0.0000 (131685 PWs)   bands (ev):

   -21.1894 -20.2539 -20.2527 -20.2527 -20.2524 -20.2522 -20.2521 -18.4177
   -18.4174 -18.4174 -18.4171 -18.4170 -18.4169 -17.5249 -17.5248 -17.5247
   -17.5246 -17.5244 -17.5244 -15.3804 -15.3803 -15.3801 -15.3800 -15.3797
   -15.3795 -14.3722 -14.3721 -14.3721 -14.3717 -14.3717 -14.3717 -13.0313
   -13.0313 -13.0313 -13.0311 -13.0311 -13.0311 -10.6709 -10.6708 -10.6707
   -10.6706 -10.6706 -10.6704 -10.5487 -10.5487 -10.5483 -10.5483 -10.5482
   -10.5481  -9.3222  -9.1758  -9.1758  -9.1756  -9.1756  -9.1755  -9.1755
    -8.2066  -8.2041  -8.2041  -8.2035  -8.2034  -8.2033  -7.9286  -7.9285
    -7.9285  -7.9279  -7.9279  -7.9279  -7.8865  -7.8763  -7.8763  -7.8761
    -7.8759  -7.8759  -7.8757  -6.2817  -6.2817  -6.2814  -6.2813  -6.2813
    -6.2811  -6.0734  -6.0730  -6.0730  -6.0725  -6.0724  -6.0722  -5.1753
    -5.1751  -5.1748  -5.1746  -5.1743  -5.1743  -4.8099  -4.8099  -3.1899
    -3.1897  -3.1894  -3.1893  -3.1889  -3.1887  -0.3946  -0.3945  -0.3944
    -0.3941  -0.3939  -0.3937   1.3044   1.4614   1.4615   1.4616   1.4622
     1.4623   1.4623   2.1972   2.4245   2.5247   2.5253   2.5961   2.5996
     2.6507

          k = 0.0000-0.5774 0.0000 (131762 PWs)   bands (ev):

   -20.9546 -20.9539 -20.4861 -20.4857 -19.5580 -19.5577 -19.5575 -19.5573
   -19.0978 -19.0978 -18.1917 -18.1917 -18.1911 -18.1910 -16.8745 -16.8742
   -16.8740 -16.8739 -16.4688 -16.4687 -16.4684 -16.4684 -15.9843 -15.2574
   -15.2574 -14.9171 -14.0526 -14.0525 -14.0523 -14.0521 -13.5811 -13.5811
   -12.6474 -12.6472 -12.6470 -12.6469 -11.8506 -11.8506 -11.6914 -11.6914
   -11.6911 -11.6911 -10.4720 -10.4720 -10.2436 -10.2432 -10.2429 -10.2428
    -9.2001  -9.2000  -9.2000  -9.2000  -9.0404  -9.0392  -8.8280  -8.8279
    -8.8274  -8.8274  -8.4808  -8.4801  -8.3531  -8.3529  -8.3527  -8.3525
    -8.1602  -7.8872  -7.4404  -7.4404  -7.4402  -7.4402  -7.3871  -7.3868
    -7.3866  -7.3863  -7.2631  -7.2629  -7.0560  -7.0557  -6.8612  -6.8611
    -6.2090  -6.2087  -5.8409  -5.8406  -5.8399  -5.8397  -5.7166  -5.7161
    -5.2767  -5.2762  -4.3995  -4.3989  -4.3988  -4.3985  -4.1955  -4.1954
    -4.1947  -4.1947  -4.0486  -2.7134  -2.7133  -0.6770  -0.6769  -0.0242
     0.3610   0.3612   0.3619   0.3620   1.0092   1.0098   1.0099   1.0102
     1.6133   1.6235   2.2375   2.2404   2.4640   2.5363   2.6280   2.6286
     2.6290

          k = 0.5000-0.2887 0.0000 (131762 PWs)   bands (ev):

   -20.9546 -20.9539 -20.4861 -20.4857 -19.5580 -19.5577 -19.5575 -19.5573
   -19.0978 -19.0978 -18.1917 -18.1917 -18.1910 -18.1910 -16.8745 -16.8742
   -16.8740 -16.8739 -16.4687 -16.4687 -16.4685 -16.4684 -15.9843 -15.2574
   -15.2574 -14.9171 -14.0526 -14.0525 -14.0522 -14.0521 -13.5811 -13.5811
   -12.6474 -12.6472 -12.6470 -12.6468 -11.8506 -11.8506 -11.6914 -11.6914
   -11.6911 -11.6911 -10.4720 -10.4720 -10.2436 -10.2433 -10.2428 -10.2427
    -9.2001  -9.2000  -9.2000  -9.2000  -9.0404  -9.0392  -8.8279  -8.8279
    -8.8274  -8.8274  -8.4808  -8.4801  -8.3530  -8.3530  -8.3525  -8.3525
    -8.1602  -7.8872  -7.4404  -7.4404  -7.4402  -7.4402  -7.3871  -7.3868
    -7.3866  -7.3863  -7.2631  -7.2629  -7.0560  -7.0557  -6.8612  -6.8611
    -6.2090  -6.2087  -5.8408  -5.8408  -5.8398  -5.8397  -5.7167  -5.7161
    -5.2768  -5.2762  -4.3995  -4.3989  -4.3988  -4.3985  -4.1955  -4.1954
    -4.1947  -4.1946  -4.0486  -2.7134  -2.7134  -0.6770  -0.6769  -0.0242
     0.3610   0.3612   0.3620   0.3620   1.0092   1.0098   1.0099   1.0102
     1.6134   1.6235   2.2374   2.2406   2.4638   2.5362   2.6281   2.6286
     2.6287

     the Fermi energy is    -1.8023 ev

!    total energy              =    -625.65902637 Ry
     Harris-Foulkes estimate   =    -625.65902762 Ry
     estimated scf accuracy    <       0.00000035 Ry

     The total energy is the sum of the following terms:

     one-electron contribution =   -3901.72237263 Ry
     hartree contribution      =    1987.77760025 Ry
     xc contribution           =    -235.29636174 Ry
     ewald contribution        =    1523.58210775 Ry
     smearing contrib. (-TS)   =       0.00000000 Ry

     convergence has been achieved in   8 iterations

     Writing output data file gr-12-bridge2.save/

     init_run     :    129.53s CPU    130.94s WALL (       1 calls)
     electrons    :   1604.08s CPU   1619.17s WALL (       1 calls)

     Called by init_run:
     wfcinit      :     86.48s CPU     87.07s WALL (       1 calls)
     potinit      :     21.02s CPU     21.53s WALL (       1 calls)
     hinit0       :     16.60s CPU     16.65s WALL (       1 calls)

     Called by electrons:
     c_bands      :   1303.69s CPU   1310.28s WALL (       8 calls)
     sum_band     :    184.60s CPU    187.26s WALL (       8 calls)
     v_of_rho     :     84.96s CPU     89.42s WALL (       9 calls)
     newd         :     41.30s CPU     43.31s WALL (       9 calls)
     mix_rho      :      1.89s CPU      1.92s WALL (       8 calls)

     Called by c_bands:
     init_us_2    :      3.20s CPU      3.25s WALL (      51 calls)
     cegterg      :   1295.59s CPU   1302.14s WALL (      24 calls)

     Called by sum_band:
     sum_band:bec :      0.02s CPU      0.02s WALL (      24 calls)
     addusdens    :     55.15s CPU     57.15s WALL (       8 calls)

     Called by *egterg:
     h_psi        :    710.30s CPU    715.06s WALL (     183 calls)
     s_psi        :    220.76s CPU    220.82s WALL (     183 calls)
     g_psi        :      0.93s CPU      0.94s WALL (     156 calls)
     cdiaghg      :     15.35s CPU     15.35s WALL (     180 calls)

     Called by h_psi:
     h_psi:pot    :    709.50s CPU    713.34s WALL (     183 calls)
     h_psi:calbec :    222.86s CPU    222.92s WALL (     183 calls)
     vloc_psi     :    265.38s CPU    269.14s WALL (     183 calls)
     add_vuspsi   :    221.26s CPU    221.28s WALL (     183 calls)

     General routines
     calbec       :    297.35s CPU    297.42s WALL (     207 calls)
     fft          :     46.51s CPU     48.17s WALL (     565 calls)
     ffts         :      0.55s CPU      0.56s WALL (      17 calls)
     fftw         :    268.27s CPU    272.03s WALL (   20238 calls)
     interpolate  :      1.18s CPU      1.19s WALL (       9 calls)

     Parallel routines
     fft_scatt_xy :     67.93s CPU     68.20s WALL (   20820 calls)
     fft_scatt_yz :     92.34s CPU     96.34s WALL (   20820 calls)

     PWSCF        :  28m54.49s CPU  29m11.56s WALL


   This run was terminated on:  13:59:28  19Jun2022            

=------------------------------------------------------------------------------=
   JOB DONE.
=------------------------------------------------------------------------------=
