
     Program PWSCF v.6.4.1 starts on 19Jun2022 at 17:19: 0 

     This program is part of the open-source Quantum ESPRESSO suite
     for quantum simulation of materials; please cite
         "P. Giannozzi et al., J. Phys.:Condens. Matter 21 395502 (2009);
         "P. Giannozzi et al., J. Phys.:Condens. Matter 29 465901 (2017);
          URL http://www.quantum-espresso.org", 
     in publications or presentations arising from this work. More details at
     http://www.quantum-espresso.org/quote

     Parallel version (MPI), running on     5 processors

     MPI processes distributed on     1 nodes
     R & G space division:  proc/nbgrp/npool/nimage =       5
     Reading input from distance-2.2.in

     Current dimensions of program PWSCF are:
     Max number of different atomic species (ntypx) = 10
     Max number of k-points (npk) =  40000
     Max angular momentum in pseudopotentials (lmaxx) =  3

     IMPORTANT: XC functional enforced from input :
     Exchange-correlation      = RVV10 ( 1  4 13  4 3 0)
     Any further DFT definition will be discarded
     Please, verify this is what you really want

               file H.pbe-rrkjus.UPF: wavefunction(s)  1S renormalized
               file H.pbe-rrkjus.UPF: wavefunction(s)  1S renormalized

     Subspace diagonalization in iterative solution of the eigenvalue problem:
     a serial algorithm will be used


     Parallelization info
     --------------------
     sticks:   dense  smooth     PW     G-vecs:    dense   smooth      PW
     Min        3662    2095    542               487826   210779   27834
     Max        3663    2096    543               487829   210784   27841
     Sum       18313   10477   2713              2439139  1053907  139193



     bravais-lattice index     =            4
     lattice parameter (alat)  =      23.2937  a.u.
     unit-cell volume          =   13319.7822 (a.u.)^3
     number of atoms/cell      =           52
     number of atomic types    =            3
     number of electrons       =       202.00
     number of Kohn-Sham states=          121
     kinetic-energy cutoff     =      70.0000  Ry
     charge density cutoff     =     490.0000  Ry
     convergence threshold     =      1.0E-06
     mixing beta               =       0.7000
     number of iterations used =            8  plain     mixing
     Exchange-correlation      = RVV10 ( 1  4 13  4 3 0)

     celldm(1)=  23.293684  celldm(2)=   0.000000  celldm(3)=   1.216892
     celldm(4)=   0.000000  celldm(5)=   0.000000  celldm(6)=   0.000000

     crystal axes: (cart. coord. in units of alat)
               a(1) = (   1.000000   0.000000   0.000000 )  
               a(2) = (  -0.500000   0.866025   0.000000 )  
               a(3) = (   0.000000   0.000000   1.216892 )  

     reciprocal axes: (cart. coord. in units 2 pi/alat)
               b(1) = (  1.000000  0.577350 -0.000000 )  
               b(2) = (  0.000000  1.154701  0.000000 )  
               b(3) = (  0.000000 -0.000000  0.821766 )  


     PseudoPot. # 1 for H  read from file:
     /home/cristian/Escritorio/Proyecto_Grafeno/pseudopotenciales/H.pbe-rrkjus.UPF
     MD5 check sum: 7cc9d459525c9a0585f487a71c3c9563
     Pseudo is Ultrasoft, Zval =  1.0
     Generated by new atomic code, or converted to UPF format
     Using radial grid of 1061 points,  2 beta functions with: 
                l(1) =   0
                l(2) =   0
     Q(r) pseudized with 0 coefficients 


     PseudoPot. # 2 for H  read from file:
     /home/cristian/Escritorio/Proyecto_Grafeno/pseudopotenciales/H.pbe-rrkjus.UPF
     MD5 check sum: 7cc9d459525c9a0585f487a71c3c9563
     Pseudo is Ultrasoft, Zval =  1.0
     Generated by new atomic code, or converted to UPF format
     Using radial grid of 1061 points,  2 beta functions with: 
                l(1) =   0
                l(2) =   0
     Q(r) pseudized with 0 coefficients 


     PseudoPot. # 3 for C  read from file:
     /home/cristian/Escritorio/Proyecto_Grafeno/pseudopotenciales/C.pbe-n-rrkjus_psl.1.0.0.UPF
     MD5 check sum: 1fdd950c42eb37d8afe3dd2f8d12311e
     Pseudo is Ultrasoft + core correction, Zval =  4.0
     Generated using "atomic" code by A. Dal Corso v.6.3MaX
     Using radial grid of 1073 points,  4 beta functions with: 
                l(1) =   0
                l(2) =   0
                l(3) =   1
                l(4) =   1
     Q(r) pseudized with 0 coefficients 


     vdW kernel table read from file rVV10_kernel_table
     MD5 check sum: b8e2538accc0c0b3206b45ba4daaba6c

     atomic species   valence    mass     pseudopotential
        H1             1.00     1.00794     H ( 1.00)
        H2             1.00     1.00794     H ( 1.00)
        C              4.00    12.01070     C ( 1.00)

      2 Sym. Ops. (no inversion) found



   Cartesian axes

     site n.     atom                  positions (alat units)
         1           H1  tau(   1) = (   0.2500000   0.4330127   0.1784775  )
         2           H2  tau(   2) = (   0.2500000   0.4330127   0.2394901  )
         3           C   tau(   3) = (   0.0000000   0.0000000   0.0000000  )
         4           C   tau(   4) = (   0.0000000   0.1154701   0.0000000  )
         5           C   tau(   5) = (  -0.1000000   0.1732051   0.0000000  )
         6           C   tau(   6) = (  -0.1000000   0.2886751   0.0000000  )
         7           C   tau(   7) = (  -0.2000000   0.3464102   0.0000000  )
         8           C   tau(   8) = (  -0.2000000   0.4618802   0.0000000  )
         9           C   tau(   9) = (  -0.3000000   0.5196152   0.0000000  )
        10           C   tau(  10) = (  -0.3000000   0.6350853   0.0000000  )
        11           C   tau(  11) = (  -0.4000000   0.6928203   0.0000000  )
        12           C   tau(  12) = (  -0.4000000   0.8082904   0.0000000  )
        13           C   tau(  13) = (   0.2000000   0.0000000   0.0000000  )
        14           C   tau(  14) = (   0.2000000   0.1154701   0.0000000  )
        15           C   tau(  15) = (   0.1000000   0.1732051   0.0000000  )
        16           C   tau(  16) = (   0.1000000   0.2886751   0.0000000  )
        17           C   tau(  17) = (   0.0000000   0.3464102   0.0000000  )
        18           C   tau(  18) = (   0.0000000   0.4618802   0.0000000  )
        19           C   tau(  19) = (  -0.1000000   0.5196152   0.0000000  )
        20           C   tau(  20) = (  -0.1000000   0.6350853   0.0000000  )
        21           C   tau(  21) = (  -0.2000000   0.6928203   0.0000000  )
        22           C   tau(  22) = (  -0.2000000   0.8082904   0.0000000  )
        23           C   tau(  23) = (   0.4000000   0.0000000   0.0000000  )
        24           C   tau(  24) = (   0.4000000   0.1154701   0.0000000  )
        25           C   tau(  25) = (   0.3000000   0.1732051   0.0000000  )
        26           C   tau(  26) = (   0.3000000   0.2886751   0.0000000  )
        27           C   tau(  27) = (   0.2000000   0.3464102   0.0000000  )
        28           C   tau(  28) = (   0.2000000   0.4618802   0.0000000  )
        29           C   tau(  29) = (   0.1000000   0.5196152   0.0000000  )
        30           C   tau(  30) = (   0.1000000   0.6350853   0.0000000  )
        31           C   tau(  31) = (   0.0000000   0.6928203   0.0000000  )
        32           C   tau(  32) = (   0.0000000   0.8082904   0.0000000  )
        33           C   tau(  33) = (   0.6000000   0.0000000   0.0000000  )
        34           C   tau(  34) = (   0.6000000   0.1154701   0.0000000  )
        35           C   tau(  35) = (   0.5000000   0.1732051   0.0000000  )
        36           C   tau(  36) = (   0.5000000   0.2886751   0.0000000  )
        37           C   tau(  37) = (   0.4000000   0.3464102   0.0000000  )
        38           C   tau(  38) = (   0.4000000   0.4618802   0.0000000  )
        39           C   tau(  39) = (   0.3000000   0.5196152   0.0000000  )
        40           C   tau(  40) = (   0.3000000   0.6350853   0.0000000  )
        41           C   tau(  41) = (   0.2000000   0.6928203   0.0000000  )
        42           C   tau(  42) = (   0.2000000   0.8082904   0.0000000  )
        43           C   tau(  43) = (   0.8000000   0.0000000   0.0000000  )
        44           C   tau(  44) = (   0.8000000   0.1154701   0.0000000  )
        45           C   tau(  45) = (   0.7000000   0.1732051   0.0000000  )
        46           C   tau(  46) = (   0.7000000   0.2886751   0.0000000  )
        47           C   tau(  47) = (   0.6000000   0.3464102   0.0000000  )
        48           C   tau(  48) = (   0.6000000   0.4618802   0.0000000  )
        49           C   tau(  49) = (   0.5000000   0.5196152   0.0000000  )
        50           C   tau(  50) = (   0.5000000   0.6350853   0.0000000  )
        51           C   tau(  51) = (   0.4000000   0.6928203   0.0000000  )
        52           C   tau(  52) = (   0.4000000   0.8082904   0.0000000  )

     number of k points=     3  Marzari-Vanderbilt smearing, width (Ry)=  0.0010
                       cart. coord. in units 2pi/alat
        k(    1) = (   0.0000000   0.0000000   0.0000000), wk =   0.5000000
        k(    2) = (   0.0000000  -0.5773503   0.0000000), wk =   1.0000000
        k(    3) = (   0.5000000  -0.2886751   0.0000000), wk =   0.5000000

     Dense  grid:  2439139 G-vectors     FFT dimensions: ( 180, 180, 200)

     Smooth grid:  1053907 G-vectors     FFT dimensions: ( 125, 125, 160)

     Estimated max dynamical RAM per process >       1.34 GB

     Estimated total dynamical RAM >       6.71 GB

     Check: negative core charge=   -0.000001

     Initial potential from superposition of free atoms

     starting charge  201.80551, renormalised to  202.00000

     negative rho (up, down):  1.064E-03 0.000E+00


---------------------------------------------------------------------------------
Carrying out rVV10 run using the following parameters:
Nqs =      20    Nr_points =    1024   r_max =   100.000
b_value =  6.30000    beta =  0.00901
     q_mesh =  0.00010000  0.00030000  0.00058939  0.00100810
               0.00161396  0.00249058  0.00375900  0.00559430
               0.00824984  0.01209221  0.01765183  0.02569619
               0.03733578  0.05417739  0.07854596  0.11380545
               0.16482331  0.23864234  0.34545298  0.50000000

Gradients computed in Reciprocal space

---------------------------------------------------------------------------------


     Starting wfcs are  202 randomized atomic wfcs

     total cpu time spent up to now is      131.9 secs

     Self-consistent Calculation

     iteration #  1     ecut=    70.00 Ry     beta= 0.70
     Davidson diagonalization with overlap
     ethr =  1.00E-02,  avg # of iterations =  2.0

     negative rho (up, down):  1.171E-03 0.000E+00

     total cpu time spent up to now is      350.8 secs

     total energy              =    -624.64321044 Ry
     Harris-Foulkes estimate   =    -628.28909602 Ry
     estimated scf accuracy    <       5.99971367 Ry

     iteration #  2     ecut=    70.00 Ry     beta= 0.70
     Davidson diagonalization with overlap
     ethr =  2.97E-03,  avg # of iterations =  7.3

     negative rho (up, down):  1.356E-03 0.000E+00

     total cpu time spent up to now is      560.0 secs

     total energy              =    -625.22931448 Ry
     Harris-Foulkes estimate   =    -625.82350651 Ry
     estimated scf accuracy    <       0.82478890 Ry

     iteration #  3     ecut=    70.00 Ry     beta= 0.70
     Davidson diagonalization with overlap
     ethr =  4.08E-04,  avg # of iterations =  7.7

     negative rho (up, down):  1.425E-03 0.000E+00

     total cpu time spent up to now is      799.2 secs

     total energy              =    -625.22720143 Ry
     Harris-Foulkes estimate   =    -626.09649774 Ry
     estimated scf accuracy    <       2.35685334 Ry

     iteration #  4     ecut=    70.00 Ry     beta= 0.70
     Davidson diagonalization with overlap
     ethr =  4.08E-04,  avg # of iterations =  6.0

     negative rho (up, down):  1.506E-03 0.000E+00

     total cpu time spent up to now is      993.0 secs

     total energy              =    -625.64702974 Ry
     Harris-Foulkes estimate   =    -625.66276960 Ry
     estimated scf accuracy    <       0.03455134 Ry

     iteration #  5     ecut=    70.00 Ry     beta= 0.70
     Davidson diagonalization with overlap
     ethr =  1.71E-05,  avg # of iterations = 10.0

     negative rho (up, down):  1.686E-03 0.000E+00

     total cpu time spent up to now is     1215.1 secs

     total energy              =    -625.65491578 Ry
     Harris-Foulkes estimate   =    -625.65985573 Ry
     estimated scf accuracy    <       0.01103088 Ry

     iteration #  6     ecut=    70.00 Ry     beta= 0.70
     Davidson diagonalization with overlap
     ethr =  5.46E-06,  avg # of iterations =  5.3

     negative rho (up, down):  1.844E-03 0.000E+00

     total cpu time spent up to now is     1406.4 secs

     total energy              =    -625.65710247 Ry
     Harris-Foulkes estimate   =    -625.65739993 Ry
     estimated scf accuracy    <       0.00052764 Ry

     iteration #  7     ecut=    70.00 Ry     beta= 0.70
     Davidson diagonalization with overlap
     ethr =  2.61E-07,  avg # of iterations =  5.7

     negative rho (up, down):  1.904E-03 0.000E+00

     total cpu time spent up to now is     1604.5 secs

     total energy              =    -625.65723989 Ry
     Harris-Foulkes estimate   =    -625.65727413 Ry
     estimated scf accuracy    <       0.00005236 Ry

     iteration #  8     ecut=    70.00 Ry     beta= 0.70
     Davidson diagonalization with overlap
     ethr =  2.59E-08,  avg # of iterations =  2.0

     negative rho (up, down):  1.915E-03 0.000E+00

     total cpu time spent up to now is     1790.6 secs

     total energy              =    -625.65725171 Ry
     Harris-Foulkes estimate   =    -625.65725647 Ry
     estimated scf accuracy    <       0.00000643 Ry

     iteration #  9     ecut=    70.00 Ry     beta= 0.70
     Davidson diagonalization with overlap
     ethr =  3.18E-09,  avg # of iterations =  2.7

     negative rho (up, down):  1.917E-03 0.000E+00

     total cpu time spent up to now is     1977.2 secs

     total energy              =    -625.65725283 Ry
     Harris-Foulkes estimate   =    -625.65725439 Ry
     estimated scf accuracy    <       0.00000303 Ry

     iteration # 10     ecut=    70.00 Ry     beta= 0.70
     Davidson diagonalization with overlap
     ethr =  1.50E-09,  avg # of iterations =  2.7

     negative rho (up, down):  1.917E-03 0.000E+00

     total cpu time spent up to now is     2142.7 secs

     End of self-consistent calculation

          k = 0.0000 0.0000 0.0000 (131685 PWs)   bands (ev):

   -21.2039 -20.2763 -20.2661 -20.2658 -20.2648 -20.2648 -20.2646 -18.4376
   -18.4315 -18.4312 -18.4298 -18.4297 -18.4295 -17.5439 -17.5390 -17.5388
   -17.5374 -17.5372 -17.5370 -15.3988 -15.3955 -15.3930 -15.3929 -15.3923
   -15.3921 -14.3898 -14.3863 -14.3862 -14.3850 -14.3849 -14.3846 -13.0479
   -13.0457 -13.0453 -13.0445 -13.0445 -13.0440 -10.6868 -10.6856 -10.6845
   -10.6842 -10.6837 -10.6831 -10.5652 -10.5632 -10.5621 -10.5620 -10.5611
   -10.5610  -9.3833  -9.1921  -9.1900  -9.1896  -9.1893  -9.1887  -9.1887
    -8.5817  -8.2173  -8.2173  -8.2153  -8.2151  -8.2151  -7.9440  -7.9434
    -7.9426  -7.9409  -7.9408  -7.9406  -7.8914  -7.8911  -7.8897  -7.8894
    -7.8892  -7.8888  -7.5242  -6.2962  -6.2958  -6.2951  -6.2950  -6.2948
    -6.2938  -6.0903  -6.0890  -6.0843  -6.0841  -6.0837  -6.0123  -5.1939
    -5.1912  -5.1864  -5.1862  -5.1858  -5.1573  -4.8236  -4.8235  -3.2103
    -3.2087  -3.2022  -3.2013  -3.2006  -3.2006  -0.4186  -0.4142  -0.4120
    -0.4070  -0.4069  -0.4054   1.3598   1.4334   1.4403   1.4415   1.4498
     1.4498   1.4502   2.2278   2.5022   2.5031   2.5921   2.5941   2.6396
     2.8725

          k = 0.0000-0.5774 0.0000 (131762 PWs)   bands (ev):

   -20.9709 -20.9665 -20.5020 -20.4986 -19.5764 -19.5709 -19.5708 -19.5699
   -19.1132 -19.1111 -18.2094 -18.2059 -18.2037 -18.2036 -16.8909 -16.8887
   -16.8869 -16.8869 -16.4855 -16.4824 -16.4819 -16.4813 -15.9983 -15.2725
   -15.2707 -14.9315 -14.0687 -14.0667 -14.0657 -14.0649 -13.5956 -13.5944
   -12.6634 -12.6615 -12.6604 -12.6598 -11.8656 -11.8642 -11.7063 -11.7052
   -11.7049 -11.7046 -10.4864 -10.4857 -10.2598 -10.2576 -10.2558 -10.2556
    -9.2182  -9.2142  -9.2136  -9.2130  -9.1600  -9.0512  -8.8430  -8.8426
    -8.8407  -8.8403  -8.6099  -8.4925  -8.3683  -8.3667  -8.3662  -8.3655
    -8.1743  -7.9299  -7.4546  -7.4543  -7.4536  -7.4534  -7.4009  -7.4000
    -7.3978  -7.2775  -7.2761  -7.2053  -7.0697  -7.0691  -6.8756  -6.8002
    -6.2230  -6.2222  -5.8582  -5.8520  -5.8515  -5.8106  -5.7311  -5.7291
    -5.2910  -5.2893  -4.4194  -4.4113  -4.4108  -4.4030  -4.2120  -4.2091
    -4.2071  -4.2024  -4.0630  -2.7304  -2.7259  -0.6949  -0.6906  -0.0421
     0.3371   0.3408   0.3482   0.3502   0.9816   0.9941   0.9966   0.9980
     1.6158   1.7275   2.2260   2.3439   2.5403   2.5427   2.6084   2.6143
     2.6165

          k = 0.5000-0.2887 0.0000 (131762 PWs)   bands (ev):

   -20.9709 -20.9666 -20.5021 -20.4985 -19.5764 -19.5712 -19.5704 -19.5701
   -19.1131 -19.1112 -18.2090 -18.2061 -18.2038 -18.2037 -16.8919 -16.8882
   -16.8870 -16.8867 -16.4847 -16.4830 -16.4819 -16.4814 -15.9987 -15.2715
   -15.2713 -14.9310 -14.0690 -14.0668 -14.0656 -14.0650 -13.5964 -13.5945
   -12.6621 -12.6619 -12.6605 -12.6597 -11.8654 -11.8640 -11.7070 -11.7059
   -11.7044 -11.7043 -10.4862 -10.4858 -10.2590 -10.2589 -10.2557 -10.2557
    -9.2163  -9.2146  -9.2136  -9.2132  -9.1612  -9.0512  -8.8438  -8.8421
    -8.8406  -8.8402  -8.6087  -8.4925  -8.3676  -8.3672  -8.3660  -8.3657
    -8.1740  -7.9323  -7.4545  -7.4541  -7.4537  -7.4534  -7.4008  -7.4001
    -7.3978  -7.2772  -7.2763  -7.2074  -7.0701  -7.0687  -6.8750  -6.7955
    -6.2228  -6.2221  -5.8596  -5.8521  -5.8516  -5.8134  -5.7308  -5.7292
    -5.2912  -5.2892  -4.4160  -4.4121  -4.4103  -4.4025  -4.2143  -4.2101
    -4.2068  -4.2028  -4.0606  -2.7300  -2.7269  -0.6953  -0.6915  -0.0415
     0.3341   0.3416   0.3495   0.3499   0.9879   0.9944   0.9946   0.9979
     1.6157   1.7274   2.2265   2.3438   2.5219   2.5428   2.6083   2.6153
     2.6163

     the Fermi energy is    -1.6248 ev

!    total energy              =    -625.65725324 Ry
     Harris-Foulkes estimate   =    -625.65725359 Ry
     estimated scf accuracy    <       0.00000028 Ry

     The total energy is the sum of the following terms:

     one-electron contribution =   -3948.28700396 Ry
     hartree contribution      =    2010.97761659 Ry
     xc contribution           =    -235.32215219 Ry
     ewald contribution        =    1546.97428632 Ry
     smearing contrib. (-TS)   =       0.00000000 Ry

     convergence has been achieved in  10 iterations

     Writing output data file gr-12-bridge2.save/

     init_run     :    129.89s CPU    131.37s WALL (       1 calls)
     electrons    :   1991.45s CPU   2010.94s WALL (       1 calls)

     Called by init_run:
     wfcinit      :     87.41s CPU     88.00s WALL (       1 calls)
     potinit      :     21.17s CPU     21.72s WALL (       1 calls)
     hinit0       :     15.89s CPU     15.91s WALL (       1 calls)

     Called by electrons:
     c_bands      :   1614.66s CPU   1623.22s WALL (      10 calls)
     sum_band     :    231.18s CPU    234.51s WALL (      10 calls)
     v_of_rho     :    105.38s CPU    111.03s WALL (      11 calls)
     newd         :     50.00s CPU     52.56s WALL (      11 calls)
     mix_rho      :      2.54s CPU      2.61s WALL (      10 calls)

     Called by c_bands:
     init_us_2    :      3.82s CPU      3.89s WALL (      63 calls)
     cegterg      :   1604.05s CPU   1612.58s WALL (      30 calls)

     Called by sum_band:
     sum_band:bec :      0.02s CPU      0.02s WALL (      30 calls)
     addusdens    :     66.38s CPU     68.91s WALL (      10 calls)

     Called by *egterg:
     h_psi        :    871.64s CPU    878.43s WALL (     187 calls)
     s_psi        :    273.13s CPU    273.19s WALL (     187 calls)
     g_psi        :      1.17s CPU      1.18s WALL (     154 calls)
     cdiaghg      :     15.84s CPU     15.85s WALL (     184 calls)

     Called by h_psi:
     h_psi:pot    :    870.66s CPU    876.42s WALL (     187 calls)
     h_psi:calbec :    273.60s CPU    273.71s WALL (     187 calls)
     vloc_psi     :    325.62s CPU    331.20s WALL (     187 calls)
     add_vuspsi   :    271.44s CPU    271.51s WALL (     187 calls)

     General routines
     calbec       :    367.62s CPU    367.73s WALL (     217 calls)
     fft          :     56.19s CPU     58.32s WALL (     691 calls)
     ffts         :      0.68s CPU      0.69s WALL (      21 calls)
     fftw         :    333.93s CPU    339.38s WALL (   24700 calls)
     interpolate  :      1.41s CPU      1.43s WALL (      11 calls)

     Parallel routines
     fft_scatt_xy :     82.52s CPU     82.95s WALL (   25412 calls)
     fft_scatt_yz :    120.72s CPU    126.19s WALL (   25412 calls)

     PWSCF        :  35m22.19s CPU  35m43.82s WALL


   This run was terminated on:  17:54:44  19Jun2022            

=------------------------------------------------------------------------------=
   JOB DONE.
=------------------------------------------------------------------------------=
