
     Program PWSCF v.6.4.1 starts on 12Jan2023 at 17:31:17 

     This program is part of the open-source Quantum ESPRESSO suite
     for quantum simulation of materials; please cite
         "P. Giannozzi et al., J. Phys.:Condens. Matter 21 395502 (2009);
         "P. Giannozzi et al., J. Phys.:Condens. Matter 29 465901 (2017);
          URL http://www.quantum-espresso.org", 
     in publications or presentations arising from this work. More details at
     http://www.quantum-espresso.org/quote

     Parallel version (MPI), running on     6 processors

     MPI processes distributed on     1 nodes
     R & G space division:  proc/nbgrp/npool/nimage =       6
     Reading input from distance-1.8.in

     Current dimensions of program PWSCF are:
     Max number of different atomic species (ntypx) = 10
     Max number of k-points (npk) =  40000
     Max angular momentum in pseudopotentials (lmaxx) =  3

     IMPORTANT: XC functional enforced from input :
     Exchange-correlation      = RVV10 ( 1  4 13  4 3 0)
     Any further DFT definition will be discarded
     Please, verify this is what you really want

               file H.pbe-rrkjus.UPF: wavefunction(s)  1S renormalized

     Subspace diagonalization in iterative solution of the eigenvalue problem:
     a serial algorithm will be used


     Parallelization info
     --------------------
     sticks:   dense  smooth     PW     G-vecs:    dense   smooth      PW
     Min        3051    1746    432               270999   117096   14629
     Max        3053    1747    437               271001   117099   14630
     Sum       18313   10477   2611              1626001   702581   87777



     bravais-lattice index     =            4
     lattice parameter (alat)  =      23.2937  a.u.
     unit-cell volume          =    8879.8548 (a.u.)^3
     number of atoms/cell      =           52
     number of atomic types    =            3
     number of electrons       =       216.00
     number of Kohn-Sham states=          130
     kinetic-energy cutoff     =      70.0000  Ry
     charge density cutoff     =     490.0000  Ry
     convergence threshold     =      1.0E-06
     mixing beta               =       0.7000
     number of iterations used =            8  plain     mixing
     Exchange-correlation      = RVV10 ( 1  4 13  4 3 0)

     celldm(1)=  23.293684  celldm(2)=   0.000000  celldm(3)=   0.811261
     celldm(4)=   0.000000  celldm(5)=   0.000000  celldm(6)=   0.000000

     crystal axes: (cart. coord. in units of alat)
               a(1) = (   1.000000   0.000000   0.000000 )  
               a(2) = (  -0.500000   0.866025   0.000000 )  
               a(3) = (   0.000000   0.000000   0.811261 )  

     reciprocal axes: (cart. coord. in units 2 pi/alat)
               b(1) = (  1.000000  0.577350 -0.000000 )  
               b(2) = (  0.000000  1.154701  0.000000 )  
               b(3) = (  0.000000 -0.000000  1.232649 )  


     PseudoPot. # 1 for H  read from file:
     /home/cristian/Escritorio/Proyecto_Grafeno/pseudopotenciales/H.pbe-rrkjus.UPF
     MD5 check sum: 7cc9d459525c9a0585f487a71c3c9563
     Pseudo is Ultrasoft, Zval =  1.0
     Generated by new atomic code, or converted to UPF format
     Using radial grid of 1061 points,  2 beta functions with: 
                l(1) =   0
                l(2) =   0
     Q(r) pseudized with 0 coefficients 


     PseudoPot. # 2 for C  read from file:
     /home/cristian/Escritorio/Proyecto_Grafeno/pseudopotenciales/C.pbe-n-rrkjus_psl.1.0.0.UPF
     MD5 check sum: 1fdd950c42eb37d8afe3dd2f8d12311e
     Pseudo is Ultrasoft + core correction, Zval =  4.0
     Generated using "atomic" code by A. Dal Corso v.6.3MaX
     Using radial grid of 1073 points,  4 beta functions with: 
                l(1) =   0
                l(2) =   0
                l(3) =   1
                l(4) =   1
     Q(r) pseudized with 0 coefficients 


     PseudoPot. # 3 for Ni read from file:
     /home/cristian/Escritorio/Proyecto_Grafeno/pseudopotenciales/Ni.pbe-spn-rrkjus_psl.1.0.0.UPF
     MD5 check sum: 8b3fc9aac6dafe35f580d41bb18c3945
     Pseudo is Ultrasoft + core correction, Zval = 18.0
     Generated using "atomic" code by A. Dal Corso v.6.3
     Using radial grid of 1195 points,  6 beta functions with: 
                l(1) =   0
                l(2) =   0
                l(3) =   1
                l(4) =   1
                l(5) =   2
                l(6) =   2
     Q(r) pseudized with 0 coefficients 


     vdW kernel table read from file rVV10_kernel_table
     MD5 check sum: b8e2538accc0c0b3206b45ba4daaba6c

     atomic species   valence    mass     pseudopotential
        H              1.00     1.00794     H ( 1.00)
        C              4.00    12.01070     C ( 1.00)
        Ni            18.00    58.69340     Ni( 1.00)

     Starting magnetic structure 
     atomic species   magnetization
        H            0.500
        C            0.300
        Ni           0.800

     No symmetry found


                                    s                        frac. trans.

      isym =  1     identity                                     

 cryst.   s( 1) = (     1          0          0      )
                  (     0          1          0      )
                  (     0          0          1      )

 cart.    s( 1) = (  1.0000000  0.0000000  0.0000000 )
                  (  0.0000000  1.0000000  0.0000000 )
                  (  0.0000000  0.0000000  1.0000000 )


     point group C_1 (1)    
     there are  1 classes
     the character table:

       E    
A      1.00

     the symmetry operations in each class and the name of the first element:

     E        1
          identity                                               

   Cartesian axes

     site n.     atom                  positions (alat units)
         1           H   tau(   1) = (   0.2500000   0.4907477   0.1460270  )
         2           H   tau(   2) = (   0.2500000   0.4907477   0.2070397  )
         3           C   tau(   3) = (   0.0000000   0.0000000   0.0000000  )
         4           C   tau(   4) = (   0.0000000   0.1154701   0.0000000  )
         5           C   tau(   5) = (  -0.1000000   0.1732051   0.0000000  )
         6           C   tau(   6) = (  -0.1000000   0.2886751   0.0000000  )
         7           C   tau(   7) = (  -0.2000000   0.3464102   0.0000000  )
         8           C   tau(   8) = (  -0.2000000   0.4618802   0.0000000  )
         9           C   tau(   9) = (  -0.3000000   0.5196152   0.0000000  )
        10           C   tau(  10) = (  -0.3000000   0.6350853   0.0000000  )
        11           C   tau(  11) = (  -0.4000000   0.6928203   0.0000000  )
        12           C   tau(  12) = (  -0.4000000   0.8082904   0.0000000  )
        13           C   tau(  13) = (   0.2000000   0.0000000   0.0000000  )
        14           C   tau(  14) = (   0.2000000   0.1154701   0.0000000  )
        15           C   tau(  15) = (   0.1000000   0.1732051   0.0000000  )
        16           C   tau(  16) = (   0.1000000   0.2886751   0.0000000  )
        17           C   tau(  17) = (   0.0000000   0.3464102   0.0000000  )
        18           C   tau(  18) = (   0.0000000   0.4618802   0.0000000  )
        19           C   tau(  19) = (  -0.1000000   0.5196152   0.0000000  )
        20           C   tau(  20) = (  -0.1000000   0.6350853   0.0000000  )
        21           C   tau(  21) = (  -0.2000000   0.6928203   0.0000000  )
        22           C   tau(  22) = (  -0.2000000   0.8082904   0.0000000  )
        23           C   tau(  23) = (   0.4000000   0.0000000   0.0000000  )
        24           C   tau(  24) = (   0.4000000   0.1154701   0.0000000  )
        25           C   tau(  25) = (   0.3000000   0.1732051   0.0000000  )
        26           C   tau(  26) = (   0.3000000   0.2886751   0.0000000  )
        27           C   tau(  27) = (   0.2000000   0.3464102   0.0000000  )
        28           Ni  tau(  28) = (   0.2000000   0.4618802   0.0000000  )
        29           C   tau(  29) = (   0.1000000   0.5196152   0.0000000  )
        30           C   tau(  30) = (   0.1000000   0.6350853   0.0000000  )
        31           C   tau(  31) = (   0.0000000   0.6928203   0.0000000  )
        32           C   tau(  32) = (   0.0000000   0.8082904   0.0000000  )
        33           C   tau(  33) = (   0.6000000   0.0000000   0.0000000  )
        34           C   tau(  34) = (   0.6000000   0.1154701   0.0000000  )
        35           C   tau(  35) = (   0.5000000   0.1732051   0.0000000  )
        36           C   tau(  36) = (   0.5000000   0.2886751   0.0000000  )
        37           C   tau(  37) = (   0.4000000   0.3464102   0.0000000  )
        38           C   tau(  38) = (   0.4000000   0.4618802   0.0000000  )
        39           C   tau(  39) = (   0.3000000   0.5196152   0.0000000  )
        40           C   tau(  40) = (   0.3000000   0.6350853   0.0000000  )
        41           C   tau(  41) = (   0.2000000   0.6928203   0.0000000  )
        42           C   tau(  42) = (   0.2000000   0.8082904   0.0000000  )
        43           C   tau(  43) = (   0.8000000   0.0000000   0.0000000  )
        44           C   tau(  44) = (   0.8000000   0.1154701   0.0000000  )
        45           C   tau(  45) = (   0.7000000   0.1732051   0.0000000  )
        46           C   tau(  46) = (   0.7000000   0.2886751   0.0000000  )
        47           C   tau(  47) = (   0.6000000   0.3464102   0.0000000  )
        48           C   tau(  48) = (   0.6000000   0.4618802   0.0000000  )
        49           C   tau(  49) = (   0.5000000   0.5196152   0.0000000  )
        50           C   tau(  50) = (   0.5000000   0.6350853   0.0000000  )
        51           C   tau(  51) = (   0.4000000   0.6928203   0.0000000  )
        52           C   tau(  52) = (   0.4000000   0.8082904   0.0000000  )

   Crystallographic axes

     site n.     atom                  positions (cryst. coord.)
         1           H   tau(   1) = (  0.5333333  0.5666667  0.1800000  )
         2           H   tau(   2) = (  0.5333333  0.5666667  0.2552072  )
         3           C   tau(   3) = (  0.0000000  0.0000000  0.0000000  )
         4           C   tau(   4) = (  0.0666667  0.1333333  0.0000000  )
         5           C   tau(   5) = (  0.0000000  0.2000000  0.0000000  )
         6           C   tau(   6) = (  0.0666667  0.3333333  0.0000000  )
         7           C   tau(   7) = (  0.0000000  0.4000000  0.0000000  )
         8           C   tau(   8) = (  0.0666667  0.5333333  0.0000000  )
         9           C   tau(   9) = (  0.0000000  0.6000000  0.0000000  )
        10           C   tau(  10) = (  0.0666667  0.7333333  0.0000000  )
        11           C   tau(  11) = (  0.0000000  0.8000000  0.0000000  )
        12           C   tau(  12) = (  0.0666667  0.9333333  0.0000000  )
        13           C   tau(  13) = (  0.2000000  0.0000000  0.0000000  )
        14           C   tau(  14) = (  0.2666667  0.1333333  0.0000000  )
        15           C   tau(  15) = (  0.2000000  0.2000000  0.0000000  )
        16           C   tau(  16) = (  0.2666667  0.3333333  0.0000000  )
        17           C   tau(  17) = (  0.2000000  0.4000000  0.0000000  )
        18           C   tau(  18) = (  0.2666667  0.5333333  0.0000000  )
        19           C   tau(  19) = (  0.2000000  0.6000000  0.0000000  )
        20           C   tau(  20) = (  0.2666667  0.7333333  0.0000000  )
        21           C   tau(  21) = (  0.2000000  0.8000000  0.0000000  )
        22           C   tau(  22) = (  0.2666667  0.9333333  0.0000000  )
        23           C   tau(  23) = (  0.4000000  0.0000000  0.0000000  )
        24           C   tau(  24) = (  0.4666667  0.1333333  0.0000000  )
        25           C   tau(  25) = (  0.4000000  0.2000000  0.0000000  )
        26           C   tau(  26) = (  0.4666667  0.3333333  0.0000000  )
        27           C   tau(  27) = (  0.4000000  0.4000000  0.0000000  )
        28           Ni  tau(  28) = (  0.4666667  0.5333333  0.0000000  )
        29           C   tau(  29) = (  0.4000000  0.6000000  0.0000000  )
        30           C   tau(  30) = (  0.4666667  0.7333333  0.0000000  )
        31           C   tau(  31) = (  0.4000000  0.8000000  0.0000000  )
        32           C   tau(  32) = (  0.4666667  0.9333333  0.0000000  )
        33           C   tau(  33) = (  0.6000000  0.0000000  0.0000000  )
        34           C   tau(  34) = (  0.6666667  0.1333333  0.0000000  )
        35           C   tau(  35) = (  0.6000000  0.2000000  0.0000000  )
        36           C   tau(  36) = (  0.6666667  0.3333333  0.0000000  )
        37           C   tau(  37) = (  0.6000000  0.4000000  0.0000000  )
        38           C   tau(  38) = (  0.6666667  0.5333333  0.0000000  )
        39           C   tau(  39) = (  0.6000000  0.6000000  0.0000000  )
        40           C   tau(  40) = (  0.6666667  0.7333333  0.0000000  )
        41           C   tau(  41) = (  0.6000000  0.8000000  0.0000000  )
        42           C   tau(  42) = (  0.6666667  0.9333333  0.0000000  )
        43           C   tau(  43) = (  0.8000000  0.0000000  0.0000000  )
        44           C   tau(  44) = (  0.8666667  0.1333333  0.0000000  )
        45           C   tau(  45) = (  0.8000000  0.2000000  0.0000000  )
        46           C   tau(  46) = (  0.8666667  0.3333333  0.0000000  )
        47           C   tau(  47) = (  0.8000000  0.4000000  0.0000000  )
        48           C   tau(  48) = (  0.8666667  0.5333333  0.0000000  )
        49           C   tau(  49) = (  0.8000000  0.6000000  0.0000000  )
        50           C   tau(  50) = (  0.8666667  0.7333333  0.0000000  )
        51           C   tau(  51) = (  0.8000000  0.8000000  0.0000000  )
        52           C   tau(  52) = (  0.8666667  0.9333333  0.0000000  )

     number of k points=     1  Marzari-Vanderbilt smearing, width (Ry)=  0.0010
                       cart. coord. in units 2pi/alat
        k(    1) = (   0.0000000   0.0000000   0.0000000), wk =   1.0000000

                       cryst. coord.
        k(    1) = (   0.0000000   0.0000000   0.0000000), wk =   1.0000000

     Dense  grid:  1626001 G-vectors     FFT dimensions: ( 180, 180, 135)

     Smooth grid:   702581 G-vectors     FFT dimensions: ( 125, 125, 108)

     Dynamical RAM for                 wfc:      29.03 MB

     Dynamical RAM for     wfc (w. buffer):      87.10 MB

     Dynamical RAM for           str. fact:      12.41 MB

     Dynamical RAM for           local pot:       0.00 MB

     Dynamical RAM for          nlocal pot:      92.46 MB

     Dynamical RAM for                qrad:      19.73 MB

     Dynamical RAM for          rho,v,vnew:      58.92 MB

     Dynamical RAM for               rhoin:      19.64 MB

     Dynamical RAM for            rho*nmix:     132.32 MB

     Dynamical RAM for           G-vectors:      16.40 MB

     Dynamical RAM for          h,s,v(r/c):      12.38 MB

     Dynamical RAM for          <psi|beta>:       0.82 MB

     Dynamical RAM for                 psi:     116.14 MB

     Dynamical RAM for                hpsi:     116.14 MB

     Dynamical RAM for                spsi:     116.14 MB

     Dynamical RAM for      wfcinit/wfcrot:      93.90 MB

     Dynamical RAM for           addusdens:     975.89 MB

     Estimated static dynamical RAM per process >     489.64 MB

     Estimated max dynamical RAM per process >       1.43 GB

     Estimated total dynamical RAM >       8.59 GB
     Generating pointlists ...
     new r_m :   0.0252 (alat units)  0.5862 (a.u.) for type    1
     new r_m :   0.0476 (alat units)  1.1095 (a.u.) for type    2
     new r_m :   0.0476 (alat units)  1.1095 (a.u.) for type    3

     Check: negative core charge=   -0.000002

     Initial potential from superposition of free atoms

     starting charge  215.80530, renormalised to  216.00000

     negative rho (up, down):  1.700E-04 1.898E-02


---------------------------------------------------------------------------------
Carrying out rVV10 run using the following parameters:
Nqs =      20    Nr_points =    1024   r_max =   100.000
b_value =  6.30000    beta =  0.00901
     q_mesh =  0.00010000  0.00030000  0.00058939  0.00100810
               0.00161396  0.00249058  0.00375900  0.00559430
               0.00824984  0.01209221  0.01765183  0.02569619
               0.03733578  0.05417739  0.07854596  0.11380545
               0.16482331  0.23864234  0.34545298  0.50000000

Gradients computed in Reciprocal space

---------------------------------------------------------------------------------


     Starting wfcs are  208 randomized atomic wfcs

     total cpu time spent up to now is       86.7 secs

     Self-consistent Calculation

     iteration #  1     ecut=    70.00 Ry     beta= 0.70
     Davidson diagonalization with overlap
     ethr =  1.00E-02,  avg # of iterations =  6.0

     negative rho (up, down):  3.405E-04 1.639E-02

     total cpu time spent up to now is      249.5 secs

     total energy              =    -947.02859458 Ry
     Harris-Foulkes estimate   =    -949.65989508 Ry
     estimated scf accuracy    <      13.90769152 Ry

     total magnetization       =     6.00 Bohr mag/cell
     absolute magnetization    =     6.70 Bohr mag/cell

     iteration #  2     ecut=    70.00 Ry     beta= 0.70
     Davidson diagonalization with overlap
     ethr =  6.44E-03,  avg # of iterations =  3.5

     negative rho (up, down):  2.982E-02 3.727E-01

     total cpu time spent up to now is      391.7 secs

     total energy              =    -954.62188946 Ry
     Harris-Foulkes estimate   =    -956.05280261 Ry
     estimated scf accuracy    <      56.21139211 Ry

     total magnetization       =     4.00 Bohr mag/cell
     absolute magnetization    =    11.56 Bohr mag/cell

     iteration #  3     ecut=    70.00 Ry     beta= 0.70
     Davidson diagonalization with overlap
     ethr =  6.44E-03,  avg # of iterations =  3.0

     negative rho (up, down):  1.314E-02 5.542E-01

     total cpu time spent up to now is      514.9 secs

     total energy              =    -946.75057358 Ry
     Harris-Foulkes estimate   =    -966.88920365 Ry
     estimated scf accuracy    <     797.59351866 Ry

     total magnetization       =     0.00 Bohr mag/cell
     absolute magnetization    =    41.05 Bohr mag/cell

     iteration #  4     ecut=    70.00 Ry     beta= 0.70
     Davidson diagonalization with overlap
     ethr =  6.44E-03,  avg # of iterations =  4.0

     negative rho (up, down):  2.304E-03 5.106E-01

     total cpu time spent up to now is      644.5 secs

     total energy              =    -946.84628439 Ry
     Harris-Foulkes estimate   =    -953.28983928 Ry
     estimated scf accuracy    <     101.48113217 Ry

     total magnetization       =     0.00 Bohr mag/cell
     absolute magnetization    =    14.99 Bohr mag/cell

     iteration #  5     ecut=    70.00 Ry     beta= 0.70
     Davidson diagonalization with overlap
     ethr =  6.44E-03,  avg # of iterations =  3.5

     negative rho (up, down):  1.153E-01 3.171E-01

     total cpu time spent up to now is      796.5 secs

     total energy              =    -956.12219579 Ry
     Harris-Foulkes estimate   =    -953.96473308 Ry
     estimated scf accuracy    <     112.18783706 Ry

     total magnetization       =     2.00 Bohr mag/cell
     absolute magnetization    =    15.76 Bohr mag/cell

     iteration #  6     ecut=    70.00 Ry     beta= 0.70
     Davidson diagonalization with overlap
     ethr =  6.44E-03,  avg # of iterations =  2.5

     negative rho (up, down):  1.495E-01 4.525E-01

     total cpu time spent up to now is      911.1 secs

     total energy              =    -948.51968677 Ry
     Harris-Foulkes estimate   =    -957.27841806 Ry
     estimated scf accuracy    <     320.98336822 Ry

     total magnetization       =     4.00 Bohr mag/cell
     absolute magnetization    =    28.79 Bohr mag/cell

     iteration #  7     ecut=    70.00 Ry     beta= 0.70
     Davidson diagonalization with overlap
     ethr =  6.44E-03,  avg # of iterations =  2.0

     negative rho (up, down):  1.067E-01 4.715E-01

     total cpu time spent up to now is     1044.1 secs

     total energy              =    -953.42969009 Ry
     Harris-Foulkes estimate   =    -953.79560582 Ry
     estimated scf accuracy    <     165.72617071 Ry

     total magnetization       =     0.00 Bohr mag/cell
     absolute magnetization    =    19.12 Bohr mag/cell

     iteration #  8     ecut=    70.00 Ry     beta= 0.70
     Davidson diagonalization with overlap
     ethr =  6.44E-03,  avg # of iterations =  2.0

     negative rho (up, down):  9.451E-02 4.832E-01

     total cpu time spent up to now is     1159.7 secs

     total energy              =    -951.79777052 Ry
     Harris-Foulkes estimate   =    -954.06864157 Ry
     estimated scf accuracy    <     170.98017667 Ry

     total magnetization       =    -0.00 Bohr mag/cell
     absolute magnetization    =    19.60 Bohr mag/cell

     iteration #  9     ecut=    70.00 Ry     beta= 0.70
     Davidson diagonalization with overlap
     ethr =  6.44E-03,  avg # of iterations =  2.0

     negative rho (up, down):  4.611E-02 4.859E-01

     total cpu time spent up to now is     1279.7 secs

     total energy              =    -949.46527868 Ry
     Harris-Foulkes estimate   =    -952.59003375 Ry
     estimated scf accuracy    <      76.03081498 Ry

     total magnetization       =    -0.00 Bohr mag/cell
     absolute magnetization    =    13.35 Bohr mag/cell

     iteration # 10     ecut=    70.00 Ry     beta= 0.70
     Davidson diagonalization with overlap
     ethr =  6.44E-03,  avg # of iterations =  2.0

     negative rho (up, down):  4.287E-02 1.663E-01

     total cpu time spent up to now is     1389.0 secs

     total energy              =    -952.02987684 Ry
     Harris-Foulkes estimate   =    -951.95347406 Ry
     estimated scf accuracy    <      21.21494433 Ry

     total magnetization       =     0.00 Bohr mag/cell
     absolute magnetization    =     6.46 Bohr mag/cell

     iteration # 11     ecut=    70.00 Ry     beta= 0.70
     Davidson diagonalization with overlap
     ethr =  6.44E-03,  avg # of iterations =  2.0

     negative rho (up, down):  4.670E-02 4.131E-01

     total cpu time spent up to now is     1490.9 secs

     total energy              =    -951.32760982 Ry
     Harris-Foulkes estimate   =    -952.38493195 Ry
     estimated scf accuracy    <      39.37840413 Ry

     total magnetization       =    -0.00 Bohr mag/cell
     absolute magnetization    =     8.86 Bohr mag/cell

     iteration # 12     ecut=    70.00 Ry     beta= 0.70
     Davidson diagonalization with overlap
     ethr =  6.44E-03,  avg # of iterations =  2.0

     negative rho (up, down):  5.581E-02 3.126E-01

     total cpu time spent up to now is     1594.6 secs

     total energy              =    -951.73961623 Ry
     Harris-Foulkes estimate   =    -951.87152143 Ry
     estimated scf accuracy    <       5.09613150 Ry

     total magnetization       =    -0.00 Bohr mag/cell
     absolute magnetization    =     2.15 Bohr mag/cell

     iteration # 13     ecut=    70.00 Ry     beta= 0.70
     Davidson diagonalization with overlap
     ethr =  2.36E-03,  avg # of iterations =  1.5

     negative rho (up, down):  2.830E-02 2.792E-01

     total cpu time spent up to now is     1696.1 secs

     total energy              =    -951.78272968 Ry
     Harris-Foulkes estimate   =    -951.81780716 Ry
     estimated scf accuracy    <       0.65651321 Ry

     total magnetization       =     0.00 Bohr mag/cell
     absolute magnetization    =     1.01 Bohr mag/cell

     iteration # 14     ecut=    70.00 Ry     beta= 0.70
     Davidson diagonalization with overlap
     ethr =  3.04E-04,  avg # of iterations =  7.0

     negative rho (up, down):  1.131E-02 1.442E-01

     total cpu time spent up to now is     1805.0 secs

     total energy              =    -951.81822378 Ry
     Harris-Foulkes estimate   =    -951.83879353 Ry
     estimated scf accuracy    <       0.34695541 Ry

     total magnetization       =     0.11 Bohr mag/cell
     absolute magnetization    =     0.55 Bohr mag/cell

     iteration # 15     ecut=    70.00 Ry     beta= 0.70
     Davidson diagonalization with overlap
     ethr =  1.61E-04,  avg # of iterations =  2.0

     negative rho (up, down):  4.326E-03 6.257E-02

     total cpu time spent up to now is     1907.3 secs

     total energy              =    -951.83332765 Ry
     Harris-Foulkes estimate   =    -951.83638631 Ry
     estimated scf accuracy    <       0.03872216 Ry

     total magnetization       =     0.16 Bohr mag/cell
     absolute magnetization    =     0.24 Bohr mag/cell

     iteration # 16     ecut=    70.00 Ry     beta= 0.70
     Davidson diagonalization with overlap
     ethr =  1.79E-05,  avg # of iterations =  4.0

     negative rho (up, down):  6.518E-03 2.320E-01

     total cpu time spent up to now is     2029.9 secs

     total energy              =    -951.85986368 Ry
     Harris-Foulkes estimate   =    -951.85303098 Ry
     estimated scf accuracy    <       0.62901557 Ry

     total magnetization       =    -0.00 Bohr mag/cell
     absolute magnetization    =     1.11 Bohr mag/cell

     iteration # 17     ecut=    70.00 Ry     beta= 0.70
     Davidson diagonalization with overlap
     ethr =  1.79E-05,  avg # of iterations =  2.5

     negative rho (up, down):  1.038E-02 2.825E-01

     total cpu time spent up to now is     2141.1 secs

     total energy              =    -951.80697318 Ry
     Harris-Foulkes estimate   =    -951.86325124 Ry
     estimated scf accuracy    <       1.47438680 Ry

     total magnetization       =     0.00 Bohr mag/cell
     absolute magnetization    =     1.77 Bohr mag/cell

     iteration # 18     ecut=    70.00 Ry     beta= 0.70
     Davidson diagonalization with overlap
     ethr =  1.79E-05,  avg # of iterations =  3.5

     negative rho (up, down):  3.208E-03 2.679E-01

     total cpu time spent up to now is     2261.1 secs

     total energy              =    -951.83282096 Ry
     Harris-Foulkes estimate   =    -951.83404881 Ry
     estimated scf accuracy    <       0.29418365 Ry

     total magnetization       =    -0.00 Bohr mag/cell
     absolute magnetization    =     0.85 Bohr mag/cell

     iteration # 19     ecut=    70.00 Ry     beta= 0.70
     Davidson diagonalization with overlap
     ethr =  1.79E-05,  avg # of iterations =  2.5

     negative rho (up, down):  1.667E-03 2.230E-01

     total cpu time spent up to now is     2369.3 secs

     total energy              =    -951.83658540 Ry
     Harris-Foulkes estimate   =    -951.83570556 Ry
     estimated scf accuracy    <       0.02427606 Ry

     total magnetization       =     0.00 Bohr mag/cell
     absolute magnetization    =     0.27 Bohr mag/cell

     iteration # 20     ecut=    70.00 Ry     beta= 0.70
     Davidson diagonalization with overlap
     ethr =  1.12E-05,  avg # of iterations =  2.5

     negative rho (up, down):  1.463E-03 1.314E-01

     total cpu time spent up to now is     2473.4 secs

     total energy              =    -951.83842502 Ry
     Harris-Foulkes estimate   =    -951.83743650 Ry
     estimated scf accuracy    <       0.00353967 Ry

     total magnetization       =     0.16 Bohr mag/cell
     absolute magnetization    =     0.21 Bohr mag/cell

     iteration # 21     ecut=    70.00 Ry     beta= 0.70
     Davidson diagonalization with overlap
     ethr =  1.64E-06,  avg # of iterations =  5.5

     negative rho (up, down):  1.204E-03 6.444E-02

     total cpu time spent up to now is     2582.0 secs

     total energy              =    -951.83899364 Ry
     Harris-Foulkes estimate   =    -951.83881712 Ry
     estimated scf accuracy    <       0.00155005 Ry

     total magnetization       =     0.00 Bohr mag/cell
     absolute magnetization    =     0.09 Bohr mag/cell

     iteration # 22     ecut=    70.00 Ry     beta= 0.70
     Davidson diagonalization with overlap
     ethr =  7.18E-07,  avg # of iterations =  3.0

     negative rho (up, down):  1.574E-03 1.442E-01

     total cpu time spent up to now is     2693.0 secs

     total energy              =    -951.83874457 Ry
     Harris-Foulkes estimate   =    -951.83932640 Ry
     estimated scf accuracy    <       0.01826850 Ry

     total magnetization       =    -0.00 Bohr mag/cell
     absolute magnetization    =     0.22 Bohr mag/cell

     iteration # 23     ecut=    70.00 Ry     beta= 0.70
     Davidson diagonalization with overlap
     ethr =  7.18E-07,  avg # of iterations =  3.0

     negative rho (up, down):  1.515E-03 1.430E-01

     total cpu time spent up to now is     2796.5 secs

     total energy              =    -951.83895472 Ry
     Harris-Foulkes estimate   =    -951.83879992 Ry
     estimated scf accuracy    <       0.00899182 Ry

     total magnetization       =    -0.00 Bohr mag/cell
     absolute magnetization    =     0.17 Bohr mag/cell

     iteration # 24     ecut=    70.00 Ry     beta= 0.70
     Davidson diagonalization with overlap
     ethr =  7.18E-07,  avg # of iterations =  2.5

     negative rho (up, down):  1.932E-03 1.686E-01

     total cpu time spent up to now is     2905.6 secs

     total energy              =    -951.83912986 Ry
     Harris-Foulkes estimate   =    -951.83939126 Ry
     estimated scf accuracy    <       0.02884732 Ry

     total magnetization       =    -0.00 Bohr mag/cell
     absolute magnetization    =     0.24 Bohr mag/cell

     iteration # 25     ecut=    70.00 Ry     beta= 0.70
     Davidson diagonalization with overlap
     ethr =  7.18E-07,  avg # of iterations =  3.0

     negative rho (up, down):  2.477E-03 2.176E-01

     total cpu time spent up to now is     3014.9 secs

     total energy              =    -951.83730128 Ry
     Harris-Foulkes estimate   =    -951.83948248 Ry
     estimated scf accuracy    <       0.06712781 Ry

     total magnetization       =    -0.00 Bohr mag/cell
     absolute magnetization    =     0.38 Bohr mag/cell

     iteration # 26     ecut=    70.00 Ry     beta= 0.70
     Davidson diagonalization with overlap
     ethr =  7.18E-07,  avg # of iterations =  3.5

     negative rho (up, down):  1.632E-03 1.617E-01

     total cpu time spent up to now is     3130.9 secs

     total energy              =    -951.83844301 Ry
     Harris-Foulkes estimate   =    -951.83782994 Ry
     estimated scf accuracy    <       0.00445942 Ry

     total magnetization       =     0.12 Bohr mag/cell
     absolute magnetization    =     0.21 Bohr mag/cell

     iteration # 27     ecut=    70.00 Ry     beta= 0.70
     Davidson diagonalization with overlap
     ethr =  7.18E-07,  avg # of iterations =  3.0

     negative rho (up, down):  1.248E-03 8.066E-02

     total cpu time spent up to now is     3236.3 secs

     total energy              =    -951.83905236 Ry
     Harris-Foulkes estimate   =    -951.83865320 Ry
     estimated scf accuracy    <       0.00044105 Ry

     total magnetization       =     0.00 Bohr mag/cell
     absolute magnetization    =     0.05 Bohr mag/cell

     iteration # 28     ecut=    70.00 Ry     beta= 0.70
     Davidson diagonalization with overlap
     ethr =  2.04E-07,  avg # of iterations =  3.5

     negative rho (up, down):  1.205E-03 5.664E-02

     total cpu time spent up to now is     3340.6 secs

     total energy              =    -951.83912297 Ry
     Harris-Foulkes estimate   =    -951.83906465 Ry
     estimated scf accuracy    <       0.00072383 Ry

     total magnetization       =     0.00 Bohr mag/cell
     absolute magnetization    =     0.06 Bohr mag/cell

     iteration # 29     ecut=    70.00 Ry     beta= 0.70
     Davidson diagonalization with overlap
     ethr =  2.04E-07,  avg # of iterations =  1.0

     negative rho (up, down):  1.206E-03 5.609E-02

     total cpu time spent up to now is     3439.8 secs

     total energy              =    -951.83913854 Ry
     Harris-Foulkes estimate   =    -951.83912631 Ry
     estimated scf accuracy    <       0.00088848 Ry

     total magnetization       =    -0.00 Bohr mag/cell
     absolute magnetization    =     0.07 Bohr mag/cell

     iteration # 30     ecut=    70.00 Ry     beta= 0.70
     Davidson diagonalization with overlap
     ethr =  2.04E-07,  avg # of iterations =  2.0

     negative rho (up, down):  1.299E-03 8.719E-02

     total cpu time spent up to now is     3546.6 secs

     total energy              =    -951.83903109 Ry
     Harris-Foulkes estimate   =    -951.83916007 Ry
     estimated scf accuracy    <       0.00332226 Ry

     total magnetization       =    -0.00 Bohr mag/cell
     absolute magnetization    =     0.10 Bohr mag/cell

     iteration # 31     ecut=    70.00 Ry     beta= 0.70
     Davidson diagonalization with overlap
     ethr =  2.04E-07,  avg # of iterations =  2.0

     negative rho (up, down):  1.249E-03 7.970E-02

     total cpu time spent up to now is     3666.4 secs

     total energy              =    -951.83910491 Ry
     Harris-Foulkes estimate   =    -951.83905184 Ry
     estimated scf accuracy    <       0.00198358 Ry

     total magnetization       =     0.00 Bohr mag/cell
     absolute magnetization    =     0.09 Bohr mag/cell

     iteration # 32     ecut=    70.00 Ry     beta= 0.70
     Davidson diagonalization with overlap
     ethr =  2.04E-07,  avg # of iterations =  2.0

     negative rho (up, down):  1.278E-03 9.823E-02

     total cpu time spent up to now is     3783.1 secs

     total energy              =    -951.83911997 Ry
     Harris-Foulkes estimate   =    -951.83911843 Ry
     estimated scf accuracy    <       0.00370250 Ry

     total magnetization       =    -0.00 Bohr mag/cell
     absolute magnetization    =     0.11 Bohr mag/cell

     iteration # 33     ecut=    70.00 Ry     beta= 0.70
     Davidson diagonalization with overlap
     ethr =  2.04E-07,  avg # of iterations =  2.0

     negative rho (up, down):  1.323E-03 1.256E-01

     total cpu time spent up to now is     3898.9 secs

     total energy              =    -951.83895103 Ry
     Harris-Foulkes estimate   =    -951.83914640 Ry
     estimated scf accuracy    <       0.00745571 Ry

     total magnetization       =    -0.00 Bohr mag/cell
     absolute magnetization    =     0.14 Bohr mag/cell

     iteration # 34     ecut=    70.00 Ry     beta= 0.70
     Davidson diagonalization with overlap
     ethr =  2.04E-07,  avg # of iterations =  2.0

     negative rho (up, down):  1.316E-03 1.122E-01

     total cpu time spent up to now is     4006.1 secs

     total energy              =    -951.83893252 Ry
     Harris-Foulkes estimate   =    -951.83897389 Ry
     estimated scf accuracy    <       0.00458457 Ry

     total magnetization       =    -0.00 Bohr mag/cell
     absolute magnetization    =     0.11 Bohr mag/cell

     iteration # 35     ecut=    70.00 Ry     beta= 0.70
     Davidson diagonalization with overlap
     ethr =  2.04E-07,  avg # of iterations =  2.0

     negative rho (up, down):  1.252E-03 9.294E-02

     total cpu time spent up to now is     4121.7 secs

     total energy              =    -951.83909638 Ry
     Harris-Foulkes estimate   =    -951.83900163 Ry
     estimated scf accuracy    <       0.00396343 Ry

     total magnetization       =    -0.00 Bohr mag/cell
     absolute magnetization    =     0.10 Bohr mag/cell

     iteration # 36     ecut=    70.00 Ry     beta= 0.70
     Davidson diagonalization with overlap
     ethr =  2.04E-07,  avg # of iterations =  2.0

     negative rho (up, down):  1.347E-03 1.202E-01

     total cpu time spent up to now is     4237.0 secs

     total energy              =    -951.83896077 Ry
     Harris-Foulkes estimate   =    -951.83912381 Ry
     estimated scf accuracy    <       0.00698236 Ry

     total magnetization       =    -0.00 Bohr mag/cell
     absolute magnetization    =     0.13 Bohr mag/cell

     iteration # 37     ecut=    70.00 Ry     beta= 0.70
     Davidson diagonalization with overlap
     ethr =  2.04E-07,  avg # of iterations =  1.5

     negative rho (up, down):  1.339E-03 1.108E-01

     total cpu time spent up to now is     4350.4 secs

     total energy              =    -951.83900851 Ry
     Harris-Foulkes estimate   =    -951.83897657 Ry
     estimated scf accuracy    <       0.00399628 Ry

     total magnetization       =    -0.00 Bohr mag/cell
     absolute magnetization    =     0.10 Bohr mag/cell

     iteration # 38     ecut=    70.00 Ry     beta= 0.70
     Davidson diagonalization with overlap
     ethr =  2.04E-07,  avg # of iterations =  3.0

     negative rho (up, down):  1.328E-03 1.414E-01

     total cpu time spent up to now is     4472.3 secs

     total energy              =    -951.83864783 Ry
     Harris-Foulkes estimate   =    -951.83912249 Ry
     estimated scf accuracy    <       0.01154855 Ry

     total magnetization       =     0.00 Bohr mag/cell
     absolute magnetization    =     0.17 Bohr mag/cell

     iteration # 39     ecut=    70.00 Ry     beta= 0.70
     Davidson diagonalization with overlap
     ethr =  2.04E-07,  avg # of iterations =  3.0

     negative rho (up, down):  1.219E-03 6.699E-02

     total cpu time spent up to now is     4589.9 secs

     total energy              =    -951.83908079 Ry
     Harris-Foulkes estimate   =    -951.83881185 Ry
     estimated scf accuracy    <       0.00017226 Ry

     total magnetization       =    -0.00 Bohr mag/cell
     absolute magnetization    =     0.04 Bohr mag/cell

     iteration # 40     ecut=    70.00 Ry     beta= 0.70
     Davidson diagonalization with overlap
     ethr =  7.97E-08,  avg # of iterations =  2.5

     negative rho (up, down):  1.194E-03 1.922E-02

     total cpu time spent up to now is     4706.5 secs

     total energy              =    -951.83915078 Ry
     Harris-Foulkes estimate   =    -951.83909365 Ry
     estimated scf accuracy    <       0.00017889 Ry

     total magnetization       =     0.00 Bohr mag/cell
     absolute magnetization    =     0.03 Bohr mag/cell

     iteration # 41     ecut=    70.00 Ry     beta= 0.70
     Davidson diagonalization with overlap
     ethr =  7.97E-08,  avg # of iterations =  3.0

     negative rho (up, down):  1.194E-03 1.784E-02

     total cpu time spent up to now is     4824.2 secs

     total energy              =    -951.83915509 Ry
     Harris-Foulkes estimate   =    -951.83915932 Ry
     estimated scf accuracy    <       0.00012196 Ry

     total magnetization       =     0.00 Bohr mag/cell
     absolute magnetization    =     0.03 Bohr mag/cell

     iteration # 42     ecut=    70.00 Ry     beta= 0.70
     Davidson diagonalization with overlap
     ethr =  5.65E-08,  avg # of iterations =  2.0

     negative rho (up, down):  1.192E-03 7.939E-03

     total cpu time spent up to now is     4930.4 secs

     total energy              =    -951.83916139 Ry
     Harris-Foulkes estimate   =    -951.83915937 Ry
     estimated scf accuracy    <       0.00002752 Ry

     total magnetization       =    -0.00 Bohr mag/cell
     absolute magnetization    =     0.02 Bohr mag/cell

     iteration # 43     ecut=    70.00 Ry     beta= 0.70
     Davidson diagonalization with overlap
     ethr =  1.27E-08,  avg # of iterations =  2.0

     negative rho (up, down):  1.193E-03 8.753E-03

     total cpu time spent up to now is     5040.1 secs

     total energy              =    -951.83915857 Ry
     Harris-Foulkes estimate   =    -951.83916431 Ry
     estimated scf accuracy    <       0.00004406 Ry

     total magnetization       =     0.00 Bohr mag/cell
     absolute magnetization    =     0.02 Bohr mag/cell

     iteration # 44     ecut=    70.00 Ry     beta= 0.70
     Davidson diagonalization with overlap
     ethr =  1.27E-08,  avg # of iterations =  2.0

     negative rho (up, down):  1.198E-03 2.757E-02

     total cpu time spent up to now is     5155.5 secs

     total energy              =    -951.83915976 Ry
     Harris-Foulkes estimate   =    -951.83916905 Ry
     estimated scf accuracy    <       0.00036910 Ry

     total magnetization       =    -0.00 Bohr mag/cell
     absolute magnetization    =     0.03 Bohr mag/cell

     iteration # 45     ecut=    70.00 Ry     beta= 0.70
     Davidson diagonalization with overlap
     ethr =  1.27E-08,  avg # of iterations =  1.0

     negative rho (up, down):  1.201E-03 3.909E-02

     total cpu time spent up to now is     5259.9 secs

     total energy              =    -951.83913975 Ry
     Harris-Foulkes estimate   =    -951.83915987 Ry
     estimated scf accuracy    <       0.00040220 Ry

     total magnetization       =    -0.00 Bohr mag/cell
     absolute magnetization    =     0.03 Bohr mag/cell

     iteration # 46     ecut=    70.00 Ry     beta= 0.70
     Davidson diagonalization with overlap
     ethr =  1.27E-08,  avg # of iterations =  2.0

     negative rho (up, down):  1.191E-03 2.001E-02

     total cpu time spent up to now is     5376.0 secs

     total energy              =    -951.83915802 Ry
     Harris-Foulkes estimate   =    -951.83914375 Ry
     estimated scf accuracy    <       0.00003526 Ry

     total magnetization       =     0.00 Bohr mag/cell
     absolute magnetization    =     0.02 Bohr mag/cell

     iteration # 47     ecut=    70.00 Ry     beta= 0.70
     Davidson diagonalization with overlap
     ethr =  1.27E-08,  avg # of iterations =  2.0

     negative rho (up, down):  1.191E-03 1.443E-02

     total cpu time spent up to now is     5493.1 secs

     total energy              =    -951.83916407 Ry
     Harris-Foulkes estimate   =    -951.83916278 Ry
     estimated scf accuracy    <       0.00010964 Ry

     total magnetization       =    -0.00 Bohr mag/cell
     absolute magnetization    =     0.02 Bohr mag/cell

     iteration # 48     ecut=    70.00 Ry     beta= 0.70
     Davidson diagonalization with overlap
     ethr =  1.27E-08,  avg # of iterations =  2.0

     negative rho (up, down):  1.190E-03 2.255E-02

     total cpu time spent up to now is     5602.7 secs

     total energy              =    -951.83915788 Ry
     Harris-Foulkes estimate   =    -951.83916485 Ry
     estimated scf accuracy    <       0.00019487 Ry

     total magnetization       =     0.00 Bohr mag/cell
     absolute magnetization    =     0.02 Bohr mag/cell

     iteration # 49     ecut=    70.00 Ry     beta= 0.70
     Davidson diagonalization with overlap
     ethr =  1.27E-08,  avg # of iterations =  2.5

     negative rho (up, down):  1.194E-03 4.377E-02

     total cpu time spent up to now is     5721.9 secs

     total energy              =    -951.83912525 Ry
     Harris-Foulkes estimate   =    -951.83917020 Ry
     estimated scf accuracy    <       0.00079405 Ry

     total magnetization       =    -0.00 Bohr mag/cell
     absolute magnetization    =     0.05 Bohr mag/cell

     iteration # 50     ecut=    70.00 Ry     beta= 0.70
     Davidson diagonalization with overlap
     ethr =  1.27E-08,  avg # of iterations =  2.5

     negative rho (up, down):  1.190E-03 1.444E-02

     total cpu time spent up to now is     5842.2 secs

     total energy              =    -951.83916065 Ry
     Harris-Foulkes estimate   =    -951.83913781 Ry
     estimated scf accuracy    <       0.00001129 Ry

     total magnetization       =     0.00 Bohr mag/cell
     absolute magnetization    =     0.01 Bohr mag/cell

     iteration # 51     ecut=    70.00 Ry     beta= 0.70
     Davidson diagonalization with overlap
     ethr =  5.22E-09,  avg # of iterations =  2.0

     negative rho (up, down):  1.192E-03 9.404E-03

     total cpu time spent up to now is     5947.8 secs

     total energy              =    -951.83916206 Ry
     Harris-Foulkes estimate   =    -951.83916165 Ry
     estimated scf accuracy    <       0.00002118 Ry

     total magnetization       =     0.00 Bohr mag/cell
     absolute magnetization    =     0.01 Bohr mag/cell

     iteration # 52     ecut=    70.00 Ry     beta= 0.70
     Davidson diagonalization with overlap
     ethr =  5.22E-09,  avg # of iterations =  2.0

     negative rho (up, down):  1.191E-03 2.886E-03

     total cpu time spent up to now is     6054.3 secs

     total energy              =    -951.83916346 Ry
     Harris-Foulkes estimate   =    -951.83916333 Ry
     estimated scf accuracy    <       0.00001286 Ry

     total magnetization       =     0.00 Bohr mag/cell
     absolute magnetization    =     0.01 Bohr mag/cell

     iteration # 53     ecut=    70.00 Ry     beta= 0.70
     Davidson diagonalization with overlap
     ethr =  5.22E-09,  avg # of iterations =  2.0

     negative rho (up, down):  1.191E-03 2.291E-03

     total cpu time spent up to now is     6158.2 secs

     total energy              =    -951.83916373 Ry
     Harris-Foulkes estimate   =    -951.83916422 Ry
     estimated scf accuracy    <       0.00000546 Ry

     total magnetization       =    -0.00 Bohr mag/cell
     absolute magnetization    =     0.01 Bohr mag/cell

     iteration # 54     ecut=    70.00 Ry     beta= 0.70
     Davidson diagonalization with overlap
     ethr =  2.53E-09,  avg # of iterations =  2.0

     negative rho (up, down):  1.191E-03 3.160E-03

     total cpu time spent up to now is     6263.7 secs

     total energy              =    -951.83916418 Ry
     Harris-Foulkes estimate   =    -951.83916419 Ry
     estimated scf accuracy    <       0.00000666 Ry

     total magnetization       =    -0.00 Bohr mag/cell
     absolute magnetization    =     0.01 Bohr mag/cell

     iteration # 55     ecut=    70.00 Ry     beta= 0.70
     Davidson diagonalization with overlap
     ethr =  2.53E-09,  avg # of iterations =  1.5

     negative rho (up, down):  1.191E-03 5.993E-03

     total cpu time spent up to now is     6364.2 secs

     total energy              =    -951.83916394 Ry
     Harris-Foulkes estimate   =    -951.83916422 Ry
     estimated scf accuracy    <       0.00001070 Ry

     total magnetization       =    -0.00 Bohr mag/cell
     absolute magnetization    =     0.01 Bohr mag/cell

     iteration # 56     ecut=    70.00 Ry     beta= 0.70
     Davidson diagonalization with overlap
     ethr =  2.53E-09,  avg # of iterations =  1.0

     negative rho (up, down):  1.192E-03 7.084E-03

     total cpu time spent up to now is     6464.6 secs

     total energy              =    -951.83916360 Ry
     Harris-Foulkes estimate   =    -951.83916394 Ry
     estimated scf accuracy    <       0.00001192 Ry

     total magnetization       =     0.00 Bohr mag/cell
     absolute magnetization    =     0.01 Bohr mag/cell

     iteration # 57     ecut=    70.00 Ry     beta= 0.70
     Davidson diagonalization with overlap
     ethr =  2.53E-09,  avg # of iterations =  1.5

     negative rho (up, down):  1.191E-03 6.290E-03

     total cpu time spent up to now is     6565.2 secs

     total energy              =    -951.83916413 Ry
     Harris-Foulkes estimate   =    -951.83916375 Ry
     estimated scf accuracy    <       0.00000999 Ry

     total magnetization       =    -0.00 Bohr mag/cell
     absolute magnetization    =     0.01 Bohr mag/cell

     iteration # 58     ecut=    70.00 Ry     beta= 0.70
     Davidson diagonalization with overlap
     ethr =  2.53E-09,  avg # of iterations =  2.0

     negative rho (up, down):  1.192E-03 1.283E-02

     total cpu time spent up to now is     6671.8 secs

     total energy              =    -951.83916125 Ry
     Harris-Foulkes estimate   =    -951.83916455 Ry
     estimated scf accuracy    <       0.00005548 Ry

     total magnetization       =     0.00 Bohr mag/cell
     absolute magnetization    =     0.01 Bohr mag/cell

     iteration # 59     ecut=    70.00 Ry     beta= 0.70
     Davidson diagonalization with overlap
     ethr =  2.53E-09,  avg # of iterations =  2.0

     negative rho (up, down):  1.191E-03 6.329E-03

     total cpu time spent up to now is     6780.8 secs

     total energy              =    -951.83916362 Ry
     Harris-Foulkes estimate   =    -951.83916230 Ry
     estimated scf accuracy    <       0.00001361 Ry

     total magnetization       =    -0.00 Bohr mag/cell
     absolute magnetization    =     0.01 Bohr mag/cell

     iteration # 60     ecut=    70.00 Ry     beta= 0.70
     Davidson diagonalization with overlap
     ethr =  2.53E-09,  avg # of iterations =  2.0

     negative rho (up, down):  1.191E-03 5.602E-03

     total cpu time spent up to now is     6883.4 secs

     total energy              =    -951.83916380 Ry
     Harris-Foulkes estimate   =    -951.83916384 Ry
     estimated scf accuracy    <       0.00000828 Ry

     total magnetization       =     0.00 Bohr mag/cell
     absolute magnetization    =     0.01 Bohr mag/cell

     iteration # 61     ecut=    70.00 Ry     beta= 0.70
     Davidson diagonalization with overlap
     ethr =  2.53E-09,  avg # of iterations =  2.0

     negative rho (up, down):  1.192E-03 5.541E-03

     total cpu time spent up to now is     6990.2 secs

     total energy              =    -951.83916313 Ry
     Harris-Foulkes estimate   =    -951.83916435 Ry
     estimated scf accuracy    <       0.00002034 Ry

     total magnetization       =     0.00 Bohr mag/cell
     absolute magnetization    =     0.01 Bohr mag/cell

     iteration # 62     ecut=    70.00 Ry     beta= 0.70
     Davidson diagonalization with overlap
     ethr =  2.53E-09,  avg # of iterations =  2.0

     negative rho (up, down):  1.193E-03 4.909E-03

     total cpu time spent up to now is     7097.2 secs

     total energy              =    -951.83916361 Ry
     Harris-Foulkes estimate   =    -951.83916376 Ry
     estimated scf accuracy    <       0.00000880 Ry

     total magnetization       =     0.00 Bohr mag/cell
     absolute magnetization    =     0.01 Bohr mag/cell

     iteration # 63     ecut=    70.00 Ry     beta= 0.70
     Davidson diagonalization with overlap
     ethr =  2.53E-09,  avg # of iterations =  3.0

     negative rho (up, down):  1.201E-03 1.540E-02

     total cpu time spent up to now is     7216.6 secs

     total energy              =    -951.83917045 Ry
     Harris-Foulkes estimate   =    -951.83916871 Ry
     estimated scf accuracy    <       0.00021610 Ry

     total magnetization       =    -0.00 Bohr mag/cell
     absolute magnetization    =     0.02 Bohr mag/cell

     iteration # 64     ecut=    70.00 Ry     beta= 0.70
     Davidson diagonalization with overlap
     ethr =  2.53E-09,  avg # of iterations =  3.0

     negative rho (up, down):  1.211E-03 6.108E-02

     total cpu time spent up to now is     7350.2 secs

     total energy              =    -951.83907860 Ry
     Harris-Foulkes estimate   =    -951.83918376 Ry
     estimated scf accuracy    <       0.00165063 Ry

     total magnetization       =     0.00 Bohr mag/cell
     absolute magnetization    =     0.06 Bohr mag/cell

     iteration # 65     ecut=    70.00 Ry     beta= 0.70
     Davidson diagonalization with overlap
     ethr =  2.53E-09,  avg # of iterations =  3.0

     negative rho (up, down):  1.196E-03 1.993E-02

     total cpu time spent up to now is     7490.5 secs

     total energy              =    -951.83915649 Ry
     Harris-Foulkes estimate   =    -951.83910450 Ry
     estimated scf accuracy    <       0.00002849 Ry

     total magnetization       =    -0.00 Bohr mag/cell
     absolute magnetization    =     0.01 Bohr mag/cell

     iteration # 66     ecut=    70.00 Ry     beta= 0.70
     Davidson diagonalization with overlap
     ethr =  2.53E-09,  avg # of iterations =  2.0

     negative rho (up, down):  1.191E-03 6.823E-03

     total cpu time spent up to now is     7603.4 secs

     total energy              =    -951.83916338 Ry
     Harris-Foulkes estimate   =    -951.83915730 Ry
     estimated scf accuracy    <       0.00000254 Ry

     total magnetization       =    -0.00 Bohr mag/cell
     absolute magnetization    =     0.00 Bohr mag/cell

     iteration # 67     ecut=    70.00 Ry     beta= 0.70
     Davidson diagonalization with overlap
     ethr =  1.18E-09,  avg # of iterations =  2.0

     negative rho (up, down):  1.191E-03 2.372E-03

     total cpu time spent up to now is     7715.1 secs

     total energy              =    -951.83916421 Ry
     Harris-Foulkes estimate   =    -951.83916367 Ry
     estimated scf accuracy    <       0.00000291 Ry

     total magnetization       =    -0.00 Bohr mag/cell
     absolute magnetization    =     0.00 Bohr mag/cell

     iteration # 68     ecut=    70.00 Ry     beta= 0.70
     Davidson diagonalization with overlap
     ethr =  1.18E-09,  avg # of iterations =  2.0

     negative rho (up, down):  1.191E-03 4.165E-03

     total cpu time spent up to now is     7821.5 secs

     total energy              =    -951.83916394 Ry
     Harris-Foulkes estimate   =    -951.83916429 Ry
     estimated scf accuracy    <       0.00000756 Ry

     total magnetization       =    -0.00 Bohr mag/cell
     absolute magnetization    =     0.01 Bohr mag/cell

     iteration # 69     ecut=    70.00 Ry     beta= 0.70
     Davidson diagonalization with overlap
     ethr =  1.18E-09,  avg # of iterations =  2.0

     negative rho (up, down):  1.191E-03 4.639E-03

     total cpu time spent up to now is     7933.5 secs

     total energy              =    -951.83916404 Ry
     Harris-Foulkes estimate   =    -951.83916415 Ry
     estimated scf accuracy    <       0.00000819 Ry

     total magnetization       =     0.00 Bohr mag/cell
     absolute magnetization    =     0.01 Bohr mag/cell

     iteration # 70     ecut=    70.00 Ry     beta= 0.70
     Davidson diagonalization with overlap
     ethr =  1.18E-09,  avg # of iterations =  2.0

     negative rho (up, down):  1.191E-03 3.810E-03

     total cpu time spent up to now is     8038.3 secs

     total energy              =    -951.83916404 Ry
     Harris-Foulkes estimate   =    -951.83916411 Ry
     estimated scf accuracy    <       0.00000330 Ry

     total magnetization       =     0.00 Bohr mag/cell
     absolute magnetization    =     0.00 Bohr mag/cell

     iteration # 71     ecut=    70.00 Ry     beta= 0.70
     Davidson diagonalization with overlap
     ethr =  1.18E-09,  avg # of iterations =  2.0

     negative rho (up, down):  1.191E-03 3.060E-03

     total cpu time spent up to now is     8143.9 secs

     total energy              =    -951.83916399 Ry
     Harris-Foulkes estimate   =    -951.83916413 Ry
     estimated scf accuracy    <       0.00000256 Ry

     total magnetization       =     0.00 Bohr mag/cell
     absolute magnetization    =     0.00 Bohr mag/cell

     iteration # 72     ecut=    70.00 Ry     beta= 0.70
     Davidson diagonalization with overlap
     ethr =  1.18E-09,  avg # of iterations =  2.0

     negative rho (up, down):  1.191E-03 2.112E-03

     total cpu time spent up to now is     8256.2 secs

     total energy              =    -951.83916383 Ry
     Harris-Foulkes estimate   =    -951.83916441 Ry
     estimated scf accuracy    <       0.00000640 Ry

     total magnetization       =     0.00 Bohr mag/cell
     absolute magnetization    =     0.00 Bohr mag/cell

     iteration # 73     ecut=    70.00 Ry     beta= 0.70
     Davidson diagonalization with overlap
     ethr =  1.18E-09,  avg # of iterations =  2.0

     negative rho (up, down):  1.190E-03 7.133E-05

     Magnetic moment per site:
     atom:    1    charge:    0.2161    magn:   -0.0000    constr:    0.0000
     atom:    2    charge:    0.2180    magn:    0.0000    constr:    0.0000
     atom:    3    charge:    1.7155    magn:    0.0000    constr:    0.0000
     atom:    4    charge:    1.7152    magn:   -0.0000    constr:    0.0000
     atom:    5    charge:    1.7168    magn:    0.0000    constr:    0.0000
     atom:    6    charge:    1.7145    magn:   -0.0000    constr:    0.0000
     atom:    7    charge:    1.7168    magn:    0.0000    constr:    0.0000
     atom:    8    charge:    1.7152    magn:   -0.0000    constr:    0.0000
     atom:    9    charge:    1.7155    magn:    0.0000    constr:    0.0000
     atom:   10    charge:    1.7176    magn:   -0.0000    constr:    0.0000
     atom:   11    charge:    1.7155    magn:    0.0000    constr:    0.0000
     atom:   12    charge:    1.7176    magn:   -0.0000    constr:    0.0000
     atom:   13    charge:    1.7156    magn:    0.0000    constr:    0.0000
     atom:   14    charge:    1.7174    magn:   -0.0000    constr:    0.0000
     atom:   15    charge:    1.7118    magn:    0.0000    constr:    0.0000
     atom:   16    charge:    1.7112    magn:   -0.0000    constr:    0.0000
     atom:   17    charge:    1.7208    magn:    0.0000    constr:    0.0000
     atom:   18    charge:    1.7112    magn:   -0.0000    constr:    0.0000
     atom:   19    charge:    1.7118    magn:    0.0000    constr:    0.0000
     atom:   20    charge:    1.7174    magn:   -0.0000    constr:    0.0000
     atom:   21    charge:    1.7156    magn:    0.0000    constr:    0.0000
     atom:   22    charge:    1.7175    magn:   -0.0000    constr:    0.0000
     atom:   23    charge:    1.7155    magn:    0.0000    constr:    0.0000
     atom:   24    charge:    1.7151    magn:   -0.0000    constr:    0.0000
     atom:   25    charge:    1.7118    magn:    0.0000    constr:    0.0000
     atom:   26    charge:    1.7110    magn:   -0.0000    constr:    0.0000
     atom:   27    charge:    1.8202    magn:    0.0000    constr:    0.0000
     atom:   28    charge:   13.4096    magn:    0.0000    constr:    0.0000
     atom:   29    charge:    1.8202    magn:    0.0000    constr:    0.0000
     atom:   30    charge:    1.7110    magn:   -0.0000    constr:    0.0000
     atom:   31    charge:    1.7118    magn:    0.0000    constr:    0.0000
     atom:   32    charge:    1.7151    magn:   -0.0000    constr:    0.0000
     atom:   33    charge:    1.7168    magn:    0.0000    constr:    0.0000
     atom:   34    charge:    1.7153    magn:   -0.0000    constr:    0.0000
     atom:   35    charge:    1.7168    magn:    0.0000    constr:    0.0000
     atom:   36    charge:    1.7146    magn:   -0.0000    constr:    0.0000
     atom:   37    charge:    1.7204    magn:    0.0000    constr:    0.0000
     atom:   38    charge:    1.7121    magn:   -0.0000    constr:    0.0000
     atom:   39    charge:    1.8236    magn:    0.0000    constr:    0.0000
     atom:   40    charge:    1.7121    magn:   -0.0000    constr:    0.0000
     atom:   41    charge:    1.7203    magn:    0.0000    constr:    0.0000
     atom:   42    charge:    1.7146    magn:   -0.0000    constr:    0.0000
     atom:   43    charge:    1.7167    magn:    0.0000    constr:    0.0000
     atom:   44    charge:    1.7154    magn:   -0.0000    constr:    0.0000
     atom:   45    charge:    1.7213    magn:    0.0000    constr:    0.0000
     atom:   46    charge:    1.7154    magn:   -0.0000    constr:    0.0000
     atom:   47    charge:    1.7167    magn:    0.0000    constr:    0.0000
     atom:   48    charge:    1.7152    magn:   -0.0000    constr:    0.0000
     atom:   49    charge:    1.7115    magn:    0.0000    constr:    0.0000
     atom:   50    charge:    1.7175    magn:   -0.0000    constr:    0.0000
     atom:   51    charge:    1.7115    magn:    0.0000    constr:    0.0000
     atom:   52    charge:    1.7152    magn:   -0.0000    constr:    0.0000

     total cpu time spent up to now is     8363.6 secs

     End of self-consistent calculation

 ------ SPIN UP ------------


          k = 0.0000 0.0000 0.0000 ( 87777 PWs)   bands (ev):

  -107.9609 -69.1387 -69.1127 -67.0638 -19.8440 -19.0251 -19.0234 -18.9025
   -18.9021 -18.8178 -18.7612 -17.1853 -17.1755 -17.1424 -17.0978 -17.0957
   -16.7723 -16.3315 -16.3257 -16.1836 -16.1813 -16.1661 -15.6977 -14.3409
   -14.3257 -14.1646 -14.0309 -14.0290 -13.5341 -13.1448 -13.1435 -13.0915
   -12.9220 -12.9184 -12.5239 -12.0957 -12.0953 -11.7271 -11.5902 -11.5844
   -10.9640 -10.4594 -10.4548  -9.5944  -9.3813  -9.3801  -9.2401  -9.2258
    -9.2251  -9.2106  -8.9814  -8.9685  -8.6166  -8.6103  -8.4834  -8.4483
    -7.9426  -7.9168  -7.8941  -7.6833  -7.5615  -7.5583  -7.4658  -7.4638
    -7.2742  -6.8616  -6.8346  -6.8342  -6.7603  -6.6359  -6.6326  -6.5692
    -6.5643  -6.5635  -6.5364  -6.4857  -6.4503  -6.4334  -6.3066  -6.3063
    -6.0595  -5.5626  -5.5570  -5.0457  -4.9634  -4.8592  -4.8563  -4.7708
    -4.7327  -4.7295  -4.4169  -4.4147  -4.3988  -3.8520  -3.8514  -3.7770
    -3.7740  -3.7738  -3.5426  -3.4379  -3.4333  -3.0655  -1.9062  -1.8197
    -1.8181  -1.6151  -1.6062  -1.1216   0.0421   0.0639   0.8890   0.9459
     0.9488   1.1810   1.1968   1.5366   2.4891   2.7818   2.7897   2.8407
     2.9917   3.0193   3.4206   3.6368   3.6483   3.7355   3.7371   3.7593
     3.9247   4.2053

     occupation numbers 
     1.0000   1.0000   1.0000   1.0000   1.0000   1.0000   1.0000   1.0000
     1.0000   1.0000   1.0000   1.0000   1.0000   1.0000   1.0000   1.0000
     1.0000   1.0000   1.0000   1.0000   1.0000   1.0000   1.0000   1.0000
     1.0000   1.0000   1.0000   1.0000   1.0000   1.0000   1.0000   1.0000
     1.0000   1.0000   1.0000   1.0000   1.0000   1.0000   1.0000   1.0000
     1.0000   1.0000   1.0000   1.0000   1.0000   1.0000   1.0000   1.0000
     1.0000   1.0000   1.0000   1.0000   1.0000   1.0000   1.0000   1.0000
     1.0000   1.0000   1.0000   1.0000   1.0000   1.0000   1.0000   1.0000
     1.0000   1.0000   1.0000   1.0000   1.0000   1.0000   1.0000   1.0000
     1.0000   1.0000   1.0000   1.0000   1.0000   1.0000   1.0000   1.0000
     1.0000   1.0000   1.0000   1.0000   1.0000   1.0000   1.0000   1.0000
     1.0000   1.0000   1.0000   1.0000   1.0000   1.0000   1.0000   1.0000
     1.0000   1.0000   1.0000   1.0000   1.0000   1.0000   1.0000   1.0000
     1.0000   1.0000   1.0000   1.0000   0.0000   0.0000   0.0000   0.0000
     0.0000   0.0000   0.0000   0.0000   0.0000   0.0000   0.0000   0.0000
     0.0000   0.0000   0.0000   0.0000   0.0000   0.0000   0.0000   0.0000
     0.0000   0.0000

 ------ SPIN DOWN ----------


          k = 0.0000 0.0000 0.0000 ( 87777 PWs)   bands (ev):

  -107.9608 -69.1387 -69.1127 -67.0637 -19.8440 -19.0251 -19.0234 -18.9025
   -18.9021 -18.8178 -18.7612 -17.1853 -17.1755 -17.1424 -17.0978 -17.0957
   -16.7723 -16.3315 -16.3257 -16.1836 -16.1813 -16.1661 -15.6977 -14.3409
   -14.3257 -14.1646 -14.0309 -14.0290 -13.5341 -13.1448 -13.1435 -13.0915
   -12.9220 -12.9184 -12.5239 -12.0957 -12.0953 -11.7271 -11.5902 -11.5844
   -10.9640 -10.4594 -10.4547  -9.5944  -9.3813  -9.3801  -9.2401  -9.2258
    -9.2251  -9.2106  -8.9814  -8.9684  -8.6166  -8.6103  -8.4834  -8.4484
    -7.9425  -7.9168  -7.8941  -7.6833  -7.5615  -7.5582  -7.4658  -7.4638
    -7.2741  -6.8616  -6.8346  -6.8342  -6.7603  -6.6359  -6.6326  -6.5692
    -6.5643  -6.5635  -6.5364  -6.4857  -6.4502  -6.4334  -6.3065  -6.3063
    -6.0595  -5.5626  -5.5570  -5.0457  -4.9634  -4.8591  -4.8563  -4.7708
    -4.7327  -4.7295  -4.4169  -4.4147  -4.3988  -3.8520  -3.8514  -3.7770
    -3.7740  -3.7738  -3.5426  -3.4379  -3.4334  -3.0655  -1.9062  -1.8197
    -1.8182  -1.6151  -1.6062  -1.1216   0.0423   0.0637   0.8890   0.9459
     0.9488   1.1810   1.1968   1.5366   2.4892   2.7818   2.7897   2.8407
     2.9917   3.0192   3.4206   3.6369   3.6483   3.7357   3.7371   3.7595
     3.9248   4.2054

     occupation numbers 
     1.0000   1.0000   1.0000   1.0000   1.0000   1.0000   1.0000   1.0000
     1.0000   1.0000   1.0000   1.0000   1.0000   1.0000   1.0000   1.0000
     1.0000   1.0000   1.0000   1.0000   1.0000   1.0000   1.0000   1.0000
     1.0000   1.0000   1.0000   1.0000   1.0000   1.0000   1.0000   1.0000
     1.0000   1.0000   1.0000   1.0000   1.0000   1.0000   1.0000   1.0000
     1.0000   1.0000   1.0000   1.0000   1.0000   1.0000   1.0000   1.0000
     1.0000   1.0000   1.0000   1.0000   1.0000   1.0000   1.0000   1.0000
     1.0000   1.0000   1.0000   1.0000   1.0000   1.0000   1.0000   1.0000
     1.0000   1.0000   1.0000   1.0000   1.0000   1.0000   1.0000   1.0000
     1.0000   1.0000   1.0000   1.0000   1.0000   1.0000   1.0000   1.0000
     1.0000   1.0000   1.0000   1.0000   1.0000   1.0000   1.0000   1.0000
     1.0000   1.0000   1.0000   1.0000   1.0000   1.0000   1.0000   1.0000
     1.0000   1.0000   1.0000   1.0000   1.0000   1.0000   1.0000   1.0000
     1.0000   1.0000   1.0000   1.0000   0.0000   0.0000   0.0000   0.0000
     0.0000   0.0000   0.0000   0.0000   0.0000   0.0000   0.0000   0.0000
     0.0000   0.0000   0.0000   0.0000   0.0000   0.0000   0.0000   0.0000
     0.0000   0.0000

     the Fermi energy is    -1.0277 ev

!    total energy              =    -951.83916440 Ry
     Harris-Foulkes estimate   =    -951.83916412 Ry
     estimated scf accuracy    <       0.00000093 Ry

     The total energy is the sum of the following terms:

     one-electron contribution =   -3003.33540150 Ry
     hartree contribution      =    1544.22182915 Ry
     xc contribution           =    -265.81398437 Ry
     ewald contribution        =     773.08839232 Ry
     smearing contrib. (-TS)   =       0.00000000 Ry

     total magnetization       =    -0.00 Bohr mag/cell
     absolute magnetization    =     0.00 Bohr mag/cell

     convergence has been achieved in  73 iterations

     Writing output data file distance-1.8.save/

     init_run     :     84.09s CPU     85.47s WALL (       1 calls)
     electrons    :   8138.49s CPU   8277.09s WALL (       1 calls)

     Called by init_run:
     wfcinit      :     53.03s CPU     53.37s WALL (       1 calls)
     wfcinit:atom :      0.07s CPU      0.12s WALL (       2 calls)
     wfcinit:wfcr :     52.54s CPU     52.78s WALL (       2 calls)
     potinit      :     12.94s CPU     13.34s WALL (       1 calls)
     hinit0       :      7.41s CPU      7.45s WALL (       1 calls)

     Called by electrons:
     c_bands      :   5221.13s CPU   5247.55s WALL (      73 calls)
     sum_band     :   1712.01s CPU   1758.23s WALL (      73 calls)
     v_of_rho     :    580.12s CPU    605.45s WALL (      74 calls)
     v_h          :      6.60s CPU      6.82s WALL (      74 calls)
     v_xc         :    573.51s CPU    598.63s WALL (      74 calls)
     newd         :    582.79s CPU    623.29s WALL (      74 calls)
     mix_rho      :     41.00s CPU     41.58s WALL (      73 calls)

     Called by c_bands:
     init_us_2    :     15.69s CPU     15.74s WALL (     294 calls)
     cegterg      :   5182.59s CPU   5208.83s WALL (     146 calls)

     Called by sum_band:
     sum_band:bec :      0.12s CPU      0.13s WALL (     146 calls)
     addusdens    :   1029.70s CPU   1072.69s WALL (      73 calls)

     Called by *egterg:
     h_psi        :   2758.50s CPU   2776.99s WALL (     508 calls)
     s_psi        :    923.77s CPU    924.09s WALL (     508 calls)
     g_psi        :      2.68s CPU      2.69s WALL (     360 calls)
     cdiaghg      :     33.02s CPU     33.03s WALL (     506 calls)
     cegterg:over :    602.72s CPU    603.00s WALL (     360 calls)
     cegterg:upda :    361.53s CPU    363.51s WALL (     360 calls)
     cegterg:last :    271.30s CPU    271.36s WALL (     146 calls)

     Called by h_psi:
     h_psi:pot    :   2755.52s CPU   2770.70s WALL (     508 calls)
     h_psi:calbec :    923.09s CPU    923.44s WALL (     508 calls)
     vloc_psi     :    908.65s CPU    923.20s WALL (     508 calls)
     add_vuspsi   :    923.77s CPU    924.06s WALL (     508 calls)

     General routines
     calbec       :   1335.15s CPU   1335.64s WALL (     654 calls)
     fft          :    362.16s CPU    372.86s WALL (    5544 calls)
     ffts         :      6.27s CPU      6.47s WALL (     294 calls)
     fftw         :    968.96s CPU    984.31s WALL (  104198 calls)
     interpolate  :     14.47s CPU     14.87s WALL (     148 calls)

     Parallel routines
     fft_scatt_xy :    250.57s CPU    253.02s WALL (  110036 calls)
     fft_scatt_yz :    450.12s CPU    470.04s WALL (  110036 calls)

     PWSCF        :      2h17m CPU      2h19m WALL


   This run was terminated on:  19:50:41  12Jan2023            

=------------------------------------------------------------------------------=
   JOB DONE.
=------------------------------------------------------------------------------=
