
     Program PWSCF v.6.4.1 starts on 22Dec2022 at 19:22:49 

     This program is part of the open-source Quantum ESPRESSO suite
     for quantum simulation of materials; please cite
         "P. Giannozzi et al., J. Phys.:Condens. Matter 21 395502 (2009);
         "P. Giannozzi et al., J. Phys.:Condens. Matter 29 465901 (2017);
          URL http://www.quantum-espresso.org", 
     in publications or presentations arising from this work. More details at
     http://www.quantum-espresso.org/quote

     Parallel version (MPI), running on     6 processors

     MPI processes distributed on     1 nodes
     R & G space division:  proc/nbgrp/npool/nimage =       6
     Reading input from distance-5.0.in

     Current dimensions of program PWSCF are:
     Max number of different atomic species (ntypx) = 10
     Max number of k-points (npk) =  40000
     Max angular momentum in pseudopotentials (lmaxx) =  3

     IMPORTANT: XC functional enforced from input :
     Exchange-correlation      = RVV10 ( 1  4 13  4 3 0)
     Any further DFT definition will be discarded
     Please, verify this is what you really want

               file H.pbe-rrkjus.UPF: wavefunction(s)  1S renormalized

     Subspace diagonalization in iterative solution of the eigenvalue problem:
     a serial algorithm will be used


     Parallelization info
     --------------------
     sticks:   dense  smooth     PW     G-vecs:    dense   smooth      PW
     Min        3051    1746    432               270999   117096   14629
     Max        3053    1747    437               271001   117099   14630
     Sum       18313   10477   2611              1626001   702581   87777



     bravais-lattice index     =            4
     lattice parameter (alat)  =      23.2937  a.u.
     unit-cell volume          =    8879.8548 (a.u.)^3
     number of atoms/cell      =           52
     number of atomic types    =            3
     number of electrons       =       216.00
     number of Kohn-Sham states=          130
     kinetic-energy cutoff     =      70.0000  Ry
     charge density cutoff     =     490.0000  Ry
     convergence threshold     =      1.0E-06
     mixing beta               =       0.7000
     number of iterations used =            8  plain     mixing
     Exchange-correlation      = RVV10 ( 1  4 13  4 3 0)

     celldm(1)=  23.293684  celldm(2)=   0.000000  celldm(3)=   0.811261
     celldm(4)=   0.000000  celldm(5)=   0.000000  celldm(6)=   0.000000

     crystal axes: (cart. coord. in units of alat)
               a(1) = (   1.000000   0.000000   0.000000 )  
               a(2) = (  -0.500000   0.866025   0.000000 )  
               a(3) = (   0.000000   0.000000   0.811261 )  

     reciprocal axes: (cart. coord. in units 2 pi/alat)
               b(1) = (  1.000000  0.577350 -0.000000 )  
               b(2) = (  0.000000  1.154701  0.000000 )  
               b(3) = (  0.000000 -0.000000  1.232649 )  


     PseudoPot. # 1 for H  read from file:
     /home/cristian/Escritorio/Proyecto_Grafeno/pseudopotenciales/H.pbe-rrkjus.UPF
     MD5 check sum: 7cc9d459525c9a0585f487a71c3c9563
     Pseudo is Ultrasoft, Zval =  1.0
     Generated by new atomic code, or converted to UPF format
     Using radial grid of 1061 points,  2 beta functions with: 
                l(1) =   0
                l(2) =   0
     Q(r) pseudized with 0 coefficients 


     PseudoPot. # 2 for C  read from file:
     /home/cristian/Escritorio/Proyecto_Grafeno/pseudopotenciales/C.pbe-n-rrkjus_psl.1.0.0.UPF
     MD5 check sum: 1fdd950c42eb37d8afe3dd2f8d12311e
     Pseudo is Ultrasoft + core correction, Zval =  4.0
     Generated using "atomic" code by A. Dal Corso v.6.3MaX
     Using radial grid of 1073 points,  4 beta functions with: 
                l(1) =   0
                l(2) =   0
                l(3) =   1
                l(4) =   1
     Q(r) pseudized with 0 coefficients 


     PseudoPot. # 3 for Ni read from file:
     /home/cristian/Escritorio/Proyecto_Grafeno/pseudopotenciales/Ni.pbe-spn-rrkjus_psl.1.0.0.UPF
     MD5 check sum: 8b3fc9aac6dafe35f580d41bb18c3945
     Pseudo is Ultrasoft + core correction, Zval = 18.0
     Generated using "atomic" code by A. Dal Corso v.6.3
     Using radial grid of 1195 points,  6 beta functions with: 
                l(1) =   0
                l(2) =   0
                l(3) =   1
                l(4) =   1
                l(5) =   2
                l(6) =   2
     Q(r) pseudized with 0 coefficients 


     vdW kernel table read from file rVV10_kernel_table
     MD5 check sum: b8e2538accc0c0b3206b45ba4daaba6c

     atomic species   valence    mass     pseudopotential
        H              1.00     1.00794     H ( 1.00)
        C              4.00    12.01070     C ( 1.00)
        Ni            18.00    58.69340     Ni( 1.00)

     Starting magnetic structure 
     atomic species   magnetization
        H            0.500
        C            0.300
        Ni           0.800

     No symmetry found


                                    s                        frac. trans.

      isym =  1     identity                                     

 cryst.   s( 1) = (     1          0          0      )
                  (     0          1          0      )
                  (     0          0          1      )

 cart.    s( 1) = (  1.0000000  0.0000000  0.0000000 )
                  (  0.0000000  1.0000000  0.0000000 )
                  (  0.0000000  0.0000000  1.0000000 )


     point group C_1 (1)    
     there are  1 classes
     the character table:

       E    
A      1.00

     the symmetry operations in each class and the name of the first element:

     E        1
          identity                                               

   Cartesian axes

     site n.     atom                  positions (alat units)
         1           H   tau(   1) = (   0.2500000   0.4907477   0.4056306  )
         2           H   tau(   2) = (   0.2500000   0.4907477   0.4666433  )
         3           C   tau(   3) = (   0.0000000   0.0000000   0.0000000  )
         4           C   tau(   4) = (   0.0000000   0.1154701   0.0000000  )
         5           C   tau(   5) = (  -0.1000000   0.1732051   0.0000000  )
         6           C   tau(   6) = (  -0.1000000   0.2886751   0.0000000  )
         7           C   tau(   7) = (  -0.2000000   0.3464102   0.0000000  )
         8           C   tau(   8) = (  -0.2000000   0.4618802   0.0000000  )
         9           C   tau(   9) = (  -0.3000000   0.5196152   0.0000000  )
        10           C   tau(  10) = (  -0.3000000   0.6350853   0.0000000  )
        11           C   tau(  11) = (  -0.4000000   0.6928203   0.0000000  )
        12           C   tau(  12) = (  -0.4000000   0.8082904   0.0000000  )
        13           C   tau(  13) = (   0.2000000   0.0000000   0.0000000  )
        14           C   tau(  14) = (   0.2000000   0.1154701   0.0000000  )
        15           C   tau(  15) = (   0.1000000   0.1732051   0.0000000  )
        16           C   tau(  16) = (   0.1000000   0.2886751   0.0000000  )
        17           C   tau(  17) = (   0.0000000   0.3464102   0.0000000  )
        18           C   tau(  18) = (   0.0000000   0.4618802   0.0000000  )
        19           C   tau(  19) = (  -0.1000000   0.5196152   0.0000000  )
        20           C   tau(  20) = (  -0.1000000   0.6350853   0.0000000  )
        21           C   tau(  21) = (  -0.2000000   0.6928203   0.0000000  )
        22           C   tau(  22) = (  -0.2000000   0.8082904   0.0000000  )
        23           C   tau(  23) = (   0.4000000   0.0000000   0.0000000  )
        24           C   tau(  24) = (   0.4000000   0.1154701   0.0000000  )
        25           C   tau(  25) = (   0.3000000   0.1732051   0.0000000  )
        26           C   tau(  26) = (   0.3000000   0.2886751   0.0000000  )
        27           C   tau(  27) = (   0.2000000   0.3464102   0.0000000  )
        28           Ni  tau(  28) = (   0.2000000   0.4618802   0.0000000  )
        29           C   tau(  29) = (   0.1000000   0.5196152   0.0000000  )
        30           C   tau(  30) = (   0.1000000   0.6350853   0.0000000  )
        31           C   tau(  31) = (   0.0000000   0.6928203   0.0000000  )
        32           C   tau(  32) = (   0.0000000   0.8082904   0.0000000  )
        33           C   tau(  33) = (   0.6000000   0.0000000   0.0000000  )
        34           C   tau(  34) = (   0.6000000   0.1154701   0.0000000  )
        35           C   tau(  35) = (   0.5000000   0.1732051   0.0000000  )
        36           C   tau(  36) = (   0.5000000   0.2886751   0.0000000  )
        37           C   tau(  37) = (   0.4000000   0.3464102   0.0000000  )
        38           C   tau(  38) = (   0.4000000   0.4618802   0.0000000  )
        39           C   tau(  39) = (   0.3000000   0.5196152   0.0000000  )
        40           C   tau(  40) = (   0.3000000   0.6350853   0.0000000  )
        41           C   tau(  41) = (   0.2000000   0.6928203   0.0000000  )
        42           C   tau(  42) = (   0.2000000   0.8082904   0.0000000  )
        43           C   tau(  43) = (   0.8000000   0.0000000   0.0000000  )
        44           C   tau(  44) = (   0.8000000   0.1154701   0.0000000  )
        45           C   tau(  45) = (   0.7000000   0.1732051   0.0000000  )
        46           C   tau(  46) = (   0.7000000   0.2886751   0.0000000  )
        47           C   tau(  47) = (   0.6000000   0.3464102   0.0000000  )
        48           C   tau(  48) = (   0.6000000   0.4618802   0.0000000  )
        49           C   tau(  49) = (   0.5000000   0.5196152   0.0000000  )
        50           C   tau(  50) = (   0.5000000   0.6350853   0.0000000  )
        51           C   tau(  51) = (   0.4000000   0.6928203   0.0000000  )
        52           C   tau(  52) = (   0.4000000   0.8082904   0.0000000  )

   Crystallographic axes

     site n.     atom                  positions (cryst. coord.)
         1           H   tau(   1) = (  0.5333333  0.5666667  0.5000000  )
         2           H   tau(   2) = (  0.5333333  0.5666667  0.5752072  )
         3           C   tau(   3) = (  0.0000000  0.0000000  0.0000000  )
         4           C   tau(   4) = (  0.0666667  0.1333333  0.0000000  )
         5           C   tau(   5) = (  0.0000000  0.2000000  0.0000000  )
         6           C   tau(   6) = (  0.0666667  0.3333333  0.0000000  )
         7           C   tau(   7) = (  0.0000000  0.4000000  0.0000000  )
         8           C   tau(   8) = (  0.0666667  0.5333333  0.0000000  )
         9           C   tau(   9) = (  0.0000000  0.6000000  0.0000000  )
        10           C   tau(  10) = (  0.0666667  0.7333333  0.0000000  )
        11           C   tau(  11) = (  0.0000000  0.8000000  0.0000000  )
        12           C   tau(  12) = (  0.0666667  0.9333333  0.0000000  )
        13           C   tau(  13) = (  0.2000000  0.0000000  0.0000000  )
        14           C   tau(  14) = (  0.2666667  0.1333333  0.0000000  )
        15           C   tau(  15) = (  0.2000000  0.2000000  0.0000000  )
        16           C   tau(  16) = (  0.2666667  0.3333333  0.0000000  )
        17           C   tau(  17) = (  0.2000000  0.4000000  0.0000000  )
        18           C   tau(  18) = (  0.2666667  0.5333333  0.0000000  )
        19           C   tau(  19) = (  0.2000000  0.6000000  0.0000000  )
        20           C   tau(  20) = (  0.2666667  0.7333333  0.0000000  )
        21           C   tau(  21) = (  0.2000000  0.8000000  0.0000000  )
        22           C   tau(  22) = (  0.2666667  0.9333333  0.0000000  )
        23           C   tau(  23) = (  0.4000000  0.0000000  0.0000000  )
        24           C   tau(  24) = (  0.4666667  0.1333333  0.0000000  )
        25           C   tau(  25) = (  0.4000000  0.2000000  0.0000000  )
        26           C   tau(  26) = (  0.4666667  0.3333333  0.0000000  )
        27           C   tau(  27) = (  0.4000000  0.4000000  0.0000000  )
        28           Ni  tau(  28) = (  0.4666667  0.5333333  0.0000000  )
        29           C   tau(  29) = (  0.4000000  0.6000000  0.0000000  )
        30           C   tau(  30) = (  0.4666667  0.7333333  0.0000000  )
        31           C   tau(  31) = (  0.4000000  0.8000000  0.0000000  )
        32           C   tau(  32) = (  0.4666667  0.9333333  0.0000000  )
        33           C   tau(  33) = (  0.6000000  0.0000000  0.0000000  )
        34           C   tau(  34) = (  0.6666667  0.1333333  0.0000000  )
        35           C   tau(  35) = (  0.6000000  0.2000000  0.0000000  )
        36           C   tau(  36) = (  0.6666667  0.3333333  0.0000000  )
        37           C   tau(  37) = (  0.6000000  0.4000000  0.0000000  )
        38           C   tau(  38) = (  0.6666667  0.5333333  0.0000000  )
        39           C   tau(  39) = (  0.6000000  0.6000000  0.0000000  )
        40           C   tau(  40) = (  0.6666667  0.7333333  0.0000000  )
        41           C   tau(  41) = (  0.6000000  0.8000000  0.0000000  )
        42           C   tau(  42) = (  0.6666667  0.9333333  0.0000000  )
        43           C   tau(  43) = (  0.8000000  0.0000000  0.0000000  )
        44           C   tau(  44) = (  0.8666667  0.1333333  0.0000000  )
        45           C   tau(  45) = (  0.8000000  0.2000000  0.0000000  )
        46           C   tau(  46) = (  0.8666667  0.3333333  0.0000000  )
        47           C   tau(  47) = (  0.8000000  0.4000000  0.0000000  )
        48           C   tau(  48) = (  0.8666667  0.5333333  0.0000000  )
        49           C   tau(  49) = (  0.8000000  0.6000000  0.0000000  )
        50           C   tau(  50) = (  0.8666667  0.7333333  0.0000000  )
        51           C   tau(  51) = (  0.8000000  0.8000000  0.0000000  )
        52           C   tau(  52) = (  0.8666667  0.9333333  0.0000000  )

     number of k points=     1  Marzari-Vanderbilt smearing, width (Ry)=  0.0010
                       cart. coord. in units 2pi/alat
        k(    1) = (   0.0000000   0.0000000   0.0000000), wk =   1.0000000

                       cryst. coord.
        k(    1) = (   0.0000000   0.0000000   0.0000000), wk =   1.0000000

     Dense  grid:  1626001 G-vectors     FFT dimensions: ( 180, 180, 135)

     Smooth grid:   702581 G-vectors     FFT dimensions: ( 125, 125, 108)

     Dynamical RAM for                 wfc:      29.03 MB

     Dynamical RAM for     wfc (w. buffer):      87.10 MB

     Dynamical RAM for           str. fact:      12.41 MB

     Dynamical RAM for           local pot:       0.00 MB

     Dynamical RAM for          nlocal pot:      92.46 MB

     Dynamical RAM for                qrad:      19.73 MB

     Dynamical RAM for          rho,v,vnew:      58.92 MB

     Dynamical RAM for               rhoin:      19.64 MB

     Dynamical RAM for            rho*nmix:     132.32 MB

     Dynamical RAM for           G-vectors:      16.40 MB

     Dynamical RAM for          h,s,v(r/c):      12.38 MB

     Dynamical RAM for          <psi|beta>:       0.82 MB

     Dynamical RAM for                 psi:     116.14 MB

     Dynamical RAM for                hpsi:     116.14 MB

     Dynamical RAM for                spsi:     116.14 MB

     Dynamical RAM for      wfcinit/wfcrot:      93.90 MB

     Dynamical RAM for           addusdens:     975.89 MB

     Estimated static dynamical RAM per process >     489.64 MB

     Estimated max dynamical RAM per process >       1.43 GB

     Estimated total dynamical RAM >       8.59 GB
     Generating pointlists ...
     new r_m :   0.0252 (alat units)  0.5862 (a.u.) for type    1
     new r_m :   0.0476 (alat units)  1.1095 (a.u.) for type    2
     new r_m :   0.0476 (alat units)  1.1095 (a.u.) for type    3

     Check: negative core charge=   -0.000002

     Initial potential from superposition of free atoms

     starting charge  215.80530, renormalised to  216.00000

     negative rho (up, down):  1.358E-04 1.300E-02


---------------------------------------------------------------------------------
Carrying out rVV10 run using the following parameters:
Nqs =      20    Nr_points =    1024   r_max =   100.000
b_value =  6.30000    beta =  0.00901
     q_mesh =  0.00010000  0.00030000  0.00058939  0.00100810
               0.00161396  0.00249058  0.00375900  0.00559430
               0.00824984  0.01209221  0.01765183  0.02569619
               0.03733578  0.05417739  0.07854596  0.11380545
               0.16482331  0.23864234  0.34545298  0.50000000

Gradients computed in Reciprocal space

---------------------------------------------------------------------------------


     Starting wfcs are  208 randomized atomic wfcs

     total cpu time spent up to now is       80.2 secs

     Self-consistent Calculation

     iteration #  1     ecut=    70.00 Ry     beta= 0.70
     Davidson diagonalization with overlap
     ethr =  1.00E-02,  avg # of iterations =  4.5

     negative rho (up, down):  2.339E-04 1.141E-02

     total cpu time spent up to now is      236.9 secs

     total energy              =    -946.55980679 Ry
     Harris-Foulkes estimate   =    -949.77771615 Ry
     estimated scf accuracy    <      14.36824434 Ry

     total magnetization       =     6.00 Bohr mag/cell
     absolute magnetization    =     6.78 Bohr mag/cell

     iteration #  2     ecut=    70.00 Ry     beta= 0.70
     Davidson diagonalization with overlap
     ethr =  6.65E-03,  avg # of iterations =  4.0

     negative rho (up, down):  5.383E-04 5.714E-02

     total cpu time spent up to now is      377.5 secs

     total energy              =    -945.88453761 Ry
     Harris-Foulkes estimate   =    -957.76665117 Ry
     estimated scf accuracy    <      33.06774764 Ry

     total magnetization       =     4.00 Bohr mag/cell
     absolute magnetization    =     4.58 Bohr mag/cell

     iteration #  3     ecut=    70.00 Ry     beta= 0.70
     Davidson diagonalization with overlap
     ethr =  6.65E-03,  avg # of iterations =  4.0

     negative rho (up, down):  1.120E-03 2.417E-01

     total cpu time spent up to now is      508.2 secs

     total energy              =    -950.63488097 Ry
     Harris-Foulkes estimate   =    -952.90382492 Ry
     estimated scf accuracy    <      20.00148163 Ry

     total magnetization       =     4.00 Bohr mag/cell
     absolute magnetization    =     7.22 Bohr mag/cell

     iteration #  4     ecut=    70.00 Ry     beta= 0.70
     Davidson diagonalization with overlap
     ethr =  6.65E-03,  avg # of iterations =  3.0

     negative rho (up, down):  8.529E-02 5.323E-01

     total cpu time spent up to now is      648.9 secs

     total energy              =    -943.44661548 Ry
     Harris-Foulkes estimate   =    -963.09317861 Ry
     estimated scf accuracy    <     620.08842343 Ry

     total magnetization       =     2.00 Bohr mag/cell
     absolute magnetization    =    37.96 Bohr mag/cell

     iteration #  5     ecut=    70.00 Ry     beta= 0.70
     Davidson diagonalization with overlap
     ethr =  6.65E-03,  avg # of iterations =  3.5

     negative rho (up, down):  7.146E-02 4.357E-01

     total cpu time spent up to now is      782.1 secs

     total energy              =    -950.94579180 Ry
     Harris-Foulkes estimate   =    -952.71499356 Ry
     estimated scf accuracy    <      19.26358500 Ry

     total magnetization       =     2.00 Bohr mag/cell
     absolute magnetization    =     4.30 Bohr mag/cell

     iteration #  6     ecut=    70.00 Ry     beta= 0.70
     Davidson diagonalization with overlap
     ethr =  6.65E-03,  avg # of iterations =  2.5

     negative rho (up, down):  3.563E-02 4.286E-01

     total cpu time spent up to now is      898.8 secs

     total energy              =    -952.13435850 Ry
     Harris-Foulkes estimate   =    -953.22300577 Ry
     estimated scf accuracy    <     107.07871760 Ry

     total magnetization       =    -0.00 Bohr mag/cell
     absolute magnetization    =    16.07 Bohr mag/cell

     iteration #  7     ecut=    70.00 Ry     beta= 0.70
     Davidson diagonalization with overlap
     ethr =  6.65E-03,  avg # of iterations =  2.0

     negative rho (up, down):  5.464E-02 4.042E-01

     total cpu time spent up to now is     1007.8 secs

     total energy              =    -950.65964048 Ry
     Harris-Foulkes estimate   =    -952.33669459 Ry
     estimated scf accuracy    <      52.39979163 Ry

     total magnetization       =     2.00 Bohr mag/cell
     absolute magnetization    =    11.91 Bohr mag/cell

     iteration #  8     ecut=    70.00 Ry     beta= 0.70
     Davidson diagonalization with overlap
     ethr =  6.65E-03,  avg # of iterations =  2.0

     negative rho (up, down):  4.502E-02 2.330E-01

     total cpu time spent up to now is     1121.9 secs

     total energy              =    -952.21711708 Ry
     Harris-Foulkes estimate   =    -951.81472725 Ry
     estimated scf accuracy    <       7.38641758 Ry

     total magnetization       =    -0.00 Bohr mag/cell
     absolute magnetization    =     3.80 Bohr mag/cell

     iteration #  9     ecut=    70.00 Ry     beta= 0.70
     Davidson diagonalization with overlap
     ethr =  3.42E-03,  avg # of iterations =  2.5

     negative rho (up, down):  3.240E-02 4.212E-01

     total cpu time spent up to now is     1238.6 secs

     total energy              =    -950.74041965 Ry
     Harris-Foulkes estimate   =    -952.91196325 Ry
     estimated scf accuracy    <      76.07748691 Ry

     total magnetization       =     2.00 Bohr mag/cell
     absolute magnetization    =    14.36 Bohr mag/cell

     iteration # 10     ecut=    70.00 Ry     beta= 0.70
     Davidson diagonalization with overlap
     ethr =  3.42E-03,  avg # of iterations =  2.0

     negative rho (up, down):  1.689E-02 3.322E-01

     total cpu time spent up to now is     1355.6 secs

     total energy              =    -951.70578406 Ry
     Harris-Foulkes estimate   =    -951.76053144 Ry
     estimated scf accuracy    <       2.63466772 Ry

     total magnetization       =    -0.00 Bohr mag/cell
     absolute magnetization    =     2.14 Bohr mag/cell

     iteration # 11     ecut=    70.00 Ry     beta= 0.70
     Davidson diagonalization with overlap
     ethr =  1.22E-03,  avg # of iterations =  3.0

     negative rho (up, down):  1.345E-02 2.303E-01

     total cpu time spent up to now is     1472.4 secs

     total energy              =    -951.80437382 Ry
     Harris-Foulkes estimate   =    -951.86433239 Ry
     estimated scf accuracy    <       0.87197187 Ry

     total magnetization       =    -0.00 Bohr mag/cell
     absolute magnetization    =     0.66 Bohr mag/cell

     iteration # 12     ecut=    70.00 Ry     beta= 0.70
     Davidson diagonalization with overlap
     ethr =  4.04E-04,  avg # of iterations =  2.5

     negative rho (up, down):  2.454E-02 2.879E-02

     total cpu time spent up to now is     1593.2 secs

     total energy              =    -951.79668849 Ry
     Harris-Foulkes estimate   =    -951.94113077 Ry
     estimated scf accuracy    <       1.96500669 Ry

     total magnetization       =    -0.00 Bohr mag/cell
     absolute magnetization    =     0.58 Bohr mag/cell

     iteration # 13     ecut=    70.00 Ry     beta= 0.70
     Davidson diagonalization with overlap
     ethr =  4.04E-04,  avg # of iterations =  3.5

     negative rho (up, down):  1.023E-03 2.110E-01

     total cpu time spent up to now is     1713.3 secs

     total energy              =    -951.86557403 Ry
     Harris-Foulkes estimate   =    -951.88975524 Ry
     estimated scf accuracy    <       0.32183791 Ry

     total magnetization       =    -0.00 Bohr mag/cell
     absolute magnetization    =     0.67 Bohr mag/cell

     iteration # 14     ecut=    70.00 Ry     beta= 0.70
     Davidson diagonalization with overlap
     ethr =  1.49E-04,  avg # of iterations =  5.5

     negative rho (up, down):  3.130E-03 2.412E-01

     total cpu time spent up to now is     1832.8 secs

     total energy              =    -951.87828265 Ry
     Harris-Foulkes estimate   =    -951.89922003 Ry
     estimated scf accuracy    <       0.37658201 Ry

     total magnetization       =     0.00 Bohr mag/cell
     absolute magnetization    =     0.90 Bohr mag/cell

     iteration # 15     ecut=    70.00 Ry     beta= 0.70
     Davidson diagonalization with overlap
     ethr =  1.49E-04,  avg # of iterations =  2.0

     negative rho (up, down):  7.098E-03 2.782E-01

     total cpu time spent up to now is     1946.4 secs

     total energy              =    -951.89116505 Ry
     Harris-Foulkes estimate   =    -951.89381867 Ry
     estimated scf accuracy    <       0.80989623 Ry

     total magnetization       =     0.00 Bohr mag/cell
     absolute magnetization    =     1.39 Bohr mag/cell

     iteration # 16     ecut=    70.00 Ry     beta= 0.70
     Davidson diagonalization with overlap
     ethr =  1.49E-04,  avg # of iterations =  1.0

     negative rho (up, down):  9.724E-03 2.878E-01

     total cpu time spent up to now is     2058.7 secs

     total energy              =    -951.88308160 Ry
     Harris-Foulkes estimate   =    -951.89284274 Ry
     estimated scf accuracy    <       0.96676558 Ry

     total magnetization       =     0.00 Bohr mag/cell
     absolute magnetization    =     1.52 Bohr mag/cell

     iteration # 17     ecut=    70.00 Ry     beta= 0.70
     Davidson diagonalization with overlap
     ethr =  1.49E-04,  avg # of iterations =  2.0

     negative rho (up, down):  6.214E-03 3.102E-01

     total cpu time spent up to now is     2174.1 secs

     total energy              =    -951.87979775 Ry
     Harris-Foulkes estimate   =    -951.89452890 Ry
     estimated scf accuracy    <       1.15117812 Ry

     total magnetization       =     0.00 Bohr mag/cell
     absolute magnetization    =     1.70 Bohr mag/cell

     iteration # 18     ecut=    70.00 Ry     beta= 0.70
     Davidson diagonalization with overlap
     ethr =  1.49E-04,  avg # of iterations =  4.0

     negative rho (up, down):  6.942E-03 2.511E-01

     total cpu time spent up to now is     2289.6 secs

     total energy              =    -951.86298877 Ry
     Harris-Foulkes estimate   =    -951.89256472 Ry
     estimated scf accuracy    <       0.50160087 Ry

     total magnetization       =    -0.00 Bohr mag/cell
     absolute magnetization    =     0.92 Bohr mag/cell

     iteration # 19     ecut=    70.00 Ry     beta= 0.70
     Davidson diagonalization with overlap
     ethr =  1.49E-04,  avg # of iterations =  3.0

     negative rho (up, down):  1.519E-02 3.758E-01

     total cpu time spent up to now is     2423.0 secs

     total energy              =    -951.58344371 Ry
     Harris-Foulkes estimate   =    -952.15939700 Ry
     estimated scf accuracy    <      18.50346529 Ry

     total magnetization       =    -0.00 Bohr mag/cell
     absolute magnetization    =     6.49 Bohr mag/cell

     iteration # 20     ecut=    70.00 Ry     beta= 0.70
     Davidson diagonalization with overlap
     ethr =  1.49E-04,  avg # of iterations =  3.0

     negative rho (up, down):  1.666E-02 2.995E-01

     total cpu time spent up to now is     2552.0 secs

     total energy              =    -951.89948885 Ry
     Harris-Foulkes estimate   =    -951.85264378 Ry
     estimated scf accuracy    <       1.08263990 Ry

     total magnetization       =     0.00 Bohr mag/cell
     absolute magnetization    =     1.47 Bohr mag/cell

     iteration # 21     ecut=    70.00 Ry     beta= 0.70
     Davidson diagonalization with overlap
     ethr =  1.49E-04,  avg # of iterations =  2.0

     negative rho (up, down):  3.001E-02 3.224E-01

     total cpu time spent up to now is     2669.5 secs

     total energy              =    -951.87208972 Ry
     Harris-Foulkes estimate   =    -951.93764216 Ry
     estimated scf accuracy    <       3.59387448 Ry

     total magnetization       =    -0.00 Bohr mag/cell
     absolute magnetization    =     2.59 Bohr mag/cell

     iteration # 22     ecut=    70.00 Ry     beta= 0.70
     Davidson diagonalization with overlap
     ethr =  1.49E-04,  avg # of iterations =  2.0

     negative rho (up, down):  2.676E-02 2.758E-01

     total cpu time spent up to now is     2787.2 secs

     total energy              =    -952.03099470 Ry
     Harris-Foulkes estimate   =    -951.90757549 Ry
     estimated scf accuracy    <       1.73165887 Ry

     total magnetization       =    -0.00 Bohr mag/cell
     absolute magnetization    =     1.78 Bohr mag/cell

     iteration # 23     ecut=    70.00 Ry     beta= 0.70
     Davidson diagonalization with overlap
     ethr =  1.49E-04,  avg # of iterations =  3.0

     negative rho (up, down):  4.808E-02 4.184E-01

     total cpu time spent up to now is     2924.1 secs

     total energy              =    -951.64073110 Ry
     Harris-Foulkes estimate   =    -952.31521728 Ry
     estimated scf accuracy    <      28.51658160 Ry

     total magnetization       =     0.00 Bohr mag/cell
     absolute magnetization    =     7.88 Bohr mag/cell

     iteration # 24     ecut=    70.00 Ry     beta= 0.70
     Davidson diagonalization with overlap
     ethr =  1.49E-04,  avg # of iterations =  3.0

     negative rho (up, down):  2.815E-02 3.381E-01

     total cpu time spent up to now is     3056.3 secs

     total energy              =    -951.79321454 Ry
     Harris-Foulkes estimate   =    -951.89089961 Ry
     estimated scf accuracy    <       2.48016772 Ry

     total magnetization       =    -0.00 Bohr mag/cell
     absolute magnetization    =     2.03 Bohr mag/cell

     iteration # 25     ecut=    70.00 Ry     beta= 0.70
     Davidson diagonalization with overlap
     ethr =  1.49E-04,  avg # of iterations =  2.5

     negative rho (up, down):  5.398E-03 2.840E-01

     total cpu time spent up to now is     3165.3 secs

     total energy              =    -951.86585989 Ry
     Harris-Foulkes estimate   =    -951.85956970 Ry
     estimated scf accuracy    <       0.17979394 Ry

     total magnetization       =     0.16 Bohr mag/cell
     absolute magnetization    =     0.62 Bohr mag/cell

     iteration # 26     ecut=    70.00 Ry     beta= 0.70
     Davidson diagonalization with overlap
     ethr =  8.32E-05,  avg # of iterations =  6.0

     negative rho (up, down):  2.933E-03 2.171E-01

     total cpu time spent up to now is     3279.8 secs

     total energy              =    -951.87960851 Ry
     Harris-Foulkes estimate   =    -951.89874668 Ry
     estimated scf accuracy    <       0.25254766 Ry

     total magnetization       =     0.00 Bohr mag/cell
     absolute magnetization    =     0.47 Bohr mag/cell

     iteration # 27     ecut=    70.00 Ry     beta= 0.70
     Davidson diagonalization with overlap
     ethr =  8.32E-05,  avg # of iterations =  2.5

     negative rho (up, down):  4.590E-03 3.010E-01

     total cpu time spent up to now is     3389.8 secs

     total energy              =    -951.85597619 Ry
     Harris-Foulkes estimate   =    -951.92202650 Ry
     estimated scf accuracy    <       2.11892271 Ry

     total magnetization       =     0.00 Bohr mag/cell
     absolute magnetization    =     2.22 Bohr mag/cell

     iteration # 28     ecut=    70.00 Ry     beta= 0.70
     Davidson diagonalization with overlap
     ethr =  8.32E-05,  avg # of iterations =  2.0

     negative rho (up, down):  6.552E-03 2.158E-01

     total cpu time spent up to now is     3496.3 secs

     total energy              =    -951.87412287 Ry
     Harris-Foulkes estimate   =    -951.88078512 Ry
     estimated scf accuracy    <       0.15768923 Ry

     total magnetization       =     0.00 Bohr mag/cell
     absolute magnetization    =     0.44 Bohr mag/cell

     iteration # 29     ecut=    70.00 Ry     beta= 0.70
     Davidson diagonalization with overlap
     ethr =  7.30E-05,  avg # of iterations =  2.0

     negative rho (up, down):  1.141E-03 2.562E-01

     total cpu time spent up to now is     3600.9 secs

     total energy              =    -951.88569686 Ry
     Harris-Foulkes estimate   =    -951.88802990 Ry
     estimated scf accuracy    <       0.38825091 Ry

     total magnetization       =     0.00 Bohr mag/cell
     absolute magnetization    =     0.97 Bohr mag/cell

     iteration # 30     ecut=    70.00 Ry     beta= 0.70
     Davidson diagonalization with overlap
     ethr =  7.30E-05,  avg # of iterations =  2.0

     negative rho (up, down):  5.916E-03 2.090E-01

     total cpu time spent up to now is     3699.0 secs

     total energy              =    -951.88156548 Ry
     Harris-Foulkes estimate   =    -951.88950836 Ry
     estimated scf accuracy    <       0.26453215 Ry

     total magnetization       =     0.00 Bohr mag/cell
     absolute magnetization    =     0.68 Bohr mag/cell

     iteration # 31     ecut=    70.00 Ry     beta= 0.70
     Davidson diagonalization with overlap
     ethr =  7.30E-05,  avg # of iterations =  2.0

     negative rho (up, down):  1.461E-02 1.750E-01

     total cpu time spent up to now is     3801.0 secs

     total energy              =    -951.86800213 Ry
     Harris-Foulkes estimate   =    -951.89735199 Ry
     estimated scf accuracy    <       0.66705021 Ry

     total magnetization       =     0.00 Bohr mag/cell
     absolute magnetization    =     0.89 Bohr mag/cell

     iteration # 32     ecut=    70.00 Ry     beta= 0.70
     Davidson diagonalization with overlap
     ethr =  7.30E-05,  avg # of iterations =  2.0

     negative rho (up, down):  1.111E-02 5.936E-02

     total cpu time spent up to now is     3906.3 secs

     total energy              =    -951.87934876 Ry
     Harris-Foulkes estimate   =    -951.89116647 Ry
     estimated scf accuracy    <       0.36901758 Ry

     total magnetization       =     0.00 Bohr mag/cell
     absolute magnetization    =     0.44 Bohr mag/cell

     iteration # 33     ecut=    70.00 Ry     beta= 0.70
     Davidson diagonalization with overlap
     ethr =  7.30E-05,  avg # of iterations =  3.0

     negative rho (up, down):  1.374E-02 3.592E-01

     total cpu time spent up to now is     4021.7 secs

     total energy              =    -951.79265495 Ry
     Harris-Foulkes estimate   =    -951.98799268 Ry
     estimated scf accuracy    <       7.03632964 Ry

     total magnetization       =     0.00 Bohr mag/cell
     absolute magnetization    =     3.96 Bohr mag/cell

     iteration # 34     ecut=    70.00 Ry     beta= 0.70
     Davidson diagonalization with overlap
     ethr =  7.30E-05,  avg # of iterations =  3.0

     negative rho (up, down):  6.579E-03 2.828E-01

     total cpu time spent up to now is     4141.7 secs

     total energy              =    -951.87225116 Ry
     Harris-Foulkes estimate   =    -951.86698678 Ry
     estimated scf accuracy    <       0.19830569 Ry

     total magnetization       =     0.00 Bohr mag/cell
     absolute magnetization    =     0.57 Bohr mag/cell

     iteration # 35     ecut=    70.00 Ry     beta= 0.70
     Davidson diagonalization with overlap
     ethr =  7.30E-05,  avg # of iterations =  2.0

     negative rho (up, down):  4.817E-03 1.989E-01

     total cpu time spent up to now is     4254.8 secs

     total energy              =    -951.87780833 Ry
     Harris-Foulkes estimate   =    -951.88677205 Ry
     estimated scf accuracy    <       0.22224640 Ry

     total magnetization       =     0.00 Bohr mag/cell
     absolute magnetization    =     0.45 Bohr mag/cell

     iteration # 36     ecut=    70.00 Ry     beta= 0.70
     Davidson diagonalization with overlap
     ethr =  7.30E-05,  avg # of iterations =  2.5

     negative rho (up, down):  1.709E-03 1.827E-01

     total cpu time spent up to now is     4365.0 secs

     total energy              =    -951.88484164 Ry
     Harris-Foulkes estimate   =    -951.88696181 Ry
     estimated scf accuracy    <       0.06824803 Ry

     total magnetization       =     0.00 Bohr mag/cell
     absolute magnetization    =     0.33 Bohr mag/cell

     iteration # 37     ecut=    70.00 Ry     beta= 0.70
     Davidson diagonalization with overlap
     ethr =  3.16E-05,  avg # of iterations =  4.0

     negative rho (up, down):  2.751E-03 3.024E-01

     total cpu time spent up to now is     4495.5 secs

     total energy              =    -951.87579847 Ry
     Harris-Foulkes estimate   =    -951.91247504 Ry
     estimated scf accuracy    <       1.62673155 Ry

     total magnetization       =     0.00 Bohr mag/cell
     absolute magnetization    =     1.93 Bohr mag/cell

     iteration # 38     ecut=    70.00 Ry     beta= 0.70
     Davidson diagonalization with overlap
     ethr =  3.16E-05,  avg # of iterations =  4.0

     negative rho (up, down):  7.369E-03 2.060E-01

     total cpu time spent up to now is     4627.8 secs

     total energy              =    -951.92072962 Ry
     Harris-Foulkes estimate   =    -951.89825458 Ry
     estimated scf accuracy    <       0.43336167 Ry

     total magnetization       =     0.00 Bohr mag/cell
     absolute magnetization    =     0.70 Bohr mag/cell

     iteration # 39     ecut=    70.00 Ry     beta= 0.70
     Davidson diagonalization with overlap
     ethr =  3.16E-05,  avg # of iterations =  3.0

     negative rho (up, down):  1.500E-02 3.837E-01

     total cpu time spent up to now is     4777.3 secs

     total energy              =    -951.47028469 Ry
     Harris-Foulkes estimate   =    -952.24802665 Ry
     estimated scf accuracy    <      23.59949629 Ry

     total magnetization       =    -0.00 Bohr mag/cell
     absolute magnetization    =     7.30 Bohr mag/cell

     iteration # 40     ecut=    70.00 Ry     beta= 0.70
     Davidson diagonalization with overlap
     ethr =  3.16E-05,  avg # of iterations =  4.0

     negative rho (up, down):  1.097E-02 2.742E-01

     total cpu time spent up to now is     4935.3 secs

     total energy              =    -951.86659316 Ry
     Harris-Foulkes estimate   =    -951.82754413 Ry
     estimated scf accuracy    <       0.16062166 Ry

     total magnetization       =     0.00 Bohr mag/cell
     absolute magnetization    =     0.34 Bohr mag/cell

     iteration # 41     ecut=    70.00 Ry     beta= 0.70
     Davidson diagonalization with overlap
     ethr =  3.16E-05,  avg # of iterations =  3.0

     negative rho (up, down):  6.648E-03 1.786E-01

     total cpu time spent up to now is     5060.8 secs

     total energy              =    -951.87973386 Ry
     Harris-Foulkes estimate   =    -951.87586871 Ry
     estimated scf accuracy    <       0.09406496 Ry

     total magnetization       =     0.00 Bohr mag/cell
     absolute magnetization    =     0.25 Bohr mag/cell

     iteration # 42     ecut=    70.00 Ry     beta= 0.70
     Davidson diagonalization with overlap
     ethr =  3.16E-05,  avg # of iterations =  2.5

     negative rho (up, down):  2.918E-03 9.696E-02

     total cpu time spent up to now is     5181.0 secs

     total energy              =    -951.88285709 Ry
     Harris-Foulkes estimate   =    -951.88398043 Ry
     estimated scf accuracy    <       0.04039773 Ry

     total magnetization       =    -0.00 Bohr mag/cell
     absolute magnetization    =     0.11 Bohr mag/cell

     iteration # 43     ecut=    70.00 Ry     beta= 0.70
     Davidson diagonalization with overlap
     ethr =  1.87E-05,  avg # of iterations =  3.5

     negative rho (up, down):  2.123E-03 2.532E-01

     total cpu time spent up to now is     5307.9 secs

     total energy              =    -951.88288625 Ry
     Harris-Foulkes estimate   =    -951.89039179 Ry
     estimated scf accuracy    <       0.35023113 Ry

     total magnetization       =     0.00 Bohr mag/cell
     absolute magnetization    =     0.89 Bohr mag/cell

     iteration # 44     ecut=    70.00 Ry     beta= 0.70
     Davidson diagonalization with overlap
     ethr =  1.87E-05,  avg # of iterations =  3.0

     negative rho (up, down):  2.174E-03 2.052E-01

     total cpu time spent up to now is     5430.7 secs

     total energy              =    -951.88258460 Ry
     Harris-Foulkes estimate   =    -951.88528410 Ry
     estimated scf accuracy    <       0.06020202 Ry

     total magnetization       =     0.00 Bohr mag/cell
     absolute magnetization    =     0.32 Bohr mag/cell

     iteration # 45     ecut=    70.00 Ry     beta= 0.70
     Davidson diagonalization with overlap
     ethr =  1.87E-05,  avg # of iterations =  2.0

     negative rho (up, down):  2.569E-03 1.178E-01

     total cpu time spent up to now is     5552.3 secs

     total energy              =    -951.88379106 Ry
     Harris-Foulkes estimate   =    -951.88552154 Ry
     estimated scf accuracy    <       0.03542165 Ry

     total magnetization       =    -0.00 Bohr mag/cell
     absolute magnetization    =     0.12 Bohr mag/cell

     iteration # 46     ecut=    70.00 Ry     beta= 0.70
     Davidson diagonalization with overlap
     ethr =  1.64E-05,  avg # of iterations =  2.5

     negative rho (up, down):  1.540E-03 9.250E-02

     total cpu time spent up to now is     5674.0 secs

     total energy              =    -951.88523575 Ry
     Harris-Foulkes estimate   =    -951.88729522 Ry
     estimated scf accuracy    <       0.02230811 Ry

     total magnetization       =     0.00 Bohr mag/cell
     absolute magnetization    =     0.13 Bohr mag/cell

     iteration # 47     ecut=    70.00 Ry     beta= 0.70
     Davidson diagonalization with overlap
     ethr =  1.03E-05,  avg # of iterations =  2.0

     negative rho (up, down):  1.233E-03 2.115E-01

     total cpu time spent up to now is     5797.0 secs

     total energy              =    -951.88368842 Ry
     Harris-Foulkes estimate   =    -951.88789580 Ry
     estimated scf accuracy    <       0.12080569 Ry

     total magnetization       =     0.00 Bohr mag/cell
     absolute magnetization    =     0.53 Bohr mag/cell

     iteration # 48     ecut=    70.00 Ry     beta= 0.70
     Davidson diagonalization with overlap
     ethr =  1.03E-05,  avg # of iterations =  2.5

     negative rho (up, down):  1.322E-03 1.431E-01

     total cpu time spent up to now is     5920.9 secs

     total energy              =    -951.88524725 Ry
     Harris-Foulkes estimate   =    -951.88509730 Ry
     estimated scf accuracy    <       0.00932374 Ry

     total magnetization       =    -0.00 Bohr mag/cell
     absolute magnetization    =     0.11 Bohr mag/cell

     iteration # 49     ecut=    70.00 Ry     beta= 0.70
     Davidson diagonalization with overlap
     ethr =  4.32E-06,  avg # of iterations =  3.0

     negative rho (up, down):  1.371E-03 2.414E-01

     total cpu time spent up to now is     6057.2 secs

     total energy              =    -951.87929589 Ry
     Harris-Foulkes estimate   =    -951.89045051 Ry
     estimated scf accuracy    <       0.31413849 Ry

     total magnetization       =     0.00 Bohr mag/cell
     absolute magnetization    =     0.85 Bohr mag/cell

     iteration # 50     ecut=    70.00 Ry     beta= 0.70
     Davidson diagonalization with overlap
     ethr =  4.32E-06,  avg # of iterations =  4.5

     negative rho (up, down):  2.417E-03 1.401E-01

     total cpu time spent up to now is     6194.0 secs

     total energy              =    -951.88446988 Ry
     Harris-Foulkes estimate   =    -951.88405950 Ry
     estimated scf accuracy    <       0.01941269 Ry

     total magnetization       =     0.00 Bohr mag/cell
     absolute magnetization    =     0.12 Bohr mag/cell

     iteration # 51     ecut=    70.00 Ry     beta= 0.70
     Davidson diagonalization with overlap
     ethr =  4.32E-06,  avg # of iterations =  4.0

     negative rho (up, down):  2.684E-03 9.209E-02

     total cpu time spent up to now is     6321.4 secs

     total energy              =    -951.88460305 Ry
     Harris-Foulkes estimate   =    -951.88588746 Ry
     estimated scf accuracy    <       0.02733162 Ry

     total magnetization       =    -0.00 Bohr mag/cell
     absolute magnetization    =     0.14 Bohr mag/cell

     iteration # 52     ecut=    70.00 Ry     beta= 0.70
     Davidson diagonalization with overlap
     ethr =  4.32E-06,  avg # of iterations =  2.0

     negative rho (up, down):  1.981E-03 4.002E-02

     total cpu time spent up to now is     6447.7 secs

     total energy              =    -951.88473315 Ry
     Harris-Foulkes estimate   =    -951.88619140 Ry
     estimated scf accuracy    <       0.02373259 Ry

     total magnetization       =    -0.00 Bohr mag/cell
     absolute magnetization    =     0.09 Bohr mag/cell

     iteration # 53     ecut=    70.00 Ry     beta= 0.70
     Davidson diagonalization with overlap
     ethr =  4.32E-06,  avg # of iterations =  2.5

     negative rho (up, down):  1.278E-03 2.129E-01

     total cpu time spent up to now is     6574.1 secs

     total energy              =    -951.88442562 Ry
     Harris-Foulkes estimate   =    -951.88762199 Ry
     estimated scf accuracy    <       0.11391492 Ry

     total magnetization       =     0.00 Bohr mag/cell
     absolute magnetization    =     0.50 Bohr mag/cell

     iteration # 54     ecut=    70.00 Ry     beta= 0.70
     Davidson diagonalization with overlap
     ethr =  4.32E-06,  avg # of iterations =  4.5

     negative rho (up, down):  1.310E-03 1.653E-01

     total cpu time spent up to now is     6696.9 secs

     total energy              =    -951.88499711 Ry
     Harris-Foulkes estimate   =    -951.88523619 Ry
     estimated scf accuracy    <       0.01312438 Ry

     total magnetization       =     0.00 Bohr mag/cell
     absolute magnetization    =     0.15 Bohr mag/cell

     iteration # 55     ecut=    70.00 Ry     beta= 0.70
     Davidson diagonalization with overlap
     ethr =  4.32E-06,  avg # of iterations =  2.5

     negative rho (up, down):  1.453E-03 8.197E-02

     total cpu time spent up to now is     6818.7 secs

     total energy              =    -951.88568945 Ry
     Harris-Foulkes estimate   =    -951.88565482 Ry
     estimated scf accuracy    <       0.00787838 Ry

     total magnetization       =    -0.00 Bohr mag/cell
     absolute magnetization    =     0.06 Bohr mag/cell

     iteration # 56     ecut=    70.00 Ry     beta= 0.70
     Davidson diagonalization with overlap
     ethr =  3.65E-06,  avg # of iterations =  3.5

     negative rho (up, down):  1.060E-03 3.579E-02

     total cpu time spent up to now is     6935.1 secs

     total energy              =    -951.88620390 Ry
     Harris-Foulkes estimate   =    -951.88603063 Ry
     estimated scf accuracy    <       0.00111970 Ry

     total magnetization       =     0.00 Bohr mag/cell
     absolute magnetization    =     0.03 Bohr mag/cell

     iteration # 57     ecut=    70.00 Ry     beta= 0.70
     Davidson diagonalization with overlap
     ethr =  5.18E-07,  avg # of iterations =  3.0

     negative rho (up, down):  1.098E-03 1.880E-01

     total cpu time spent up to now is     7070.1 secs

     total energy              =    -951.88497127 Ry
     Harris-Foulkes estimate   =    -951.88739210 Ry
     estimated scf accuracy    <       0.06807220 Ry

     total magnetization       =     0.00 Bohr mag/cell
     absolute magnetization    =     0.40 Bohr mag/cell

     iteration # 58     ecut=    70.00 Ry     beta= 0.70
     Davidson diagonalization with overlap
     ethr =  5.18E-07,  avg # of iterations =  4.0

     negative rho (up, down):  1.054E-03 1.344E-01

     total cpu time spent up to now is     7204.0 secs

     total energy              =    -951.88535554 Ry
     Harris-Foulkes estimate   =    -951.88572002 Ry
     estimated scf accuracy    <       0.00788359 Ry

     total magnetization       =     0.00 Bohr mag/cell
     absolute magnetization    =     0.10 Bohr mag/cell

     iteration # 59     ecut=    70.00 Ry     beta= 0.70
     Davidson diagonalization with overlap
     ethr =  5.18E-07,  avg # of iterations =  3.5

     negative rho (up, down):  1.161E-03 1.823E-01

     total cpu time spent up to now is     7343.0 secs

     total energy              =    -951.88458517 Ry
     Harris-Foulkes estimate   =    -951.88683365 Ry
     estimated scf accuracy    <       0.06589264 Ry

     total magnetization       =     0.00 Bohr mag/cell
     absolute magnetization    =     0.39 Bohr mag/cell

     iteration # 60     ecut=    70.00 Ry     beta= 0.70
     Davidson diagonalization with overlap
     ethr =  5.18E-07,  avg # of iterations =  3.0

     negative rho (up, down):  2.115E-03 9.733E-02

     total cpu time spent up to now is     7479.2 secs

     total energy              =    -951.88521756 Ry
     Harris-Foulkes estimate   =    -951.88556406 Ry
     estimated scf accuracy    <       0.01347451 Ry

     total magnetization       =    -0.00 Bohr mag/cell
     absolute magnetization    =     0.09 Bohr mag/cell

     iteration # 61     ecut=    70.00 Ry     beta= 0.70
     Davidson diagonalization with overlap
     ethr =  5.18E-07,  avg # of iterations =  3.0

     negative rho (up, down):  1.409E-03 5.593E-02

     total cpu time spent up to now is     7611.4 secs

     total energy              =    -951.88591289 Ry
     Harris-Foulkes estimate   =    -951.88563715 Ry
     estimated scf accuracy    <       0.00257072 Ry

     total magnetization       =     0.00 Bohr mag/cell
     absolute magnetization    =     0.04 Bohr mag/cell

     iteration # 62     ecut=    70.00 Ry     beta= 0.70
     Davidson diagonalization with overlap
     ethr =  5.18E-07,  avg # of iterations =  2.0

     negative rho (up, down):  1.085E-03 2.565E-02

     total cpu time spent up to now is     7733.2 secs

     total energy              =    -951.88612098 Ry
     Harris-Foulkes estimate   =    -951.88603778 Ry
     estimated scf accuracy    <       0.00142627 Ry

     total magnetization       =    -0.00 Bohr mag/cell
     absolute magnetization    =     0.03 Bohr mag/cell

     iteration # 63     ecut=    70.00 Ry     beta= 0.70
     Davidson diagonalization with overlap
     ethr =  5.18E-07,  avg # of iterations =  3.0

     negative rho (up, down):  1.049E-03 1.052E-01

     total cpu time spent up to now is     7856.1 secs

     total energy              =    -951.88606153 Ry
     Harris-Foulkes estimate   =    -951.88635015 Ry
     estimated scf accuracy    <       0.00858783 Ry

     total magnetization       =     0.00 Bohr mag/cell
     absolute magnetization    =     0.14 Bohr mag/cell

     iteration # 64     ecut=    70.00 Ry     beta= 0.70
     Davidson diagonalization with overlap
     ethr =  5.18E-07,  avg # of iterations =  3.0

     negative rho (up, down):  1.087E-03 9.363E-02

     total cpu time spent up to now is     7975.0 secs

     total energy              =    -951.88597421 Ry
     Harris-Foulkes estimate   =    -951.88608924 Ry
     estimated scf accuracy    <       0.00314238 Ry

     total magnetization       =     0.00 Bohr mag/cell
     absolute magnetization    =     0.08 Bohr mag/cell

     iteration # 65     ecut=    70.00 Ry     beta= 0.70
     Davidson diagonalization with overlap
     ethr =  5.18E-07,  avg # of iterations =  2.0

     negative rho (up, down):  1.187E-03 4.772E-02

     total cpu time spent up to now is     8094.2 secs

     total energy              =    -951.88607848 Ry
     Harris-Foulkes estimate   =    -951.88610924 Ry
     estimated scf accuracy    <       0.00229457 Ry

     total magnetization       =    -0.00 Bohr mag/cell
     absolute magnetization    =     0.03 Bohr mag/cell

     iteration # 66     ecut=    70.00 Ry     beta= 0.70
     Davidson diagonalization with overlap
     ethr =  5.18E-07,  avg # of iterations =  2.5

     negative rho (up, down):  1.029E-03 2.792E-02

     total cpu time spent up to now is     8216.8 secs

     total energy              =    -951.88621306 Ry
     Harris-Foulkes estimate   =    -951.88620545 Ry
     estimated scf accuracy    <       0.00055992 Ry

     total magnetization       =     0.00 Bohr mag/cell
     absolute magnetization    =     0.02 Bohr mag/cell

     iteration # 67     ecut=    70.00 Ry     beta= 0.70
     Davidson diagonalization with overlap
     ethr =  2.59E-07,  avg # of iterations =  2.0

     negative rho (up, down):  1.029E-03 6.957E-02

     total cpu time spent up to now is     8338.9 secs

     total energy              =    -951.88615027 Ry
     Harris-Foulkes estimate   =    -951.88629063 Ry
     estimated scf accuracy    <       0.00288837 Ry

     total magnetization       =     0.00 Bohr mag/cell
     absolute magnetization    =     0.08 Bohr mag/cell

     iteration # 68     ecut=    70.00 Ry     beta= 0.70
     Davidson diagonalization with overlap
     ethr =  2.59E-07,  avg # of iterations =  2.0

     negative rho (up, down):  1.024E-03 4.262E-02

     total cpu time spent up to now is     8459.8 secs

     total energy              =    -951.88619302 Ry
     Harris-Foulkes estimate   =    -951.88617483 Ry
     estimated scf accuracy    <       0.00040281 Ry

     total magnetization       =     0.00 Bohr mag/cell
     absolute magnetization    =     0.03 Bohr mag/cell

     iteration # 69     ecut=    70.00 Ry     beta= 0.70
     Davidson diagonalization with overlap
     ethr =  1.86E-07,  avg # of iterations =  2.5

     negative rho (up, down):  1.066E-03 1.043E-01

     total cpu time spent up to now is     8566.7 secs

     total energy              =    -951.88588958 Ry
     Harris-Foulkes estimate   =    -951.88637297 Ry
     estimated scf accuracy    <       0.00973248 Ry

     total magnetization       =    -0.00 Bohr mag/cell
     absolute magnetization    =     0.15 Bohr mag/cell

     iteration # 70     ecut=    70.00 Ry     beta= 0.70
     Davidson diagonalization with overlap
     ethr =  1.86E-07,  avg # of iterations =  3.0

     negative rho (up, down):  1.135E-03 5.152E-02

     total cpu time spent up to now is     8672.7 secs

     total energy              =    -951.88612251 Ry
     Harris-Foulkes estimate   =    -951.88601713 Ry
     estimated scf accuracy    <       0.00097292 Ry

     total magnetization       =     0.00 Bohr mag/cell
     absolute magnetization    =     0.03 Bohr mag/cell

     iteration # 71     ecut=    70.00 Ry     beta= 0.70
     Davidson diagonalization with overlap
     ethr =  1.86E-07,  avg # of iterations =  2.0

     negative rho (up, down):  1.078E-03 3.281E-02

     total cpu time spent up to now is     8772.5 secs

     total energy              =    -951.88618166 Ry
     Harris-Foulkes estimate   =    -951.88617299 Ry
     estimated scf accuracy    <       0.00075403 Ry

     total magnetization       =     0.00 Bohr mag/cell
     absolute magnetization    =     0.02 Bohr mag/cell

     iteration # 72     ecut=    70.00 Ry     beta= 0.70
     Davidson diagonalization with overlap
     ethr =  1.86E-07,  avg # of iterations =  2.0

     negative rho (up, down):  1.109E-03 2.179E-02

     total cpu time spent up to now is     8873.4 secs

     total energy              =    -951.88613974 Ry
     Harris-Foulkes estimate   =    -951.88625785 Ry
     estimated scf accuracy    <       0.00170673 Ry

     total magnetization       =     0.00 Bohr mag/cell
     absolute magnetization    =     0.03 Bohr mag/cell

     iteration # 73     ecut=    70.00 Ry     beta= 0.70
     Davidson diagonalization with overlap
     ethr =  1.86E-07,  avg # of iterations =  2.5

     negative rho (up, down):  1.039E-03 6.688E-02

     total cpu time spent up to now is     8975.8 secs

     total energy              =    -951.88619010 Ry
     Harris-Foulkes estimate   =    -951.88626219 Ry
     estimated scf accuracy    <       0.00306258 Ry

     total magnetization       =    -0.00 Bohr mag/cell
     absolute magnetization    =     0.08 Bohr mag/cell

     iteration # 74     ecut=    70.00 Ry     beta= 0.70
     Davidson diagonalization with overlap
     ethr =  1.86E-07,  avg # of iterations =  2.0

     negative rho (up, down):  1.054E-03 6.557E-02

     total cpu time spent up to now is     9071.6 secs

     total energy              =    -951.88613345 Ry
     Harris-Foulkes estimate   =    -951.88619648 Ry
     estimated scf accuracy    <       0.00139471 Ry

     total magnetization       =    -0.00 Bohr mag/cell
     absolute magnetization    =     0.05 Bohr mag/cell

     iteration # 75     ecut=    70.00 Ry     beta= 0.70
     Davidson diagonalization with overlap
     ethr =  1.86E-07,  avg # of iterations =  2.0

     negative rho (up, down):  1.056E-03 2.824E-02

     total cpu time spent up to now is     9169.7 secs

     total energy              =    -951.88621786 Ry
     Harris-Foulkes estimate   =    -951.88617298 Ry
     estimated scf accuracy    <       0.00038091 Ry

     total magnetization       =    -0.00 Bohr mag/cell
     absolute magnetization    =     0.01 Bohr mag/cell

     iteration # 76     ecut=    70.00 Ry     beta= 0.70
     Davidson diagonalization with overlap
     ethr =  1.76E-07,  avg # of iterations =  2.0

     negative rho (up, down):  1.026E-03 9.635E-03

     total cpu time spent up to now is     9265.0 secs

     total energy              =    -951.88625199 Ry
     Harris-Foulkes estimate   =    -951.88623210 Ry
     estimated scf accuracy    <       0.00004257 Ry

     total magnetization       =    -0.00 Bohr mag/cell
     absolute magnetization    =     0.01 Bohr mag/cell

     iteration # 77     ecut=    70.00 Ry     beta= 0.70
     Davidson diagonalization with overlap
     ethr =  1.97E-08,  avg # of iterations =  3.0

     negative rho (up, down):  1.031E-03 8.000E-02

     total cpu time spent up to now is     9380.6 secs

     total energy              =    -951.88610616 Ry
     Harris-Foulkes estimate   =    -951.88633702 Ry
     estimated scf accuracy    <       0.00464009 Ry

     total magnetization       =    -0.00 Bohr mag/cell
     absolute magnetization    =     0.10 Bohr mag/cell

     iteration # 78     ecut=    70.00 Ry     beta= 0.70
     Davidson diagonalization with overlap
     ethr =  1.97E-08,  avg # of iterations =  3.0

     negative rho (up, down):  1.024E-03 4.659E-02

     total cpu time spent up to now is     9493.4 secs

     total energy              =    -951.88618294 Ry
     Harris-Foulkes estimate   =    -951.88614974 Ry
     estimated scf accuracy    <       0.00048783 Ry

     total magnetization       =    -0.00 Bohr mag/cell
     absolute magnetization    =     0.03 Bohr mag/cell

     iteration # 79     ecut=    70.00 Ry     beta= 0.70
     Davidson diagonalization with overlap
     ethr =  1.97E-08,  avg # of iterations =  3.0

     negative rho (up, down):  1.033E-03 5.307E-02

     total cpu time spent up to now is     9606.1 secs

     total energy              =    -951.88619341 Ry
     Harris-Foulkes estimate   =    -951.88624348 Ry
     estimated scf accuracy    <       0.00187071 Ry

     total magnetization       =     0.00 Bohr mag/cell
     absolute magnetization    =     0.07 Bohr mag/cell

     iteration # 80     ecut=    70.00 Ry     beta= 0.70
     Davidson diagonalization with overlap
     ethr =  1.97E-08,  avg # of iterations =  3.0

     negative rho (up, down):  1.100E-03 3.589E-02

     total cpu time spent up to now is     9712.2 secs

     total energy              =    -951.88617518 Ry
     Harris-Foulkes estimate   =    -951.88621505 Ry
     estimated scf accuracy    <       0.00085118 Ry

     total magnetization       =    -0.00 Bohr mag/cell
     absolute magnetization    =     0.03 Bohr mag/cell

     iteration # 81     ecut=    70.00 Ry     beta= 0.70
     Davidson diagonalization with overlap
     ethr =  1.97E-08,  avg # of iterations =  3.0

     negative rho (up, down):  1.038E-03 1.630E-02

     total cpu time spent up to now is     9817.3 secs

     total energy              =    -951.88624058 Ry
     Harris-Foulkes estimate   =    -951.88619667 Ry
     estimated scf accuracy    <       0.00009361 Ry

     total magnetization       =    -0.00 Bohr mag/cell
     absolute magnetization    =     0.01 Bohr mag/cell

     iteration # 82     ecut=    70.00 Ry     beta= 0.70
     Davidson diagonalization with overlap
     ethr =  1.97E-08,  avg # of iterations =  2.5

     negative rho (up, down):  1.026E-03 7.617E-03

     total cpu time spent up to now is     9918.3 secs

     total energy              =    -951.88625015 Ry
     Harris-Foulkes estimate   =    -951.88624590 Ry
     estimated scf accuracy    <       0.00006826 Ry

     total magnetization       =     0.00 Bohr mag/cell
     absolute magnetization    =     0.01 Bohr mag/cell

     iteration # 83     ecut=    70.00 Ry     beta= 0.70
     Davidson diagonalization with overlap
     ethr =  1.97E-08,  avg # of iterations =  2.0

     negative rho (up, down):  1.026E-03 2.044E-02

     total cpu time spent up to now is    10019.6 secs

     total energy              =    -951.88625246 Ry
     Harris-Foulkes estimate   =    -951.88625896 Ry
     estimated scf accuracy    <       0.00026474 Ry

     total magnetization       =     0.00 Bohr mag/cell
     absolute magnetization    =     0.02 Bohr mag/cell

     iteration # 84     ecut=    70.00 Ry     beta= 0.70
     Davidson diagonalization with overlap
     ethr =  1.97E-08,  avg # of iterations =  1.0

     negative rho (up, down):  1.031E-03 2.683E-02

     total cpu time spent up to now is    10114.0 secs

     total energy              =    -951.88623774 Ry
     Harris-Foulkes estimate   =    -951.88625258 Ry
     estimated scf accuracy    <       0.00024413 Ry

     total magnetization       =    -0.00 Bohr mag/cell
     absolute magnetization    =     0.02 Bohr mag/cell

     iteration # 85     ecut=    70.00 Ry     beta= 0.70
     Davidson diagonalization with overlap
     ethr =  1.97E-08,  avg # of iterations =  2.0

     negative rho (up, down):  1.036E-03 1.566E-02

     total cpu time spent up to now is    10213.8 secs

     total energy              =    -951.88624444 Ry
     Harris-Foulkes estimate   =    -951.88624436 Ry
     estimated scf accuracy    <       0.00013319 Ry

     total magnetization       =     0.00 Bohr mag/cell
     absolute magnetization    =     0.01 Bohr mag/cell

     iteration # 86     ecut=    70.00 Ry     beta= 0.70
     Davidson diagonalization with overlap
     ethr =  1.97E-08,  avg # of iterations =  2.0

     negative rho (up, down):  1.027E-03 7.827E-03

     total cpu time spent up to now is    10314.2 secs

     total energy              =    -951.88625219 Ry
     Harris-Foulkes estimate   =    -951.88625100 Ry
     estimated scf accuracy    <       0.00004125 Ry

     total magnetization       =     0.00 Bohr mag/cell
     absolute magnetization    =     0.00 Bohr mag/cell

     iteration # 87     ecut=    70.00 Ry     beta= 0.70
     Davidson diagonalization with overlap
     ethr =  1.91E-08,  avg # of iterations =  2.0

     negative rho (up, down):  1.027E-03 1.561E-02

     total cpu time spent up to now is    10411.6 secs

     total energy              =    -951.88625146 Ry
     Harris-Foulkes estimate   =    -951.88625666 Ry
     estimated scf accuracy    <       0.00012462 Ry

     total magnetization       =    -0.00 Bohr mag/cell
     absolute magnetization    =     0.02 Bohr mag/cell

     iteration # 88     ecut=    70.00 Ry     beta= 0.70
     Davidson diagonalization with overlap
     ethr =  1.91E-08,  avg # of iterations =  2.0

     negative rho (up, down):  1.026E-03 1.045E-02

     total cpu time spent up to now is    10506.6 secs

     total energy              =    -951.88625205 Ry
     Harris-Foulkes estimate   =    -951.88625230 Ry
     estimated scf accuracy    <       0.00002703 Ry

     total magnetization       =     0.00 Bohr mag/cell
     absolute magnetization    =     0.01 Bohr mag/cell

     iteration # 89     ecut=    70.00 Ry     beta= 0.70
     Davidson diagonalization with overlap
     ethr =  1.25E-08,  avg # of iterations =  2.0

     negative rho (up, down):  1.029E-03 2.530E-02

     total cpu time spent up to now is    10610.1 secs

     total energy              =    -951.88623903 Ry
     Harris-Foulkes estimate   =    -951.88626064 Ry
     estimated scf accuracy    <       0.00041295 Ry

     total magnetization       =     0.00 Bohr mag/cell
     absolute magnetization    =     0.03 Bohr mag/cell

     iteration # 90     ecut=    70.00 Ry     beta= 0.70
     Davidson diagonalization with overlap
     ethr =  1.25E-08,  avg # of iterations =  2.0

     negative rho (up, down):  1.032E-03 1.353E-02

     total cpu time spent up to now is    10711.0 secs

     total energy              =    -951.88624845 Ry
     Harris-Foulkes estimate   =    -951.88624324 Ry
     estimated scf accuracy    <       0.00005637 Ry

     total magnetization       =    -0.00 Bohr mag/cell
     absolute magnetization    =     0.01 Bohr mag/cell

     iteration # 91     ecut=    70.00 Ry     beta= 0.70
     Davidson diagonalization with overlap
     ethr =  1.25E-08,  avg # of iterations =  2.0

     negative rho (up, down):  1.028E-03 8.722E-03

     total cpu time spent up to now is    10808.9 secs

     total energy              =    -951.88625208 Ry
     Harris-Foulkes estimate   =    -951.88625090 Ry
     estimated scf accuracy    <       0.00003801 Ry

     total magnetization       =     0.00 Bohr mag/cell
     absolute magnetization    =     0.01 Bohr mag/cell

     iteration # 92     ecut=    70.00 Ry     beta= 0.70
     Davidson diagonalization with overlap
     ethr =  1.25E-08,  avg # of iterations =  2.0

     negative rho (up, down):  1.039E-03 8.985E-03

     total cpu time spent up to now is    10910.7 secs

     total energy              =    -951.88623999 Ry
     Harris-Foulkes estimate   =    -951.88625914 Ry
     estimated scf accuracy    <       0.00023207 Ry

     total magnetization       =    -0.00 Bohr mag/cell
     absolute magnetization    =     0.01 Bohr mag/cell

     iteration # 93     ecut=    70.00 Ry     beta= 0.70
     Davidson diagonalization with overlap
     ethr =  1.25E-08,  avg # of iterations =  2.5

     negative rho (up, down):  1.027E-03 1.251E-02

     total cpu time spent up to now is    11013.9 secs

     total energy              =    -951.88625506 Ry
     Harris-Foulkes estimate   =    -951.88625008 Ry
     estimated scf accuracy    <       0.00013049 Ry

     total magnetization       =     0.00 Bohr mag/cell
     absolute magnetization    =     0.02 Bohr mag/cell

     iteration # 94     ecut=    70.00 Ry     beta= 0.70
     Davidson diagonalization with overlap
     ethr =  1.25E-08,  avg # of iterations =  1.0

     negative rho (up, down):  1.026E-03 2.146E-02

     total cpu time spent up to now is    11107.9 secs

     total energy              =    -951.88624435 Ry
     Harris-Foulkes estimate   =    -951.88625519 Ry
     estimated scf accuracy    <       0.00016912 Ry

     total magnetization       =    -0.00 Bohr mag/cell
     absolute magnetization    =     0.02 Bohr mag/cell

     iteration # 95     ecut=    70.00 Ry     beta= 0.70
     Davidson diagonalization with overlap
     ethr =  1.25E-08,  avg # of iterations =  2.0

     negative rho (up, down):  1.025E-03 8.709E-03

     total cpu time spent up to now is    11206.6 secs

     total energy              =    -951.88625378 Ry
     Harris-Foulkes estimate   =    -951.88624741 Ry
     estimated scf accuracy    <       0.00001529 Ry

     total magnetization       =    -0.00 Bohr mag/cell
     absolute magnetization    =     0.00 Bohr mag/cell

     iteration # 96     ecut=    70.00 Ry     beta= 0.70
     Davidson diagonalization with overlap
     ethr =  7.08E-09,  avg # of iterations =  2.0

     negative rho (up, down):  1.023E-03 2.941E-03

     total cpu time spent up to now is    11302.7 secs

     total energy              =    -951.88625564 Ry
     Harris-Foulkes estimate   =    -951.88625450 Ry
     estimated scf accuracy    <       0.00000385 Ry

     total magnetization       =     0.00 Bohr mag/cell
     absolute magnetization    =     0.00 Bohr mag/cell

     iteration # 97     ecut=    70.00 Ry     beta= 0.70
     Davidson diagonalization with overlap
     ethr =  1.78E-09,  avg # of iterations =  3.0

     negative rho (up, down):  1.023E-03 2.088E-02

     total cpu time spent up to now is    11415.2 secs

     total energy              =    -951.88624740 Ry
     Harris-Foulkes estimate   =    -951.88626094 Ry
     estimated scf accuracy    <       0.00026664 Ry

     total magnetization       =     0.00 Bohr mag/cell
     absolute magnetization    =     0.02 Bohr mag/cell

     iteration # 98     ecut=    70.00 Ry     beta= 0.70
     Davidson diagonalization with overlap
     ethr =  1.78E-09,  avg # of iterations =  3.0

     negative rho (up, down):  1.023E-03 1.203E-02

     total cpu time spent up to now is    11522.1 secs

     total energy              =    -951.88625160 Ry
     Harris-Foulkes estimate   =    -951.88624965 Ry
     estimated scf accuracy    <       0.00003101 Ry

     total magnetization       =    -0.00 Bohr mag/cell
     absolute magnetization    =     0.01 Bohr mag/cell

     iteration # 99     ecut=    70.00 Ry     beta= 0.70
     Davidson diagonalization with overlap
     ethr =  1.78E-09,  avg # of iterations =  3.0

     negative rho (up, down):  1.023E-03 1.062E-02

     total cpu time spent up to now is    11632.0 secs

     total energy              =    -951.88625437 Ry
     Harris-Foulkes estimate   =    -951.88625468 Ry
     estimated scf accuracy    <       0.00006950 Ry

     total magnetization       =    -0.00 Bohr mag/cell
     absolute magnetization    =     0.01 Bohr mag/cell

     iteration #100     ecut=    70.00 Ry     beta= 0.70
     Davidson diagonalization with overlap
     ethr =  1.78E-09,  avg # of iterations =  2.0

     negative rho (up, down):  1.025E-03 8.697E-03

     Magnetic moment per site:
     atom:    1    charge:    0.2116    magn:   -0.0000    constr:    0.0000
     atom:    2    charge:    0.2111    magn:   -0.0000    constr:    0.0000
     atom:    3    charge:    1.7155    magn:    0.0000    constr:    0.0000
     atom:    4    charge:    1.7152    magn:   -0.0000    constr:    0.0000
     atom:    5    charge:    1.7168    magn:    0.0000    constr:    0.0000
     atom:    6    charge:    1.7146    magn:   -0.0000    constr:    0.0000
     atom:    7    charge:    1.7168    magn:    0.0000    constr:    0.0000
     atom:    8    charge:    1.7152    magn:   -0.0000    constr:    0.0000
     atom:    9    charge:    1.7155    magn:    0.0000    constr:    0.0000
     atom:   10    charge:    1.7177    magn:   -0.0000    constr:    0.0000
     atom:   11    charge:    1.7156    magn:    0.0000    constr:    0.0000
     atom:   12    charge:    1.7177    magn:   -0.0000    constr:    0.0000
     atom:   13    charge:    1.7155    magn:    0.0000    constr:    0.0000
     atom:   14    charge:    1.7175    magn:   -0.0000    constr:    0.0000
     atom:   15    charge:    1.7117    magn:    0.0000    constr:    0.0000
     atom:   16    charge:    1.7114    magn:   -0.0000    constr:    0.0000
     atom:   17    charge:    1.7206    magn:    0.0000    constr:    0.0000
     atom:   18    charge:    1.7114    magn:   -0.0000    constr:    0.0000
     atom:   19    charge:    1.7118    magn:    0.0000    constr:    0.0000
     atom:   20    charge:    1.7175    magn:   -0.0000    constr:    0.0000
     atom:   21    charge:    1.7156    magn:    0.0000    constr:    0.0000
     atom:   22    charge:    1.7177    magn:   -0.0000    constr:    0.0000
     atom:   23    charge:    1.7155    magn:    0.0000    constr:    0.0000
     atom:   24    charge:    1.7152    magn:   -0.0000    constr:    0.0000
     atom:   25    charge:    1.7117    magn:    0.0000    constr:    0.0000
     atom:   26    charge:    1.7114    magn:   -0.0000    constr:    0.0000
     atom:   27    charge:    1.8182    magn:    0.0000    constr:    0.0000
     atom:   28    charge:   13.4051    magn:   -0.0000    constr:    0.0000
     atom:   29    charge:    1.8182    magn:    0.0000    constr:    0.0000
     atom:   30    charge:    1.7114    magn:   -0.0000    constr:    0.0000
     atom:   31    charge:    1.7118    magn:    0.0000    constr:    0.0000
     atom:   32    charge:    1.7152    magn:   -0.0000    constr:    0.0000
     atom:   33    charge:    1.7168    magn:    0.0000    constr:    0.0000
     atom:   34    charge:    1.7154    magn:   -0.0000    constr:    0.0000
     atom:   35    charge:    1.7168    magn:    0.0000    constr:    0.0000
     atom:   36    charge:    1.7146    magn:   -0.0000    constr:    0.0000
     atom:   37    charge:    1.7206    magn:    0.0000    constr:    0.0000
     atom:   38    charge:    1.7114    magn:   -0.0000    constr:    0.0000
     atom:   39    charge:    1.8182    magn:    0.0000    constr:    0.0000
     atom:   40    charge:    1.7114    magn:   -0.0000    constr:    0.0000
     atom:   41    charge:    1.7206    magn:    0.0000    constr:    0.0000
     atom:   42    charge:    1.7146    magn:   -0.0000    constr:    0.0000
     atom:   43    charge:    1.7168    magn:    0.0000    constr:    0.0000
     atom:   44    charge:    1.7154    magn:   -0.0000    constr:    0.0000
     atom:   45    charge:    1.7212    magn:    0.0000    constr:    0.0000
     atom:   46    charge:    1.7154    magn:   -0.0000    constr:    0.0000
     atom:   47    charge:    1.7168    magn:    0.0000    constr:    0.0000
     atom:   48    charge:    1.7152    magn:   -0.0000    constr:    0.0000
     atom:   49    charge:    1.7118    magn:    0.0000    constr:    0.0000
     atom:   50    charge:    1.7175    magn:   -0.0000    constr:    0.0000
     atom:   51    charge:    1.7118    magn:    0.0000    constr:    0.0000
     atom:   52    charge:    1.7152    magn:   -0.0000    constr:    0.0000

     total cpu time spent up to now is    11731.4 secs

     total energy              =    -951.88625324 Ry
     Harris-Foulkes estimate   =    -951.88625480 Ry
     estimated scf accuracy    <       0.00003351 Ry

     total magnetization       =    -0.00 Bohr mag/cell
     absolute magnetization    =     0.01 Bohr mag/cell

     iteration #101     ecut=    70.00 Ry     beta= 0.70
     Davidson diagonalization with overlap
     ethr =  1.78E-09,  avg # of iterations =  2.0

     negative rho (up, down):  1.023E-03 4.104E-03

     total cpu time spent up to now is    11831.6 secs

     total energy              =    -951.88625543 Ry
     Harris-Foulkes estimate   =    -951.88625409 Ry
     estimated scf accuracy    <       0.00000534 Ry

     total magnetization       =     0.00 Bohr mag/cell
     absolute magnetization    =     0.00 Bohr mag/cell

     iteration #102     ecut=    70.00 Ry     beta= 0.70
     Davidson diagonalization with overlap
     ethr =  1.78E-09,  avg # of iterations =  2.0

     negative rho (up, down):  1.023E-03 1.817E-03

     total cpu time spent up to now is    11929.0 secs

     total energy              =    -951.88625576 Ry
     Harris-Foulkes estimate   =    -951.88625574 Ry
     estimated scf accuracy    <       0.00000311 Ry

     total magnetization       =     0.00 Bohr mag/cell
     absolute magnetization    =     0.00 Bohr mag/cell

     iteration #103     ecut=    70.00 Ry     beta= 0.70
     Davidson diagonalization with overlap
     ethr =  1.44E-09,  avg # of iterations =  2.0

     negative rho (up, down):  1.023E-03 3.902E-03

     total cpu time spent up to now is    12028.7 secs

     total energy              =    -951.88625604 Ry
     Harris-Foulkes estimate   =    -951.88625618 Ry
     estimated scf accuracy    <       0.00001111 Ry

     total magnetization       =    -0.00 Bohr mag/cell
     absolute magnetization    =     0.00 Bohr mag/cell

     iteration #104     ecut=    70.00 Ry     beta= 0.70
     Davidson diagonalization with overlap
     ethr =  1.44E-09,  avg # of iterations =  1.5

     negative rho (up, down):  1.023E-03 7.357E-03

     total cpu time spent up to now is    12123.4 secs

     total energy              =    -951.88625494 Ry
     Harris-Foulkes estimate   =    -951.88625607 Ry
     estimated scf accuracy    <       0.00001972 Ry

     total magnetization       =    -0.00 Bohr mag/cell
     absolute magnetization    =     0.01 Bohr mag/cell

     iteration #105     ecut=    70.00 Ry     beta= 0.70
     Davidson diagonalization with overlap
     ethr =  1.44E-09,  avg # of iterations =  2.0

     negative rho (up, down):  1.023E-03 4.616E-03

     total cpu time spent up to now is    12222.2 secs

     total energy              =    -951.88625528 Ry
     Harris-Foulkes estimate   =    -951.88625535 Ry
     estimated scf accuracy    <       0.00000904 Ry

     total magnetization       =     0.00 Bohr mag/cell
     absolute magnetization    =     0.00 Bohr mag/cell

     iteration #106     ecut=    70.00 Ry     beta= 0.70
     Davidson diagonalization with overlap
     ethr =  1.44E-09,  avg # of iterations =  2.0

     negative rho (up, down):  1.022E-03 2.731E-03

     total cpu time spent up to now is    12322.5 secs

     total energy              =    -951.88625551 Ry
     Harris-Foulkes estimate   =    -951.88625572 Ry
     estimated scf accuracy    <       0.00000621 Ry

     total magnetization       =     0.00 Bohr mag/cell
     absolute magnetization    =     0.00 Bohr mag/cell

     iteration #107     ecut=    70.00 Ry     beta= 0.70
     Davidson diagonalization with overlap
     ethr =  1.44E-09,  avg # of iterations =  2.0

     negative rho (up, down):  1.022E-03 3.029E-03

     total cpu time spent up to now is    12420.5 secs

     total energy              =    -951.88625589 Ry
     Harris-Foulkes estimate   =    -951.88625582 Ry
     estimated scf accuracy    <       0.00000497 Ry

     total magnetization       =    -0.00 Bohr mag/cell
     absolute magnetization    =     0.00 Bohr mag/cell

     iteration #108     ecut=    70.00 Ry     beta= 0.70
     Davidson diagonalization with overlap
     ethr =  1.44E-09,  avg # of iterations =  1.5

     negative rho (up, down):  1.022E-03 2.235E-03

     total cpu time spent up to now is    12514.6 secs

     total energy              =    -951.88625587 Ry
     Harris-Foulkes estimate   =    -951.88625592 Ry
     estimated scf accuracy    <       0.00000148 Ry

     total magnetization       =     0.00 Bohr mag/cell
     absolute magnetization    =     0.00 Bohr mag/cell

     iteration #109     ecut=    70.00 Ry     beta= 0.70
     Davidson diagonalization with overlap
     ethr =  6.85E-10,  avg # of iterations =  2.0

     negative rho (up, down):  1.022E-03 4.321E-03

     total cpu time spent up to now is    12616.5 secs

     total energy              =    -951.88625565 Ry
     Harris-Foulkes estimate   =    -951.88625619 Ry
     estimated scf accuracy    <       0.00001252 Ry

     total magnetization       =    -0.00 Bohr mag/cell
     absolute magnetization    =     0.01 Bohr mag/cell

     iteration #110     ecut=    70.00 Ry     beta= 0.70
     Davidson diagonalization with overlap
     ethr =  6.85E-10,  avg # of iterations =  2.0

     negative rho (up, down):  1.022E-03 3.064E-03

     total cpu time spent up to now is    12714.1 secs

     total energy              =    -951.88625573 Ry
     Harris-Foulkes estimate   =    -951.88625572 Ry
     estimated scf accuracy    <       0.00000333 Ry

     total magnetization       =     0.00 Bohr mag/cell
     absolute magnetization    =     0.00 Bohr mag/cell

     iteration #111     ecut=    70.00 Ry     beta= 0.70
     Davidson diagonalization with overlap
     ethr =  6.85E-10,  avg # of iterations =  2.0

     negative rho (up, down):  1.022E-03 1.724E-03

     total cpu time spent up to now is    12811.9 secs

     total energy              =    -951.88625591 Ry
     Harris-Foulkes estimate   =    -951.88625583 Ry
     estimated scf accuracy    <       0.00000123 Ry

     total magnetization       =    -0.00 Bohr mag/cell
     absolute magnetization    =     0.00 Bohr mag/cell

     iteration #112     ecut=    70.00 Ry     beta= 0.70
     Davidson diagonalization with overlap
     ethr =  5.69E-10,  avg # of iterations =  2.5

     negative rho (up, down):  1.023E-03 1.521E-03

     total cpu time spent up to now is    12916.2 secs

     total energy              =    -951.88625515 Ry
     Harris-Foulkes estimate   =    -951.88625632 Ry
     estimated scf accuracy    <       0.00001338 Ry

     total magnetization       =     0.00 Bohr mag/cell
     absolute magnetization    =     0.00 Bohr mag/cell

     iteration #113     ecut=    70.00 Ry     beta= 0.70
     Davidson diagonalization with overlap
     ethr =  5.69E-10,  avg # of iterations =  2.5

     negative rho (up, down):  1.022E-03 1.690E-03

     total cpu time spent up to now is    13020.2 secs

     total energy              =    -951.88625606 Ry
     Harris-Foulkes estimate   =    -951.88625556 Ry
     estimated scf accuracy    <       0.00000295 Ry

     total magnetization       =    -0.00 Bohr mag/cell
     absolute magnetization    =     0.00 Bohr mag/cell

     iteration #114     ecut=    70.00 Ry     beta= 0.70
     Davidson diagonalization with overlap
     ethr =  5.69E-10,  avg # of iterations =  2.0

     negative rho (up, down):  1.022E-03 4.344E-03

     total cpu time spent up to now is    13116.1 secs

     total energy              =    -951.88625566 Ry
     Harris-Foulkes estimate   =    -951.88625608 Ry
     estimated scf accuracy    <       0.00000761 Ry

     total magnetization       =     0.00 Bohr mag/cell
     absolute magnetization    =     0.00 Bohr mag/cell

     iteration #115     ecut=    70.00 Ry     beta= 0.70
     Davidson diagonalization with overlap
     ethr =  5.69E-10,  avg # of iterations =  2.0

     negative rho (up, down):  1.022E-03 5.441E-05

     Magnetic moment per site:
     atom:    1    charge:    0.2116    magn:   -0.0000    constr:    0.0000
     atom:    2    charge:    0.2111    magn:   -0.0000    constr:    0.0000
     atom:    3    charge:    1.7155    magn:    0.0000    constr:    0.0000
     atom:    4    charge:    1.7152    magn:   -0.0000    constr:    0.0000
     atom:    5    charge:    1.7168    magn:    0.0000    constr:    0.0000
     atom:    6    charge:    1.7146    magn:   -0.0000    constr:    0.0000
     atom:    7    charge:    1.7168    magn:    0.0000    constr:    0.0000
     atom:    8    charge:    1.7152    magn:   -0.0000    constr:    0.0000
     atom:    9    charge:    1.7155    magn:    0.0000    constr:    0.0000
     atom:   10    charge:    1.7176    magn:   -0.0000    constr:    0.0000
     atom:   11    charge:    1.7155    magn:    0.0000    constr:    0.0000
     atom:   12    charge:    1.7177    magn:   -0.0000    constr:    0.0000
     atom:   13    charge:    1.7156    magn:    0.0000    constr:    0.0000
     atom:   14    charge:    1.7175    magn:   -0.0000    constr:    0.0000
     atom:   15    charge:    1.7118    magn:    0.0000    constr:    0.0000
     atom:   16    charge:    1.7114    magn:   -0.0000    constr:    0.0000
     atom:   17    charge:    1.7206    magn:    0.0000    constr:    0.0000
     atom:   18    charge:    1.7114    magn:   -0.0000    constr:    0.0000
     atom:   19    charge:    1.7118    magn:    0.0000    constr:    0.0000
     atom:   20    charge:    1.7175    magn:   -0.0000    constr:    0.0000
     atom:   21    charge:    1.7156    magn:    0.0000    constr:    0.0000
     atom:   22    charge:    1.7177    magn:   -0.0000    constr:    0.0000
     atom:   23    charge:    1.7155    magn:    0.0000    constr:    0.0000
     atom:   24    charge:    1.7152    magn:   -0.0000    constr:    0.0000
     atom:   25    charge:    1.7118    magn:    0.0000    constr:    0.0000
     atom:   26    charge:    1.7114    magn:   -0.0000    constr:    0.0000
     atom:   27    charge:    1.8182    magn:    0.0000    constr:    0.0000
     atom:   28    charge:   13.4052    magn:   -0.0000    constr:    0.0000
     atom:   29    charge:    1.8182    magn:    0.0000    constr:    0.0000
     atom:   30    charge:    1.7114    magn:   -0.0000    constr:    0.0000
     atom:   31    charge:    1.7118    magn:    0.0000    constr:    0.0000
     atom:   32    charge:    1.7152    magn:   -0.0000    constr:    0.0000
     atom:   33    charge:    1.7168    magn:    0.0000    constr:    0.0000
     atom:   34    charge:    1.7154    magn:   -0.0000    constr:    0.0000
     atom:   35    charge:    1.7168    magn:    0.0000    constr:    0.0000
     atom:   36    charge:    1.7146    magn:   -0.0000    constr:    0.0000
     atom:   37    charge:    1.7206    magn:    0.0000    constr:    0.0000
     atom:   38    charge:    1.7114    magn:   -0.0000    constr:    0.0000
     atom:   39    charge:    1.8182    magn:    0.0000    constr:    0.0000
     atom:   40    charge:    1.7114    magn:   -0.0000    constr:    0.0000
     atom:   41    charge:    1.7206    magn:    0.0000    constr:    0.0000
     atom:   42    charge:    1.7146    magn:   -0.0000    constr:    0.0000
     atom:   43    charge:    1.7168    magn:    0.0000    constr:    0.0000
     atom:   44    charge:    1.7154    magn:   -0.0000    constr:    0.0000
     atom:   45    charge:    1.7212    magn:    0.0000    constr:    0.0000
     atom:   46    charge:    1.7154    magn:   -0.0000    constr:    0.0000
     atom:   47    charge:    1.7168    magn:    0.0000    constr:    0.0000
     atom:   48    charge:    1.7152    magn:   -0.0000    constr:    0.0000
     atom:   49    charge:    1.7117    magn:    0.0000    constr:    0.0000
     atom:   50    charge:    1.7175    magn:   -0.0000    constr:    0.0000
     atom:   51    charge:    1.7117    magn:    0.0000    constr:    0.0000
     atom:   52    charge:    1.7152    magn:   -0.0000    constr:    0.0000

     total cpu time spent up to now is    13214.2 secs

     End of self-consistent calculation

 ------ SPIN UP ------------


          k = 0.0000 0.0000 0.0000 ( 87777 PWs)   bands (ev):

  -107.9190 -69.0875 -69.0873 -67.0031 -19.8260 -19.0068 -19.0066 -18.8879
   -18.8879 -18.8029 -18.7356 -17.1628 -17.1626 -17.1279 -17.0787 -17.0787
   -16.7527 -16.3118 -16.3118 -16.1652 -16.1651 -16.1518 -15.6695 -14.3102
   -14.3100 -14.1496 -14.0158 -14.0157 -13.5137 -13.1280 -13.1280 -13.0764
   -12.9003 -12.9003 -12.5000 -12.0753 -12.0753 -11.7117 -11.5677 -11.5676
   -10.9338 -10.4316 -10.4316  -9.5767  -9.3651  -9.3650  -9.2259  -9.2109
    -9.2109  -9.1961  -8.9521  -8.9521  -8.5925  -8.5925  -8.4568  -7.9420
    -7.9012  -7.8456  -7.8451  -7.6634  -7.5409  -7.5409  -7.4478  -7.4478
    -6.8457  -6.8210  -6.8210  -6.7517  -6.6943  -6.6186  -6.6186  -6.5547
    -6.5497  -6.5497  -6.5161  -6.4922  -6.4248  -6.4247  -6.3776  -6.2886
    -6.2886  -5.5460  -5.5460  -5.0300  -4.9490  -4.8419  -4.8419  -4.7573
    -4.7158  -4.7156  -4.4275  -4.3981  -4.3981  -3.8357  -3.8355  -3.7640
    -3.7582  -3.7582  -3.7301  -3.4192  -3.4189  -3.3506  -1.8913  -1.8056
    -1.8055  -1.5897  -1.5892  -1.1570   0.1077   0.1079   0.9049   0.9635
     0.9636   1.2132   1.2135   1.5503   2.4955   2.8036   2.8038   2.8530
     3.0408   3.0412   3.4187   3.6096   3.6107   3.7392   3.7423   3.7662
     3.7859   3.9586

     occupation numbers 
     1.0000   1.0000   1.0000   1.0000   1.0000   1.0000   1.0000   1.0000
     1.0000   1.0000   1.0000   1.0000   1.0000   1.0000   1.0000   1.0000
     1.0000   1.0000   1.0000   1.0000   1.0000   1.0000   1.0000   1.0000
     1.0000   1.0000   1.0000   1.0000   1.0000   1.0000   1.0000   1.0000
     1.0000   1.0000   1.0000   1.0000   1.0000   1.0000   1.0000   1.0000
     1.0000   1.0000   1.0000   1.0000   1.0000   1.0000   1.0000   1.0000
     1.0000   1.0000   1.0000   1.0000   1.0000   1.0000   1.0000   1.0000
     1.0000   1.0000   1.0000   1.0000   1.0000   1.0000   1.0000   1.0000
     1.0000   1.0000   1.0000   1.0000   1.0000   1.0000   1.0000   1.0000
     1.0000   1.0000   1.0000   1.0000   1.0000   1.0000   1.0000   1.0000
     1.0000   1.0000   1.0000   1.0000   1.0000   1.0000   1.0000   1.0000
     1.0000   1.0000   1.0000   1.0000   1.0000   1.0000   1.0000   1.0000
     1.0000   1.0000   1.0000   1.0000   1.0000   1.0000   1.0000   1.0000
     1.0000   1.0000   1.0000   1.0000   0.0000   0.0000   0.0000   0.0000
     0.0000   0.0000   0.0000   0.0000   0.0000   0.0000   0.0000   0.0000
     0.0000   0.0000   0.0000   0.0000   0.0000   0.0000   0.0000   0.0000
     0.0000   0.0000

 ------ SPIN DOWN ----------


          k = 0.0000 0.0000 0.0000 ( 87777 PWs)   bands (ev):

  -107.9190 -69.0875 -69.0873 -67.0031 -19.8260 -19.0068 -19.0066 -18.8879
   -18.8879 -18.8029 -18.7356 -17.1628 -17.1626 -17.1279 -17.0787 -17.0787
   -16.7527 -16.3118 -16.3118 -16.1652 -16.1651 -16.1518 -15.6694 -14.3102
   -14.3100 -14.1496 -14.0158 -14.0157 -13.5137 -13.1280 -13.1280 -13.0764
   -12.9003 -12.9003 -12.5000 -12.0753 -12.0753 -11.7117 -11.5677 -11.5676
   -10.9338 -10.4316 -10.4316  -9.5767  -9.3651  -9.3650  -9.2259  -9.2109
    -9.2109  -9.1961  -8.9521  -8.9521  -8.5925  -8.5925  -8.4568  -7.9420
    -7.9012  -7.8456  -7.8451  -7.6634  -7.5409  -7.5409  -7.4478  -7.4478
    -6.8457  -6.8210  -6.8210  -6.7517  -6.6943  -6.6186  -6.6186  -6.5547
    -6.5497  -6.5497  -6.5161  -6.4922  -6.4248  -6.4247  -6.3776  -6.2886
    -6.2886  -5.5460  -5.5460  -5.0300  -4.9490  -4.8419  -4.8419  -4.7573
    -4.7158  -4.7156  -4.4275  -4.3981  -4.3981  -3.8357  -3.8355  -3.7640
    -3.7582  -3.7582  -3.7301  -3.4192  -3.4189  -3.3506  -1.8913  -1.8056
    -1.8055  -1.5897  -1.5892  -1.1570   0.1077   0.1079   0.9049   0.9635
     0.9636   1.2132   1.2135   1.5503   2.4956   2.8036   2.8038   2.8530
     3.0408   3.0412   3.4187   3.6097   3.6107   3.7392   3.7424   3.7661
     3.7858   3.9585

     occupation numbers 
     1.0000   1.0000   1.0000   1.0000   1.0000   1.0000   1.0000   1.0000
     1.0000   1.0000   1.0000   1.0000   1.0000   1.0000   1.0000   1.0000
     1.0000   1.0000   1.0000   1.0000   1.0000   1.0000   1.0000   1.0000
     1.0000   1.0000   1.0000   1.0000   1.0000   1.0000   1.0000   1.0000
     1.0000   1.0000   1.0000   1.0000   1.0000   1.0000   1.0000   1.0000
     1.0000   1.0000   1.0000   1.0000   1.0000   1.0000   1.0000   1.0000
     1.0000   1.0000   1.0000   1.0000   1.0000   1.0000   1.0000   1.0000
     1.0000   1.0000   1.0000   1.0000   1.0000   1.0000   1.0000   1.0000
     1.0000   1.0000   1.0000   1.0000   1.0000   1.0000   1.0000   1.0000
     1.0000   1.0000   1.0000   1.0000   1.0000   1.0000   1.0000   1.0000
     1.0000   1.0000   1.0000   1.0000   1.0000   1.0000   1.0000   1.0000
     1.0000   1.0000   1.0000   1.0000   1.0000   1.0000   1.0000   1.0000
     1.0000   1.0000   1.0000   1.0000   1.0000   1.0000   1.0000   1.0000
     1.0000   1.0000   1.0000   1.0000   0.0000   0.0000   0.0000   0.0000
     0.0000   0.0000   0.0000   0.0000   0.0000   0.0000   0.0000   0.0000
     0.0000   0.0000   0.0000   0.0000   0.0000   0.0000   0.0000   0.0000
     0.0000   0.0000

     the Fermi energy is    -0.3865 ev

!    total energy              =    -951.88625603 Ry
     Harris-Foulkes estimate   =    -951.88625576 Ry
     estimated scf accuracy    <       0.00000054 Ry

     The total energy is the sum of the following terms:

     one-electron contribution =   -2961.35101752 Ry
     hartree contribution      =    1523.32145303 Ry
     xc contribution           =    -265.71399591 Ry
     ewald contribution        =     751.85730436 Ry
     smearing contrib. (-TS)   =       0.00000000 Ry

     total magnetization       =    -0.00 Bohr mag/cell
     absolute magnetization    =     0.00 Bohr mag/cell

     convergence has been achieved in 115 iterations

     Writing output data file distance-5.0.save/

     init_run     :     77.36s CPU     78.97s WALL (       1 calls)
     electrons    :  12915.61s CPU  13134.12s WALL (       1 calls)

     Called by init_run:
     wfcinit      :     47.92s CPU     48.28s WALL (       1 calls)
     wfcinit:atom :      0.06s CPU      0.10s WALL (       2 calls)
     wfcinit:wfcr :     47.49s CPU     47.73s WALL (       2 calls)
     potinit      :     12.33s CPU     12.83s WALL (       1 calls)
     hinit0       :      7.02s CPU      7.08s WALL (       1 calls)

     Called by electrons:
     c_bands      :   8217.10s CPU   8260.48s WALL (     115 calls)
     sum_band     :   2759.49s CPU   2831.15s WALL (     115 calls)
     v_of_rho     :    908.45s CPU    948.37s WALL (     116 calls)
     v_h          :      9.59s CPU      9.86s WALL (     116 calls)
     v_xc         :    898.86s CPU    938.51s WALL (     116 calls)
     newd         :    956.31s CPU   1019.38s WALL (     116 calls)
     mix_rho      :     62.00s CPU     62.88s WALL (     115 calls)

     Called by c_bands:
     init_us_2    :     23.76s CPU     23.84s WALL (     462 calls)
     cegterg      :   8155.54s CPU   8198.64s WALL (     230 calls)

     Called by sum_band:
     sum_band:bec :      0.20s CPU      0.20s WALL (     230 calls)
     addusdens    :   1729.32s CPU   1795.14s WALL (     115 calls)

     Called by *egterg:
     h_psi        :   4252.22s CPU   4281.56s WALL (     831 calls)
     s_psi        :   1416.35s CPU   1417.28s WALL (     831 calls)
     g_psi        :      4.32s CPU      4.33s WALL (     599 calls)
     cdiaghg      :     56.00s CPU     56.05s WALL (     829 calls)
     cegterg:over :    994.03s CPU    994.74s WALL (     599 calls)
     cegterg:upda :    610.09s CPU    613.50s WALL (     599 calls)
     cegterg:last :    440.15s CPU    440.37s WALL (     230 calls)

     Called by h_psi:
     h_psi:pot    :   4247.19s CPU   4271.34s WALL (     831 calls)
     h_psi:calbec :   1410.79s CPU   1411.68s WALL (     831 calls)
     vloc_psi     :   1421.52s CPU   1443.99s WALL (     831 calls)
     add_vuspsi   :   1414.87s CPU   1415.66s WALL (     831 calls)

     General routines
     calbec       :   2030.68s CPU   2031.94s WALL (    1061 calls)
     fft          :    535.72s CPU    552.16s WALL (    8694 calls)
     ffts         :      9.65s CPU      9.90s WALL (     462 calls)
     fftw         :   1513.23s CPU   1537.73s WALL (  166020 calls)
     interpolate  :     21.88s CPU     22.43s WALL (     232 calls)

     Parallel routines
     fft_scatt_xy :    392.94s CPU    396.93s WALL (  175176 calls)
     fft_scatt_yz :    649.93s CPU    680.52s WALL (  175176 calls)

     PWSCF        :      3h36m CPU      3h40m WALL


   This run was terminated on:  23: 3: 4  22Dec2022            

=------------------------------------------------------------------------------=
   JOB DONE.
=------------------------------------------------------------------------------=
