
     Program PWSCF v.6.4.1 starts on 23Dec2022 at  2: 8: 9 

     This program is part of the open-source Quantum ESPRESSO suite
     for quantum simulation of materials; please cite
         "P. Giannozzi et al., J. Phys.:Condens. Matter 21 395502 (2009);
         "P. Giannozzi et al., J. Phys.:Condens. Matter 29 465901 (2017);
          URL http://www.quantum-espresso.org", 
     in publications or presentations arising from this work. More details at
     http://www.quantum-espresso.org/quote

     Parallel version (MPI), running on     6 processors

     MPI processes distributed on     1 nodes
     R & G space division:  proc/nbgrp/npool/nimage =       6
     Reading input from distance-4.0.in

     Current dimensions of program PWSCF are:
     Max number of different atomic species (ntypx) = 10
     Max number of k-points (npk) =  40000
     Max angular momentum in pseudopotentials (lmaxx) =  3

     IMPORTANT: XC functional enforced from input :
     Exchange-correlation      = RVV10 ( 1  4 13  4 3 0)
     Any further DFT definition will be discarded
     Please, verify this is what you really want

               file H.pbe-rrkjus.UPF: wavefunction(s)  1S renormalized

     Subspace diagonalization in iterative solution of the eigenvalue problem:
     a serial algorithm will be used


     Parallelization info
     --------------------
     sticks:   dense  smooth     PW     G-vecs:    dense   smooth      PW
     Min        3051    1746    432               270999   117096   14629
     Max        3053    1747    437               271001   117099   14630
     Sum       18313   10477   2611              1626001   702581   87777



     bravais-lattice index     =            4
     lattice parameter (alat)  =      23.2937  a.u.
     unit-cell volume          =    8879.8548 (a.u.)^3
     number of atoms/cell      =           52
     number of atomic types    =            3
     number of electrons       =       216.00
     number of Kohn-Sham states=          130
     kinetic-energy cutoff     =      70.0000  Ry
     charge density cutoff     =     490.0000  Ry
     convergence threshold     =      1.0E-06
     mixing beta               =       0.7000
     number of iterations used =            8  plain     mixing
     Exchange-correlation      = RVV10 ( 1  4 13  4 3 0)

     celldm(1)=  23.293684  celldm(2)=   0.000000  celldm(3)=   0.811261
     celldm(4)=   0.000000  celldm(5)=   0.000000  celldm(6)=   0.000000

     crystal axes: (cart. coord. in units of alat)
               a(1) = (   1.000000   0.000000   0.000000 )  
               a(2) = (  -0.500000   0.866025   0.000000 )  
               a(3) = (   0.000000   0.000000   0.811261 )  

     reciprocal axes: (cart. coord. in units 2 pi/alat)
               b(1) = (  1.000000  0.577350 -0.000000 )  
               b(2) = (  0.000000  1.154701  0.000000 )  
               b(3) = (  0.000000 -0.000000  1.232649 )  


     PseudoPot. # 1 for H  read from file:
     /home/cristian/Escritorio/Proyecto_Grafeno/pseudopotenciales/H.pbe-rrkjus.UPF
     MD5 check sum: 7cc9d459525c9a0585f487a71c3c9563
     Pseudo is Ultrasoft, Zval =  1.0
     Generated by new atomic code, or converted to UPF format
     Using radial grid of 1061 points,  2 beta functions with: 
                l(1) =   0
                l(2) =   0
     Q(r) pseudized with 0 coefficients 


     PseudoPot. # 2 for C  read from file:
     /home/cristian/Escritorio/Proyecto_Grafeno/pseudopotenciales/C.pbe-n-rrkjus_psl.1.0.0.UPF
     MD5 check sum: 1fdd950c42eb37d8afe3dd2f8d12311e
     Pseudo is Ultrasoft + core correction, Zval =  4.0
     Generated using "atomic" code by A. Dal Corso v.6.3MaX
     Using radial grid of 1073 points,  4 beta functions with: 
                l(1) =   0
                l(2) =   0
                l(3) =   1
                l(4) =   1
     Q(r) pseudized with 0 coefficients 


     PseudoPot. # 3 for Ni read from file:
     /home/cristian/Escritorio/Proyecto_Grafeno/pseudopotenciales/Ni.pbe-spn-rrkjus_psl.1.0.0.UPF
     MD5 check sum: 8b3fc9aac6dafe35f580d41bb18c3945
     Pseudo is Ultrasoft + core correction, Zval = 18.0
     Generated using "atomic" code by A. Dal Corso v.6.3
     Using radial grid of 1195 points,  6 beta functions with: 
                l(1) =   0
                l(2) =   0
                l(3) =   1
                l(4) =   1
                l(5) =   2
                l(6) =   2
     Q(r) pseudized with 0 coefficients 


     vdW kernel table read from file rVV10_kernel_table
     MD5 check sum: b8e2538accc0c0b3206b45ba4daaba6c

     atomic species   valence    mass     pseudopotential
        H              1.00     1.00794     H ( 1.00)
        C              4.00    12.01070     C ( 1.00)
        Ni            18.00    58.69340     Ni( 1.00)

     Starting magnetic structure 
     atomic species   magnetization
        H            0.500
        C            0.300
        Ni           0.800

     No symmetry found


                                    s                        frac. trans.

      isym =  1     identity                                     

 cryst.   s( 1) = (     1          0          0      )
                  (     0          1          0      )
                  (     0          0          1      )

 cart.    s( 1) = (  1.0000000  0.0000000  0.0000000 )
                  (  0.0000000  1.0000000  0.0000000 )
                  (  0.0000000  0.0000000  1.0000000 )


     point group C_1 (1)    
     there are  1 classes
     the character table:

       E    
A      1.00

     the symmetry operations in each class and the name of the first element:

     E        1
          identity                                               

   Cartesian axes

     site n.     atom                  positions (alat units)
         1           H   tau(   1) = (   0.2500000   0.4907477   0.3245045  )
         2           H   tau(   2) = (   0.2500000   0.4907477   0.3855171  )
         3           C   tau(   3) = (   0.0000000   0.0000000   0.0000000  )
         4           C   tau(   4) = (   0.0000000   0.1154701   0.0000000  )
         5           C   tau(   5) = (  -0.1000000   0.1732051   0.0000000  )
         6           C   tau(   6) = (  -0.1000000   0.2886751   0.0000000  )
         7           C   tau(   7) = (  -0.2000000   0.3464102   0.0000000  )
         8           C   tau(   8) = (  -0.2000000   0.4618802   0.0000000  )
         9           C   tau(   9) = (  -0.3000000   0.5196152   0.0000000  )
        10           C   tau(  10) = (  -0.3000000   0.6350853   0.0000000  )
        11           C   tau(  11) = (  -0.4000000   0.6928203   0.0000000  )
        12           C   tau(  12) = (  -0.4000000   0.8082904   0.0000000  )
        13           C   tau(  13) = (   0.2000000   0.0000000   0.0000000  )
        14           C   tau(  14) = (   0.2000000   0.1154701   0.0000000  )
        15           C   tau(  15) = (   0.1000000   0.1732051   0.0000000  )
        16           C   tau(  16) = (   0.1000000   0.2886751   0.0000000  )
        17           C   tau(  17) = (   0.0000000   0.3464102   0.0000000  )
        18           C   tau(  18) = (   0.0000000   0.4618802   0.0000000  )
        19           C   tau(  19) = (  -0.1000000   0.5196152   0.0000000  )
        20           C   tau(  20) = (  -0.1000000   0.6350853   0.0000000  )
        21           C   tau(  21) = (  -0.2000000   0.6928203   0.0000000  )
        22           C   tau(  22) = (  -0.2000000   0.8082904   0.0000000  )
        23           C   tau(  23) = (   0.4000000   0.0000000   0.0000000  )
        24           C   tau(  24) = (   0.4000000   0.1154701   0.0000000  )
        25           C   tau(  25) = (   0.3000000   0.1732051   0.0000000  )
        26           C   tau(  26) = (   0.3000000   0.2886751   0.0000000  )
        27           C   tau(  27) = (   0.2000000   0.3464102   0.0000000  )
        28           Ni  tau(  28) = (   0.2000000   0.4618802   0.0000000  )
        29           C   tau(  29) = (   0.1000000   0.5196152   0.0000000  )
        30           C   tau(  30) = (   0.1000000   0.6350853   0.0000000  )
        31           C   tau(  31) = (   0.0000000   0.6928203   0.0000000  )
        32           C   tau(  32) = (   0.0000000   0.8082904   0.0000000  )
        33           C   tau(  33) = (   0.6000000   0.0000000   0.0000000  )
        34           C   tau(  34) = (   0.6000000   0.1154701   0.0000000  )
        35           C   tau(  35) = (   0.5000000   0.1732051   0.0000000  )
        36           C   tau(  36) = (   0.5000000   0.2886751   0.0000000  )
        37           C   tau(  37) = (   0.4000000   0.3464102   0.0000000  )
        38           C   tau(  38) = (   0.4000000   0.4618802   0.0000000  )
        39           C   tau(  39) = (   0.3000000   0.5196152   0.0000000  )
        40           C   tau(  40) = (   0.3000000   0.6350853   0.0000000  )
        41           C   tau(  41) = (   0.2000000   0.6928203   0.0000000  )
        42           C   tau(  42) = (   0.2000000   0.8082904   0.0000000  )
        43           C   tau(  43) = (   0.8000000   0.0000000   0.0000000  )
        44           C   tau(  44) = (   0.8000000   0.1154701   0.0000000  )
        45           C   tau(  45) = (   0.7000000   0.1732051   0.0000000  )
        46           C   tau(  46) = (   0.7000000   0.2886751   0.0000000  )
        47           C   tau(  47) = (   0.6000000   0.3464102   0.0000000  )
        48           C   tau(  48) = (   0.6000000   0.4618802   0.0000000  )
        49           C   tau(  49) = (   0.5000000   0.5196152   0.0000000  )
        50           C   tau(  50) = (   0.5000000   0.6350853   0.0000000  )
        51           C   tau(  51) = (   0.4000000   0.6928203   0.0000000  )
        52           C   tau(  52) = (   0.4000000   0.8082904   0.0000000  )

   Crystallographic axes

     site n.     atom                  positions (cryst. coord.)
         1           H   tau(   1) = (  0.5333333  0.5666667  0.4000000  )
         2           H   tau(   2) = (  0.5333333  0.5666667  0.4752072  )
         3           C   tau(   3) = (  0.0000000  0.0000000  0.0000000  )
         4           C   tau(   4) = (  0.0666667  0.1333333  0.0000000  )
         5           C   tau(   5) = (  0.0000000  0.2000000  0.0000000  )
         6           C   tau(   6) = (  0.0666667  0.3333333  0.0000000  )
         7           C   tau(   7) = (  0.0000000  0.4000000  0.0000000  )
         8           C   tau(   8) = (  0.0666667  0.5333333  0.0000000  )
         9           C   tau(   9) = (  0.0000000  0.6000000  0.0000000  )
        10           C   tau(  10) = (  0.0666667  0.7333333  0.0000000  )
        11           C   tau(  11) = (  0.0000000  0.8000000  0.0000000  )
        12           C   tau(  12) = (  0.0666667  0.9333333  0.0000000  )
        13           C   tau(  13) = (  0.2000000  0.0000000  0.0000000  )
        14           C   tau(  14) = (  0.2666667  0.1333333  0.0000000  )
        15           C   tau(  15) = (  0.2000000  0.2000000  0.0000000  )
        16           C   tau(  16) = (  0.2666667  0.3333333  0.0000000  )
        17           C   tau(  17) = (  0.2000000  0.4000000  0.0000000  )
        18           C   tau(  18) = (  0.2666667  0.5333333  0.0000000  )
        19           C   tau(  19) = (  0.2000000  0.6000000  0.0000000  )
        20           C   tau(  20) = (  0.2666667  0.7333333  0.0000000  )
        21           C   tau(  21) = (  0.2000000  0.8000000  0.0000000  )
        22           C   tau(  22) = (  0.2666667  0.9333333  0.0000000  )
        23           C   tau(  23) = (  0.4000000  0.0000000  0.0000000  )
        24           C   tau(  24) = (  0.4666667  0.1333333  0.0000000  )
        25           C   tau(  25) = (  0.4000000  0.2000000  0.0000000  )
        26           C   tau(  26) = (  0.4666667  0.3333333  0.0000000  )
        27           C   tau(  27) = (  0.4000000  0.4000000  0.0000000  )
        28           Ni  tau(  28) = (  0.4666667  0.5333333  0.0000000  )
        29           C   tau(  29) = (  0.4000000  0.6000000  0.0000000  )
        30           C   tau(  30) = (  0.4666667  0.7333333  0.0000000  )
        31           C   tau(  31) = (  0.4000000  0.8000000  0.0000000  )
        32           C   tau(  32) = (  0.4666667  0.9333333  0.0000000  )
        33           C   tau(  33) = (  0.6000000  0.0000000  0.0000000  )
        34           C   tau(  34) = (  0.6666667  0.1333333  0.0000000  )
        35           C   tau(  35) = (  0.6000000  0.2000000  0.0000000  )
        36           C   tau(  36) = (  0.6666667  0.3333333  0.0000000  )
        37           C   tau(  37) = (  0.6000000  0.4000000  0.0000000  )
        38           C   tau(  38) = (  0.6666667  0.5333333  0.0000000  )
        39           C   tau(  39) = (  0.6000000  0.6000000  0.0000000  )
        40           C   tau(  40) = (  0.6666667  0.7333333  0.0000000  )
        41           C   tau(  41) = (  0.6000000  0.8000000  0.0000000  )
        42           C   tau(  42) = (  0.6666667  0.9333333  0.0000000  )
        43           C   tau(  43) = (  0.8000000  0.0000000  0.0000000  )
        44           C   tau(  44) = (  0.8666667  0.1333333  0.0000000  )
        45           C   tau(  45) = (  0.8000000  0.2000000  0.0000000  )
        46           C   tau(  46) = (  0.8666667  0.3333333  0.0000000  )
        47           C   tau(  47) = (  0.8000000  0.4000000  0.0000000  )
        48           C   tau(  48) = (  0.8666667  0.5333333  0.0000000  )
        49           C   tau(  49) = (  0.8000000  0.6000000  0.0000000  )
        50           C   tau(  50) = (  0.8666667  0.7333333  0.0000000  )
        51           C   tau(  51) = (  0.8000000  0.8000000  0.0000000  )
        52           C   tau(  52) = (  0.8666667  0.9333333  0.0000000  )

     number of k points=     1  Marzari-Vanderbilt smearing, width (Ry)=  0.0010
                       cart. coord. in units 2pi/alat
        k(    1) = (   0.0000000   0.0000000   0.0000000), wk =   1.0000000

                       cryst. coord.
        k(    1) = (   0.0000000   0.0000000   0.0000000), wk =   1.0000000

     Dense  grid:  1626001 G-vectors     FFT dimensions: ( 180, 180, 135)

     Smooth grid:   702581 G-vectors     FFT dimensions: ( 125, 125, 108)

     Dynamical RAM for                 wfc:      29.03 MB

     Dynamical RAM for     wfc (w. buffer):      87.10 MB

     Dynamical RAM for           str. fact:      12.41 MB

     Dynamical RAM for           local pot:       0.00 MB

     Dynamical RAM for          nlocal pot:      92.46 MB

     Dynamical RAM for                qrad:      19.73 MB

     Dynamical RAM for          rho,v,vnew:      58.92 MB

     Dynamical RAM for               rhoin:      19.64 MB

     Dynamical RAM for            rho*nmix:     132.32 MB

     Dynamical RAM for           G-vectors:      16.40 MB

     Dynamical RAM for          h,s,v(r/c):      12.38 MB

     Dynamical RAM for          <psi|beta>:       0.82 MB

     Dynamical RAM for                 psi:     116.14 MB

     Dynamical RAM for                hpsi:     116.14 MB

     Dynamical RAM for                spsi:     116.14 MB

     Dynamical RAM for      wfcinit/wfcrot:      93.90 MB

     Dynamical RAM for           addusdens:     975.89 MB

     Estimated static dynamical RAM per process >     489.64 MB

     Estimated max dynamical RAM per process >       1.43 GB

     Estimated total dynamical RAM >       8.59 GB
     Generating pointlists ...
     new r_m :   0.0252 (alat units)  0.5862 (a.u.) for type    1
     new r_m :   0.0476 (alat units)  1.1095 (a.u.) for type    2
     new r_m :   0.0476 (alat units)  1.1095 (a.u.) for type    3

     Check: negative core charge=   -0.000002

     Initial potential from superposition of free atoms

     starting charge  215.80530, renormalised to  216.00000

     negative rho (up, down):  1.344E-04 1.320E-02


---------------------------------------------------------------------------------
Carrying out rVV10 run using the following parameters:
Nqs =      20    Nr_points =    1024   r_max =   100.000
b_value =  6.30000    beta =  0.00901
     q_mesh =  0.00010000  0.00030000  0.00058939  0.00100810
               0.00161396  0.00249058  0.00375900  0.00559430
               0.00824984  0.01209221  0.01765183  0.02569619
               0.03733578  0.05417739  0.07854596  0.11380545
               0.16482331  0.23864234  0.34545298  0.50000000

Gradients computed in Reciprocal space

---------------------------------------------------------------------------------


     Starting wfcs are  208 randomized atomic wfcs

     total cpu time spent up to now is       79.1 secs

     Self-consistent Calculation

     iteration #  1     ecut=    70.00 Ry     beta= 0.70
     Davidson diagonalization with overlap
     ethr =  1.00E-02,  avg # of iterations =  4.5

     negative rho (up, down):  2.359E-04 1.154E-02

     total cpu time spent up to now is      212.4 secs

     total energy              =    -946.57347134 Ry
     Harris-Foulkes estimate   =    -949.77192822 Ry
     estimated scf accuracy    <      14.34704211 Ry

     total magnetization       =     6.00 Bohr mag/cell
     absolute magnetization    =     6.77 Bohr mag/cell

     iteration #  2     ecut=    70.00 Ry     beta= 0.70
     Davidson diagonalization with overlap
     ethr =  6.64E-03,  avg # of iterations =  4.0

     negative rho (up, down):  6.881E-04 7.468E-02

     total cpu time spent up to now is      334.4 secs

     total energy              =    -945.93762370 Ry
     Harris-Foulkes estimate   =    -957.72408265 Ry
     estimated scf accuracy    <      32.96837143 Ry

     total magnetization       =     4.00 Bohr mag/cell
     absolute magnetization    =     4.72 Bohr mag/cell

     iteration #  3     ecut=    70.00 Ry     beta= 0.70
     Davidson diagonalization with overlap
     ethr =  6.64E-03,  avg # of iterations =  4.0

     negative rho (up, down):  9.990E-04 3.287E-01

     total cpu time spent up to now is      438.8 secs

     total energy              =    -953.86840504 Ry
     Harris-Foulkes estimate   =    -953.07848751 Ry
     estimated scf accuracy    <      30.77985857 Ry

     total magnetization       =     3.88 Bohr mag/cell
     absolute magnetization    =     9.56 Bohr mag/cell

     iteration #  4     ecut=    70.00 Ry     beta= 0.70
     Davidson diagonalization with overlap
     ethr =  6.64E-03,  avg # of iterations =  3.5

     negative rho (up, down):  9.599E-02 5.436E-01

     total cpu time spent up to now is      541.6 secs

     total energy              =    -937.81550444 Ry
     Harris-Foulkes estimate   =    -967.32317061 Ry
     estimated scf accuracy    <     810.63398683 Ry

     total magnetization       =    -0.00 Bohr mag/cell
     absolute magnetization    =    41.92 Bohr mag/cell

     iteration #  5     ecut=    70.00 Ry     beta= 0.70
     Davidson diagonalization with overlap
     ethr =  6.64E-03,  avg # of iterations =  3.5

     negative rho (up, down):  2.577E-02 4.329E-01

     total cpu time spent up to now is      660.3 secs

     total energy              =    -953.47059144 Ry
     Harris-Foulkes estimate   =    -952.66953074 Ry
     estimated scf accuracy    <      25.24218217 Ry

     total magnetization       =     2.00 Bohr mag/cell
     absolute magnetization    =     7.27 Bohr mag/cell

     iteration #  6     ecut=    70.00 Ry     beta= 0.70
     Davidson diagonalization with overlap
     ethr =  6.64E-03,  avg # of iterations =  3.0

     negative rho (up, down):  4.255E-02 5.103E-01

     total cpu time spent up to now is      764.3 secs

     total energy              =    -941.63909749 Ry
     Harris-Foulkes estimate   =    -960.44342626 Ry
     estimated scf accuracy    <     504.77860775 Ry

     total magnetization       =     2.00 Bohr mag/cell
     absolute magnetization    =    35.27 Bohr mag/cell

     iteration #  7     ecut=    70.00 Ry     beta= 0.70
     Davidson diagonalization with overlap
     ethr =  6.64E-03,  avg # of iterations =  3.0

     negative rho (up, down):  3.077E-02 3.721E-01

     total cpu time spent up to now is      875.1 secs

     total energy              =    -951.49976722 Ry
     Harris-Foulkes estimate   =    -951.46941611 Ry
     estimated scf accuracy    <       8.61303547 Ry

     total magnetization       =     0.00 Bohr mag/cell
     absolute magnetization    =     4.39 Bohr mag/cell

     iteration #  8     ecut=    70.00 Ry     beta= 0.70
     Davidson diagonalization with overlap
     ethr =  3.99E-03,  avg # of iterations =  2.0

     negative rho (up, down):  2.662E-02 3.511E-01

     total cpu time spent up to now is      974.3 secs

     total energy              =    -952.51368227 Ry
     Harris-Foulkes estimate   =    -952.22652452 Ry
     estimated scf accuracy    <      26.67733544 Ry

     total magnetization       =    -0.00 Bohr mag/cell
     absolute magnetization    =     7.72 Bohr mag/cell

     iteration #  9     ecut=    70.00 Ry     beta= 0.70
     Davidson diagonalization with overlap
     ethr =  3.99E-03,  avg # of iterations =  2.0

     negative rho (up, down):  4.774E-02 3.903E-01

     total cpu time spent up to now is     1068.5 secs

     total energy              =    -950.84541454 Ry
     Harris-Foulkes estimate   =    -952.60554744 Ry
     estimated scf accuracy    <      53.92290826 Ry

     total magnetization       =     0.00 Bohr mag/cell
     absolute magnetization    =    11.01 Bohr mag/cell

     iteration # 10     ecut=    70.00 Ry     beta= 0.70
     Davidson diagonalization with overlap
     ethr =  3.99E-03,  avg # of iterations =  2.0

     negative rho (up, down):  1.219E-02 3.203E-01

     total cpu time spent up to now is     1167.6 secs

     total energy              =    -951.80567784 Ry
     Harris-Foulkes estimate   =    -951.76560491 Ry
     estimated scf accuracy    <       0.86391158 Ry

     total magnetization       =     0.00 Bohr mag/cell
     absolute magnetization    =     1.40 Bohr mag/cell

     iteration # 11     ecut=    70.00 Ry     beta= 0.70
     Davidson diagonalization with overlap
     ethr =  4.00E-04,  avg # of iterations =  6.0

     negative rho (up, down):  2.386E-02 1.640E-01

     total cpu time spent up to now is     1272.1 secs

     total energy              =    -951.82382497 Ry
     Harris-Foulkes estimate   =    -951.89436127 Ry
     estimated scf accuracy    <       1.87227799 Ry

     total magnetization       =     0.00 Bohr mag/cell
     absolute magnetization    =     0.93 Bohr mag/cell

     iteration # 12     ecut=    70.00 Ry     beta= 0.70
     Davidson diagonalization with overlap
     ethr =  4.00E-04,  avg # of iterations =  2.0

     negative rho (up, down):  1.913E-03 2.314E-01

     total cpu time spent up to now is     1369.9 secs

     total energy              =    -951.86958642 Ry
     Harris-Foulkes estimate   =    -951.88071167 Ry
     estimated scf accuracy    <       0.16312248 Ry

     total magnetization       =    -0.00 Bohr mag/cell
     absolute magnetization    =     0.59 Bohr mag/cell

     iteration # 13     ecut=    70.00 Ry     beta= 0.70
     Davidson diagonalization with overlap
     ethr =  7.55E-05,  avg # of iterations =  5.0

     negative rho (up, down):  2.798E-02 5.007E-02

     total cpu time spent up to now is     1472.4 secs

     total energy              =    -951.86010096 Ry
     Harris-Foulkes estimate   =    -951.90684053 Ry
     estimated scf accuracy    <       1.07573241 Ry

     total magnetization       =     0.00 Bohr mag/cell
     absolute magnetization    =     0.43 Bohr mag/cell

     iteration # 14     ecut=    70.00 Ry     beta= 0.70
     Davidson diagonalization with overlap
     ethr =  7.55E-05,  avg # of iterations =  3.0

     negative rho (up, down):  2.537E-03 3.431E-01

     total cpu time spent up to now is     1576.5 secs

     total energy              =    -951.87785816 Ry
     Harris-Foulkes estimate   =    -951.92428430 Ry
     estimated scf accuracy    <       2.85858241 Ry

     total magnetization       =     0.00 Bohr mag/cell
     absolute magnetization    =     2.62 Bohr mag/cell

     iteration # 15     ecut=    70.00 Ry     beta= 0.70
     Davidson diagonalization with overlap
     ethr =  7.55E-05,  avg # of iterations =  3.0

     negative rho (up, down):  5.593E-03 3.075E-01

     total cpu time spent up to now is     1677.8 secs

     total energy              =    -951.86928489 Ry
     Harris-Foulkes estimate   =    -951.89458452 Ry
     estimated scf accuracy    <       0.71980423 Ry

     total magnetization       =    -0.00 Bohr mag/cell
     absolute magnetization    =     1.24 Bohr mag/cell

     iteration # 16     ecut=    70.00 Ry     beta= 0.70
     Davidson diagonalization with overlap
     ethr =  7.55E-05,  avg # of iterations =  2.5

     negative rho (up, down):  8.571E-03 3.034E-01

     total cpu time spent up to now is     1784.2 secs

     total energy              =    -951.87876683 Ry
     Harris-Foulkes estimate   =    -951.92629353 Ry
     estimated scf accuracy    <       2.50828827 Ry

     total magnetization       =     0.00 Bohr mag/cell
     absolute magnetization    =     2.37 Bohr mag/cell

     iteration # 17     ecut=    70.00 Ry     beta= 0.70
     Davidson diagonalization with overlap
     ethr =  7.55E-05,  avg # of iterations =  2.0

     negative rho (up, down):  7.742E-03 2.709E-01

     total cpu time spent up to now is     1882.7 secs

     total energy              =    -951.85984065 Ry
     Harris-Foulkes estimate   =    -951.89048271 Ry
     estimated scf accuracy    <       0.65166741 Ry

     total magnetization       =     0.00 Bohr mag/cell
     absolute magnetization    =     1.19 Bohr mag/cell

     iteration # 18     ecut=    70.00 Ry     beta= 0.70
     Davidson diagonalization with overlap
     ethr =  7.55E-05,  avg # of iterations =  2.0

     negative rho (up, down):  1.351E-03 2.138E-01

     total cpu time spent up to now is     1980.8 secs

     total energy              =    -951.88359249 Ry
     Harris-Foulkes estimate   =    -951.87788174 Ry
     estimated scf accuracy    <       0.01995305 Ry

     total magnetization       =     0.00 Bohr mag/cell
     absolute magnetization    =     0.24 Bohr mag/cell

     iteration # 19     ecut=    70.00 Ry     beta= 0.70
     Davidson diagonalization with overlap
     ethr =  9.24E-06,  avg # of iterations =  8.0

     negative rho (up, down):  2.101E-03 1.542E-01

     total cpu time spent up to now is     2086.0 secs

     total energy              =    -951.88425095 Ry
     Harris-Foulkes estimate   =    -951.88546913 Ry
     estimated scf accuracy    <       0.03134150 Ry

     total magnetization       =     0.00 Bohr mag/cell
     absolute magnetization    =     0.26 Bohr mag/cell

     iteration # 20     ecut=    70.00 Ry     beta= 0.70
     Davidson diagonalization with overlap
     ethr =  9.24E-06,  avg # of iterations =  3.5

     negative rho (up, down):  1.108E-03 7.467E-02

     total cpu time spent up to now is     2186.6 secs

     total energy              =    -951.88611785 Ry
     Harris-Foulkes estimate   =    -951.88550240 Ry
     estimated scf accuracy    <       0.00224504 Ry

     total magnetization       =    -0.00 Bohr mag/cell
     absolute magnetization    =     0.11 Bohr mag/cell

     iteration # 21     ecut=    70.00 Ry     beta= 0.70
     Davidson diagonalization with overlap
     ethr =  1.04E-06,  avg # of iterations =  4.5

     negative rho (up, down):  1.213E-03 8.197E-02

     total cpu time spent up to now is     2292.1 secs

     total energy              =    -951.88694752 Ry
     Harris-Foulkes estimate   =    -951.88644780 Ry
     estimated scf accuracy    <       0.00877171 Ry

     total magnetization       =     0.00 Bohr mag/cell
     absolute magnetization    =     0.17 Bohr mag/cell

     iteration # 22     ecut=    70.00 Ry     beta= 0.70
     Davidson diagonalization with overlap
     ethr =  1.04E-06,  avg # of iterations =  2.5

     negative rho (up, down):  1.613E-03 1.938E-01

     total cpu time spent up to now is     2396.3 secs

     total energy              =    -951.88370119 Ry
     Harris-Foulkes estimate   =    -951.88774715 Ry
     estimated scf accuracy    <       0.09058549 Ry

     total magnetization       =     0.00 Bohr mag/cell
     absolute magnetization    =     0.48 Bohr mag/cell

     iteration # 23     ecut=    70.00 Ry     beta= 0.70
     Davidson diagonalization with overlap
     ethr =  1.04E-06,  avg # of iterations =  4.5

     negative rho (up, down):  1.490E-03 9.714E-02

     total cpu time spent up to now is     2510.2 secs

     total energy              =    -951.88589774 Ry
     Harris-Foulkes estimate   =    -951.88526759 Ry
     estimated scf accuracy    <       0.00486563 Ry

     total magnetization       =    -0.00 Bohr mag/cell
     absolute magnetization    =     0.08 Bohr mag/cell

     iteration # 24     ecut=    70.00 Ry     beta= 0.70
     Davidson diagonalization with overlap
     ethr =  1.04E-06,  avg # of iterations =  4.0

     negative rho (up, down):  1.102E-03 6.350E-02

     total cpu time spent up to now is     2612.7 secs

     total energy              =    -951.88647103 Ry
     Harris-Foulkes estimate   =    -951.88614335 Ry
     estimated scf accuracy    <       0.00330284 Ry

     total magnetization       =     0.00 Bohr mag/cell
     absolute magnetization    =     0.10 Bohr mag/cell

     iteration # 25     ecut=    70.00 Ry     beta= 0.70
     Davidson diagonalization with overlap
     ethr =  1.04E-06,  avg # of iterations =  2.0

     negative rho (up, down):  1.125E-03 1.293E-01

     total cpu time spent up to now is     2710.6 secs

     total energy              =    -951.88627178 Ry
     Harris-Foulkes estimate   =    -951.88663520 Ry
     estimated scf accuracy    <       0.01175615 Ry

     total magnetization       =     0.00 Bohr mag/cell
     absolute magnetization    =     0.17 Bohr mag/cell

     iteration # 26     ecut=    70.00 Ry     beta= 0.70
     Davidson diagonalization with overlap
     ethr =  1.04E-06,  avg # of iterations =  3.0

     negative rho (up, down):  1.137E-03 1.289E-01

     total cpu time spent up to now is     2807.3 secs

     total energy              =    -951.88595542 Ry
     Harris-Foulkes estimate   =    -951.88628569 Ry
     estimated scf accuracy    <       0.00732244 Ry

     total magnetization       =    -0.00 Bohr mag/cell
     absolute magnetization    =     0.14 Bohr mag/cell

     iteration # 27     ecut=    70.00 Ry     beta= 0.70
     Davidson diagonalization with overlap
     ethr =  1.04E-06,  avg # of iterations =  2.0

     negative rho (up, down):  1.051E-03 1.334E-01

     total cpu time spent up to now is     2910.6 secs

     total energy              =    -951.88605544 Ry
     Harris-Foulkes estimate   =    -951.88651167 Ry
     estimated scf accuracy    <       0.01861539 Ry

     total magnetization       =     0.00 Bohr mag/cell
     absolute magnetization    =     0.21 Bohr mag/cell

     iteration # 28     ecut=    70.00 Ry     beta= 0.70
     Davidson diagonalization with overlap
     ethr =  1.04E-06,  avg # of iterations =  3.0

     negative rho (up, down):  1.086E-03 1.016E-01

     total cpu time spent up to now is     3012.0 secs

     total energy              =    -951.88618182 Ry
     Harris-Foulkes estimate   =    -951.88617698 Ry
     estimated scf accuracy    <       0.00398829 Ry

     total magnetization       =     0.00 Bohr mag/cell
     absolute magnetization    =     0.11 Bohr mag/cell

     iteration # 29     ecut=    70.00 Ry     beta= 0.70
     Davidson diagonalization with overlap
     ethr =  1.04E-06,  avg # of iterations =  2.0

     negative rho (up, down):  1.039E-03 5.422E-02

     total cpu time spent up to now is     3108.2 secs

     total energy              =    -951.88643881 Ry
     Harris-Foulkes estimate   =    -951.88626545 Ry
     estimated scf accuracy    <       0.00038352 Ry

     total magnetization       =     0.00 Bohr mag/cell
     absolute magnetization    =     0.05 Bohr mag/cell

     iteration # 30     ecut=    70.00 Ry     beta= 0.70
     Davidson diagonalization with overlap
     ethr =  1.78E-07,  avg # of iterations =  2.0

     negative rho (up, down):  1.048E-03 2.829E-02

     total cpu time spent up to now is     3207.8 secs

     total energy              =    -951.88648072 Ry
     Harris-Foulkes estimate   =    -951.88646340 Ry
     estimated scf accuracy    <       0.00037582 Ry

     total magnetization       =    -0.00 Bohr mag/cell
     absolute magnetization    =     0.04 Bohr mag/cell

     iteration # 31     ecut=    70.00 Ry     beta= 0.70
     Davidson diagonalization with overlap
     ethr =  1.74E-07,  avg # of iterations =  2.0

     negative rho (up, down):  1.032E-03 1.712E-02

     total cpu time spent up to now is     3304.3 secs

     total energy              =    -951.88651445 Ry
     Harris-Foulkes estimate   =    -951.88649688 Ry
     estimated scf accuracy    <       0.00006980 Ry

     total magnetization       =    -0.00 Bohr mag/cell
     absolute magnetization    =     0.03 Bohr mag/cell

     iteration # 32     ecut=    70.00 Ry     beta= 0.70
     Davidson diagonalization with overlap
     ethr =  3.23E-08,  avg # of iterations =  2.5

     negative rho (up, down):  1.035E-03 2.865E-02

     total cpu time spent up to now is     3407.3 secs

     total energy              =    -951.88650738 Ry
     Harris-Foulkes estimate   =    -951.88652623 Ry
     estimated scf accuracy    <       0.00053517 Ry

     total magnetization       =     0.00 Bohr mag/cell
     absolute magnetization    =     0.04 Bohr mag/cell

     iteration # 33     ecut=    70.00 Ry     beta= 0.70
     Davidson diagonalization with overlap
     ethr =  3.23E-08,  avg # of iterations =  1.5

     negative rho (up, down):  1.037E-03 2.712E-02

     total cpu time spent up to now is     3503.5 secs

     total energy              =    -951.88650862 Ry
     Harris-Foulkes estimate   =    -951.88650925 Ry
     estimated scf accuracy    <       0.00027555 Ry

     total magnetization       =    -0.00 Bohr mag/cell
     absolute magnetization    =     0.03 Bohr mag/cell

     iteration # 34     ecut=    70.00 Ry     beta= 0.70
     Davidson diagonalization with overlap
     ethr =  3.23E-08,  avg # of iterations =  2.0

     negative rho (up, down):  1.036E-03 2.611E-02

     total cpu time spent up to now is     3599.6 secs

     total energy              =    -951.88651269 Ry
     Harris-Foulkes estimate   =    -951.88651028 Ry
     estimated scf accuracy    <       0.00024943 Ry

     total magnetization       =     0.00 Bohr mag/cell
     absolute magnetization    =     0.03 Bohr mag/cell

     iteration # 35     ecut=    70.00 Ry     beta= 0.70
     Davidson diagonalization with overlap
     ethr =  3.23E-08,  avg # of iterations =  2.0

     negative rho (up, down):  1.043E-03 2.731E-02

     total cpu time spent up to now is     3695.5 secs

     total energy              =    -951.88649791 Ry
     Harris-Foulkes estimate   =    -951.88651503 Ry
     estimated scf accuracy    <       0.00034271 Ry

     total magnetization       =    -0.00 Bohr mag/cell
     absolute magnetization    =     0.03 Bohr mag/cell

     iteration # 36     ecut=    70.00 Ry     beta= 0.70
     Davidson diagonalization with overlap
     ethr =  3.23E-08,  avg # of iterations =  2.0

     negative rho (up, down):  1.033E-03 1.293E-02

     total cpu time spent up to now is     3794.7 secs

     total energy              =    -951.88652083 Ry
     Harris-Foulkes estimate   =    -951.88650483 Ry
     estimated scf accuracy    <       0.00004160 Ry

     total magnetization       =     0.00 Bohr mag/cell
     absolute magnetization    =     0.02 Bohr mag/cell

     iteration # 37     ecut=    70.00 Ry     beta= 0.70
     Davidson diagonalization with overlap
     ethr =  1.93E-08,  avg # of iterations =  1.5

     negative rho (up, down):  1.034E-03 1.727E-02

     total cpu time spent up to now is     3890.0 secs

     total energy              =    -951.88651485 Ry
     Harris-Foulkes estimate   =    -951.88652118 Ry
     estimated scf accuracy    <       0.00009212 Ry

     total magnetization       =    -0.00 Bohr mag/cell
     absolute magnetization    =     0.02 Bohr mag/cell

     iteration # 38     ecut=    70.00 Ry     beta= 0.70
     Davidson diagonalization with overlap
     ethr =  1.93E-08,  avg # of iterations =  3.0

     negative rho (up, down):  1.039E-03 7.639E-03

     total cpu time spent up to now is     3992.6 secs

     total energy              =    -951.88651066 Ry
     Harris-Foulkes estimate   =    -951.88652623 Ry
     estimated scf accuracy    <       0.00012579 Ry

     total magnetization       =     0.00 Bohr mag/cell
     absolute magnetization    =     0.01 Bohr mag/cell

     iteration # 39     ecut=    70.00 Ry     beta= 0.70
     Davidson diagonalization with overlap
     ethr =  1.93E-08,  avg # of iterations =  3.0

     negative rho (up, down):  1.035E-03 1.628E-02

     total cpu time spent up to now is     4097.1 secs

     total energy              =    -951.88652210 Ry
     Harris-Foulkes estimate   =    -951.88652341 Ry
     estimated scf accuracy    <       0.00018300 Ry

     total magnetization       =     0.00 Bohr mag/cell
     absolute magnetization    =     0.02 Bohr mag/cell

     iteration # 40     ecut=    70.00 Ry     beta= 0.70
     Davidson diagonalization with overlap
     ethr =  1.93E-08,  avg # of iterations =  1.0

     negative rho (up, down):  1.034E-03 2.206E-02

     total cpu time spent up to now is     4191.8 secs

     total energy              =    -951.88651361 Ry
     Harris-Foulkes estimate   =    -951.88652223 Ry
     estimated scf accuracy    <       0.00020466 Ry

     total magnetization       =    -0.00 Bohr mag/cell
     absolute magnetization    =     0.02 Bohr mag/cell

     iteration # 41     ecut=    70.00 Ry     beta= 0.70
     Davidson diagonalization with overlap
     ethr =  1.93E-08,  avg # of iterations =  1.5

     negative rho (up, down):  1.032E-03 1.516E-02

     total cpu time spent up to now is     4288.8 secs

     total energy              =    -951.88651758 Ry
     Harris-Foulkes estimate   =    -951.88651493 Ry
     estimated scf accuracy    <       0.00004876 Ry

     total magnetization       =    -0.00 Bohr mag/cell
     absolute magnetization    =     0.01 Bohr mag/cell

     iteration # 42     ecut=    70.00 Ry     beta= 0.70
     Davidson diagonalization with overlap
     ethr =  1.93E-08,  avg # of iterations =  2.0

     negative rho (up, down):  1.033E-03 7.958E-03

     total cpu time spent up to now is     4385.9 secs

     total energy              =    -951.88652204 Ry
     Harris-Foulkes estimate   =    -951.88651992 Ry
     estimated scf accuracy    <       0.00002924 Ry

     total magnetization       =     0.00 Bohr mag/cell
     absolute magnetization    =     0.01 Bohr mag/cell

     iteration # 43     ecut=    70.00 Ry     beta= 0.70
     Davidson diagonalization with overlap
     ethr =  1.35E-08,  avg # of iterations =  2.0

     negative rho (up, down):  1.034E-03 7.436E-03

     total cpu time spent up to now is     4480.9 secs

     total energy              =    -951.88652206 Ry
     Harris-Foulkes estimate   =    -951.88652279 Ry
     estimated scf accuracy    <       0.00004298 Ry

     total magnetization       =    -0.00 Bohr mag/cell
     absolute magnetization    =     0.01 Bohr mag/cell

     iteration # 44     ecut=    70.00 Ry     beta= 0.70
     Davidson diagonalization with overlap
     ethr =  1.35E-08,  avg # of iterations =  2.0

     negative rho (up, down):  1.035E-03 1.387E-02

     total cpu time spent up to now is     4576.7 secs

     total energy              =    -951.88652007 Ry
     Harris-Foulkes estimate   =    -951.88652301 Ry
     estimated scf accuracy    <       0.00010927 Ry

     total magnetization       =    -0.00 Bohr mag/cell
     absolute magnetization    =     0.02 Bohr mag/cell

     iteration # 45     ecut=    70.00 Ry     beta= 0.70
     Davidson diagonalization with overlap
     ethr =  1.35E-08,  avg # of iterations =  1.0

     negative rho (up, down):  1.035E-03 1.493E-02

     total cpu time spent up to now is     4670.7 secs

     total energy              =    -951.88651507 Ry
     Harris-Foulkes estimate   =    -951.88652016 Ry
     estimated scf accuracy    <       0.00009408 Ry

     total magnetization       =    -0.00 Bohr mag/cell
     absolute magnetization    =     0.02 Bohr mag/cell

     iteration # 46     ecut=    70.00 Ry     beta= 0.70
     Davidson diagonalization with overlap
     ethr =  1.35E-08,  avg # of iterations =  2.0

     negative rho (up, down):  1.032E-03 2.609E-03

     total cpu time spent up to now is     4769.8 secs

     total energy              =    -951.88652402 Ry
     Harris-Foulkes estimate   =    -951.88651860 Ry
     estimated scf accuracy    <       0.00002327 Ry

     total magnetization       =     0.00 Bohr mag/cell
     absolute magnetization    =     0.01 Bohr mag/cell

     iteration # 47     ecut=    70.00 Ry     beta= 0.70
     Davidson diagonalization with overlap
     ethr =  1.08E-08,  avg # of iterations =  3.0

     negative rho (up, down):  1.033E-03 6.812E-02

     total cpu time spent up to now is     4876.0 secs

     total energy              =    -951.88640572 Ry
     Harris-Foulkes estimate   =    -951.88655453 Ry
     estimated scf accuracy    <       0.00235398 Ry

     total magnetization       =     0.00 Bohr mag/cell
     absolute magnetization    =     0.08 Bohr mag/cell

     iteration # 48     ecut=    70.00 Ry     beta= 0.70
     Davidson diagonalization with overlap
     ethr =  1.08E-08,  avg # of iterations =  3.0

     negative rho (up, down):  1.033E-03 2.143E-02

     total cpu time spent up to now is     4988.6 secs

     total energy              =    -951.88651491 Ry
     Harris-Foulkes estimate   =    -951.88643885 Ry
     estimated scf accuracy    <       0.00000418 Ry

     total magnetization       =    -0.00 Bohr mag/cell
     absolute magnetization    =     0.00 Bohr mag/cell

     iteration # 49     ecut=    70.00 Ry     beta= 0.70
     Davidson diagonalization with overlap
     ethr =  1.93E-09,  avg # of iterations =  3.0

     negative rho (up, down):  1.032E-03 7.978E-03

     total cpu time spent up to now is     5094.7 secs

     total energy              =    -951.88652258 Ry
     Harris-Foulkes estimate   =    -951.88651587 Ry
     estimated scf accuracy    <       0.00001123 Ry

     total magnetization       =    -0.00 Bohr mag/cell
     absolute magnetization    =     0.01 Bohr mag/cell

     iteration # 50     ecut=    70.00 Ry     beta= 0.70
     Davidson diagonalization with overlap
     ethr =  1.93E-09,  avg # of iterations =  2.0

     negative rho (up, down):  1.032E-03 6.543E-03

     total cpu time spent up to now is     5190.1 secs

     total energy              =    -951.88652305 Ry
     Harris-Foulkes estimate   =    -951.88652271 Ry
     estimated scf accuracy    <       0.00001842 Ry

     total magnetization       =     0.00 Bohr mag/cell
     absolute magnetization    =     0.01 Bohr mag/cell

     iteration # 51     ecut=    70.00 Ry     beta= 0.70
     Davidson diagonalization with overlap
     ethr =  1.93E-09,  avg # of iterations =  1.0

     negative rho (up, down):  1.032E-03 7.086E-03

     total cpu time spent up to now is     5284.0 secs

     total energy              =    -951.88652209 Ry
     Harris-Foulkes estimate   =    -951.88652306 Ry
     estimated scf accuracy    <       0.00001843 Ry

     total magnetization       =     0.00 Bohr mag/cell
     absolute magnetization    =     0.01 Bohr mag/cell

     iteration # 52     ecut=    70.00 Ry     beta= 0.70
     Davidson diagonalization with overlap
     ethr =  1.93E-09,  avg # of iterations =  2.0

     negative rho (up, down):  1.032E-03 3.595E-03

     total cpu time spent up to now is     5383.6 secs

     total energy              =    -951.88652307 Ry
     Harris-Foulkes estimate   =    -951.88652264 Ry
     estimated scf accuracy    <       0.00000479 Ry

     total magnetization       =     0.00 Bohr mag/cell
     absolute magnetization    =     0.00 Bohr mag/cell

     iteration # 53     ecut=    70.00 Ry     beta= 0.70
     Davidson diagonalization with overlap
     ethr =  1.93E-09,  avg # of iterations =  2.0

     negative rho (up, down):  1.035E-03 4.639E-03

     total cpu time spent up to now is     5483.3 secs

     total energy              =    -951.88652162 Ry
     Harris-Foulkes estimate   =    -951.88652376 Ry
     estimated scf accuracy    <       0.00003388 Ry

     total magnetization       =    -0.00 Bohr mag/cell
     absolute magnetization    =     0.01 Bohr mag/cell

     iteration # 54     ecut=    70.00 Ry     beta= 0.70
     Davidson diagonalization with overlap
     ethr =  1.93E-09,  avg # of iterations =  2.0

     negative rho (up, down):  1.033E-03 8.648E-03

     total cpu time spent up to now is     5583.3 secs

     total energy              =    -951.88652208 Ry
     Harris-Foulkes estimate   =    -951.88652233 Ry
     estimated scf accuracy    <       0.00004296 Ry

     total magnetization       =     0.00 Bohr mag/cell
     absolute magnetization    =     0.01 Bohr mag/cell

     iteration # 55     ecut=    70.00 Ry     beta= 0.70
     Davidson diagonalization with overlap
     ethr =  1.93E-09,  avg # of iterations =  1.0

     negative rho (up, down):  1.033E-03 9.337E-03

     total cpu time spent up to now is     5677.4 secs

     total energy              =    -951.88652030 Ry
     Harris-Foulkes estimate   =    -951.88652210 Ry
     estimated scf accuracy    <       0.00003520 Ry

     total magnetization       =    -0.00 Bohr mag/cell
     absolute magnetization    =     0.01 Bohr mag/cell

     iteration # 56     ecut=    70.00 Ry     beta= 0.70
     Davidson diagonalization with overlap
     ethr =  1.93E-09,  avg # of iterations =  2.5

     negative rho (up, down):  1.032E-03 1.235E-03

     total cpu time spent up to now is     5779.6 secs

     total energy              =    -951.88652318 Ry
     Harris-Foulkes estimate   =    -951.88652140 Ry
     estimated scf accuracy    <       0.00000390 Ry

     total magnetization       =    -0.00 Bohr mag/cell
     absolute magnetization    =     0.00 Bohr mag/cell

     iteration # 57     ecut=    70.00 Ry     beta= 0.70
     Davidson diagonalization with overlap
     ethr =  1.81E-09,  avg # of iterations =  2.0

     negative rho (up, down):  1.031E-03 3.612E-03

     total cpu time spent up to now is     5876.6 secs

     total energy              =    -951.88652322 Ry
     Harris-Foulkes estimate   =    -951.88652338 Ry
     estimated scf accuracy    <       0.00000618 Ry

     total magnetization       =     0.00 Bohr mag/cell
     absolute magnetization    =     0.00 Bohr mag/cell

     iteration # 58     ecut=    70.00 Ry     beta= 0.70
     Davidson diagonalization with overlap
     ethr =  1.81E-09,  avg # of iterations =  2.0

     negative rho (up, down):  1.032E-03 4.045E-03

     total cpu time spent up to now is     5972.2 secs

     total energy              =    -951.88652295 Ry
     Harris-Foulkes estimate   =    -951.88652351 Ry
     estimated scf accuracy    <       0.00000839 Ry

     total magnetization       =    -0.00 Bohr mag/cell
     absolute magnetization    =     0.00 Bohr mag/cell

     iteration # 59     ecut=    70.00 Ry     beta= 0.70
     Davidson diagonalization with overlap
     ethr =  1.81E-09,  avg # of iterations =  2.0

     negative rho (up, down):  1.032E-03 6.356E-03

     total cpu time spent up to now is     6073.2 secs

     total energy              =    -951.88652310 Ry
     Harris-Foulkes estimate   =    -951.88652343 Ry
     estimated scf accuracy    <       0.00001871 Ry

     total magnetization       =    -0.00 Bohr mag/cell
     absolute magnetization    =     0.01 Bohr mag/cell

     iteration # 60     ecut=    70.00 Ry     beta= 0.70
     Davidson diagonalization with overlap
     ethr =  1.81E-09,  avg # of iterations =  1.5

     negative rho (up, down):  1.032E-03 7.920E-03

     total cpu time spent up to now is     6168.1 secs

     total energy              =    -951.88652264 Ry
     Harris-Foulkes estimate   =    -951.88652317 Ry
     estimated scf accuracy    <       0.00002286 Ry

     total magnetization       =    -0.00 Bohr mag/cell
     absolute magnetization    =     0.01 Bohr mag/cell

     iteration # 61     ecut=    70.00 Ry     beta= 0.70
     Davidson diagonalization with overlap
     ethr =  1.81E-09,  avg # of iterations =  1.5

     negative rho (up, down):  1.031E-03 7.068E-03

     total cpu time spent up to now is     6262.5 secs

     total energy              =    -951.88652213 Ry
     Harris-Foulkes estimate   =    -951.88652267 Ry
     estimated scf accuracy    <       0.00001360 Ry

     total magnetization       =     0.00 Bohr mag/cell
     absolute magnetization    =     0.01 Bohr mag/cell

     iteration # 62     ecut=    70.00 Ry     beta= 0.70
     Davidson diagonalization with overlap
     ethr =  1.81E-09,  avg # of iterations =  2.0

     negative rho (up, down):  1.032E-03 4.188E-03

     total cpu time spent up to now is     6364.0 secs

     total energy              =    -951.88652299 Ry
     Harris-Foulkes estimate   =    -951.88652279 Ry
     estimated scf accuracy    <       0.00000863 Ry

     total magnetization       =    -0.00 Bohr mag/cell
     absolute magnetization    =     0.00 Bohr mag/cell

     iteration # 63     ecut=    70.00 Ry     beta= 0.70
     Davidson diagonalization with overlap
     ethr =  1.81E-09,  avg # of iterations =  2.0

     negative rho (up, down):  1.032E-03 3.957E-03

     total cpu time spent up to now is     6461.1 secs

     total energy              =    -951.88652292 Ry
     Harris-Foulkes estimate   =    -951.88652325 Ry
     estimated scf accuracy    <       0.00001318 Ry

     total magnetization       =    -0.00 Bohr mag/cell
     absolute magnetization    =     0.00 Bohr mag/cell

     iteration # 64     ecut=    70.00 Ry     beta= 0.70
     Davidson diagonalization with overlap
     ethr =  1.81E-09,  avg # of iterations =  2.0

     negative rho (up, down):  1.032E-03 7.468E-03

     total cpu time spent up to now is     6559.5 secs

     total energy              =    -951.88652253 Ry
     Harris-Foulkes estimate   =    -951.88652323 Ry
     estimated scf accuracy    <       0.00003217 Ry

     total magnetization       =    -0.00 Bohr mag/cell
     absolute magnetization    =     0.01 Bohr mag/cell

     iteration # 65     ecut=    70.00 Ry     beta= 0.70
     Davidson diagonalization with overlap
     ethr =  1.81E-09,  avg # of iterations =  1.0

     negative rho (up, down):  1.033E-03 8.456E-03

     total cpu time spent up to now is     6654.1 secs

     total energy              =    -951.88652185 Ry
     Harris-Foulkes estimate   =    -951.88652254 Ry
     estimated scf accuracy    <       0.00003316 Ry

     total magnetization       =    -0.00 Bohr mag/cell
     absolute magnetization    =     0.01 Bohr mag/cell

     iteration # 66     ecut=    70.00 Ry     beta= 0.70
     Davidson diagonalization with overlap
     ethr =  1.81E-09,  avg # of iterations =  2.0

     negative rho (up, down):  1.032E-03 1.552E-02

     total cpu time spent up to now is     6758.9 secs

     total energy              =    -951.88651952 Ry
     Harris-Foulkes estimate   =    -951.88652349 Ry
     estimated scf accuracy    <       0.00010289 Ry

     total magnetization       =     0.00 Bohr mag/cell
     absolute magnetization    =     0.02 Bohr mag/cell

     iteration # 67     ecut=    70.00 Ry     beta= 0.70
     Davidson diagonalization with overlap
     ethr =  1.81E-09,  avg # of iterations =  2.0

     negative rho (up, down):  1.031E-03 1.129E-02

     total cpu time spent up to now is     6859.0 secs

     total energy              =    -951.88652064 Ry
     Harris-Foulkes estimate   =    -951.88652002 Ry
     estimated scf accuracy    <       0.00002442 Ry

     total magnetization       =     0.00 Bohr mag/cell
     absolute magnetization    =     0.01 Bohr mag/cell

     iteration # 68     ecut=    70.00 Ry     beta= 0.70
     Davidson diagonalization with overlap
     ethr =  1.81E-09,  avg # of iterations =  2.0

     negative rho (up, down):  1.032E-03 3.601E-03

     total cpu time spent up to now is     6962.3 secs

     total energy              =    -951.88652293 Ry
     Harris-Foulkes estimate   =    -951.88652144 Ry
     estimated scf accuracy    <       0.00000186 Ry

     total magnetization       =    -0.00 Bohr mag/cell
     absolute magnetization    =     0.00 Bohr mag/cell

     iteration # 69     ecut=    70.00 Ry     beta= 0.70
     Davidson diagonalization with overlap
     ethr =  8.63E-10,  avg # of iterations =  2.0

     negative rho (up, down):  1.032E-03 2.530E-03

     total cpu time spent up to now is     7062.1 secs

     total energy              =    -951.88652335 Ry
     Harris-Foulkes estimate   =    -951.88652321 Ry
     estimated scf accuracy    <       0.00000496 Ry

     total magnetization       =     0.00 Bohr mag/cell
     absolute magnetization    =     0.00 Bohr mag/cell

     iteration # 70     ecut=    70.00 Ry     beta= 0.70
     Davidson diagonalization with overlap
     ethr =  8.63E-10,  avg # of iterations =  1.5

     negative rho (up, down):  1.031E-03 4.266E-03

     total cpu time spent up to now is     7161.0 secs

     total energy              =    -951.88652325 Ry
     Harris-Foulkes estimate   =    -951.88652344 Ry
     estimated scf accuracy    <       0.00000959 Ry

     total magnetization       =    -0.00 Bohr mag/cell
     absolute magnetization    =     0.00 Bohr mag/cell

     iteration # 71     ecut=    70.00 Ry     beta= 0.70
     Davidson diagonalization with overlap
     ethr =  8.63E-10,  avg # of iterations =  1.0

     negative rho (up, down):  1.031E-03 4.747E-03

     total cpu time spent up to now is     7255.5 secs

     total energy              =    -951.88652273 Ry
     Harris-Foulkes estimate   =    -951.88652326 Ry
     estimated scf accuracy    <       0.00000858 Ry

     total magnetization       =    -0.00 Bohr mag/cell
     absolute magnetization    =     0.00 Bohr mag/cell

     iteration # 72     ecut=    70.00 Ry     beta= 0.70
     Davidson diagonalization with overlap
     ethr =  8.63E-10,  avg # of iterations =  2.0

     negative rho (up, down):  1.031E-03 2.253E-03

     total cpu time spent up to now is     7357.3 secs

     total energy              =    -951.88652332 Ry
     Harris-Foulkes estimate   =    -951.88652307 Ry
     estimated scf accuracy    <       0.00000273 Ry

     total magnetization       =    -0.00 Bohr mag/cell
     absolute magnetization    =     0.00 Bohr mag/cell

     iteration # 73     ecut=    70.00 Ry     beta= 0.70
     Davidson diagonalization with overlap
     ethr =  8.63E-10,  avg # of iterations =  2.5

     negative rho (up, down):  1.033E-03 5.465E-03

     total cpu time spent up to now is     7458.8 secs

     total energy              =    -951.88652218 Ry
     Harris-Foulkes estimate   =    -951.88652383 Ry
     estimated scf accuracy    <       0.00003222 Ry

     total magnetization       =     0.00 Bohr mag/cell
     absolute magnetization    =     0.01 Bohr mag/cell

     iteration # 74     ecut=    70.00 Ry     beta= 0.70
     Davidson diagonalization with overlap
     ethr =  8.63E-10,  avg # of iterations =  2.5

     negative rho (up, down):  1.032E-03 8.472E-03

     total cpu time spent up to now is     7558.9 secs

     total energy              =    -951.88652195 Ry
     Harris-Foulkes estimate   =    -951.88652249 Ry
     estimated scf accuracy    <       0.00003567 Ry

     total magnetization       =    -0.00 Bohr mag/cell
     absolute magnetization    =     0.01 Bohr mag/cell

     iteration # 75     ecut=    70.00 Ry     beta= 0.70
     Davidson diagonalization with overlap
     ethr =  8.63E-10,  avg # of iterations =  2.0

     negative rho (up, down):  1.032E-03 7.515E-03

     total cpu time spent up to now is     7654.9 secs

     total energy              =    -951.88652160 Ry
     Harris-Foulkes estimate   =    -951.88652201 Ry
     estimated scf accuracy    <       0.00002043 Ry

     total magnetization       =     0.00 Bohr mag/cell
     absolute magnetization    =     0.01 Bohr mag/cell

     iteration # 76     ecut=    70.00 Ry     beta= 0.70
     Davidson diagonalization with overlap
     ethr =  8.63E-10,  avg # of iterations =  2.5

     negative rho (up, down):  1.031E-03 2.829E-03

     total cpu time spent up to now is     7756.3 secs

     total energy              =    -951.88652322 Ry
     Harris-Foulkes estimate   =    -951.88652202 Ry
     estimated scf accuracy    <       0.00000197 Ry

     total magnetization       =    -0.00 Bohr mag/cell
     absolute magnetization    =     0.00 Bohr mag/cell

     iteration # 77     ecut=    70.00 Ry     beta= 0.70
     Davidson diagonalization with overlap
     ethr =  8.63E-10,  avg # of iterations =  1.0

     negative rho (up, down):  1.030E-03 2.443E-03

     total cpu time spent up to now is     7850.2 secs

     total energy              =    -951.88652324 Ry
     Harris-Foulkes estimate   =    -951.88652323 Ry
     estimated scf accuracy    <       0.00000172 Ry

     total magnetization       =     0.00 Bohr mag/cell
     absolute magnetization    =     0.00 Bohr mag/cell

     iteration # 78     ecut=    70.00 Ry     beta= 0.70
     Davidson diagonalization with overlap
     ethr =  7.94E-10,  avg # of iterations =  2.0

     negative rho (up, down):  1.029E-03 2.096E-03

     total cpu time spent up to now is     7945.6 secs

     total energy              =    -951.88652316 Ry
     Harris-Foulkes estimate   =    -951.88652339 Ry
     estimated scf accuracy    <       0.00000256 Ry

     total magnetization       =     0.00 Bohr mag/cell
     absolute magnetization    =     0.00 Bohr mag/cell

     iteration # 79     ecut=    70.00 Ry     beta= 0.70
     Davidson diagonalization with overlap
     ethr =  7.94E-10,  avg # of iterations =  2.0

     negative rho (up, down):  1.029E-03 3.542E-03

     total cpu time spent up to now is     8044.9 secs

     total energy              =    -951.88652326 Ry
     Harris-Foulkes estimate   =    -951.88652339 Ry
     estimated scf accuracy    <       0.00000681 Ry

     total magnetization       =    -0.00 Bohr mag/cell
     absolute magnetization    =     0.00 Bohr mag/cell

     iteration # 80     ecut=    70.00 Ry     beta= 0.70
     Davidson diagonalization with overlap
     ethr =  7.94E-10,  avg # of iterations =  1.5

     negative rho (up, down):  1.029E-03 4.763E-03

     total cpu time spent up to now is     8140.6 secs

     total energy              =    -951.88652311 Ry
     Harris-Foulkes estimate   =    -951.88652331 Ry
     estimated scf accuracy    <       0.00000893 Ry

     total magnetization       =     0.00 Bohr mag/cell
     absolute magnetization    =     0.00 Bohr mag/cell

     iteration # 81     ecut=    70.00 Ry     beta= 0.70
     Davidson diagonalization with overlap
     ethr =  7.94E-10,  avg # of iterations =  1.5

     negative rho (up, down):  1.029E-03 4.413E-03

     total cpu time spent up to now is     8234.8 secs

     total energy              =    -951.88652283 Ry
     Harris-Foulkes estimate   =    -951.88652312 Ry
     estimated scf accuracy    <       0.00000570 Ry

     total magnetization       =    -0.00 Bohr mag/cell
     absolute magnetization    =     0.00 Bohr mag/cell

     iteration # 82     ecut=    70.00 Ry     beta= 0.70
     Davidson diagonalization with overlap
     ethr =  7.94E-10,  avg # of iterations =  2.0

     negative rho (up, down):  1.028E-03 2.134E-03

     total cpu time spent up to now is     8335.9 secs

     total energy              =    -951.88652320 Ry
     Harris-Foulkes estimate   =    -951.88652311 Ry
     estimated scf accuracy    <       0.00000235 Ry

     total magnetization       =    -0.00 Bohr mag/cell
     absolute magnetization    =     0.00 Bohr mag/cell

     iteration # 83     ecut=    70.00 Ry     beta= 0.70
     Davidson diagonalization with overlap
     ethr =  7.94E-10,  avg # of iterations =  2.0

     negative rho (up, down):  1.029E-03 1.720E-03

     total cpu time spent up to now is     8432.4 secs

     total energy              =    -951.88652323 Ry
     Harris-Foulkes estimate   =    -951.88652331 Ry
     estimated scf accuracy    <       0.00000345 Ry

     total magnetization       =    -0.00 Bohr mag/cell
     absolute magnetization    =     0.00 Bohr mag/cell

     iteration # 84     ecut=    70.00 Ry     beta= 0.70
     Davidson diagonalization with overlap
     ethr =  7.94E-10,  avg # of iterations =  2.0

     negative rho (up, down):  1.029E-03 3.667E-03

     total cpu time spent up to now is     8529.3 secs

     total energy              =    -951.88652315 Ry
     Harris-Foulkes estimate   =    -951.88652331 Ry
     estimated scf accuracy    <       0.00000837 Ry

     total magnetization       =     0.00 Bohr mag/cell
     absolute magnetization    =     0.00 Bohr mag/cell

     iteration # 85     ecut=    70.00 Ry     beta= 0.70
     Davidson diagonalization with overlap
     ethr =  7.94E-10,  avg # of iterations =  1.0

     negative rho (up, down):  1.031E-03 4.074E-03

     total cpu time spent up to now is     8623.3 secs

     total energy              =    -951.88652305 Ry
     Harris-Foulkes estimate   =    -951.88652316 Ry
     estimated scf accuracy    <       0.00000796 Ry

     total magnetization       =     0.00 Bohr mag/cell
     absolute magnetization    =     0.00 Bohr mag/cell

     iteration # 86     ecut=    70.00 Ry     beta= 0.70
     Davidson diagonalization with overlap
     ethr =  7.94E-10,  avg # of iterations =  3.0

     negative rho (up, down):  1.031E-03 1.245E-02

     total cpu time spent up to now is     8728.3 secs

     total energy              =    -951.88652005 Ry
     Harris-Foulkes estimate   =    -951.88652406 Ry
     estimated scf accuracy    <       0.00007244 Ry

     total magnetization       =     0.00 Bohr mag/cell
     absolute magnetization    =     0.01 Bohr mag/cell

     iteration # 87     ecut=    70.00 Ry     beta= 0.70
     Davidson diagonalization with overlap
     ethr =  7.94E-10,  avg # of iterations =  3.0

     negative rho (up, down):  1.031E-03 5.720E-03

     total cpu time spent up to now is     8832.2 secs

     total energy              =    -951.88652266 Ry
     Harris-Foulkes estimate   =    -951.88652080 Ry
     estimated scf accuracy    <       0.00000323 Ry

     total magnetization       =    -0.00 Bohr mag/cell
     absolute magnetization    =     0.00 Bohr mag/cell

     iteration # 88     ecut=    70.00 Ry     beta= 0.70
     Davidson diagonalization with overlap
     ethr =  7.94E-10,  avg # of iterations =  2.0

     negative rho (up, down):  1.031E-03 2.218E-05

     Magnetic moment per site:
     atom:    1    charge:    0.2111    magn:   -0.0000    constr:    0.0000
     atom:    2    charge:    0.2116    magn:    0.0000    constr:    0.0000
     atom:    3    charge:    1.7155    magn:   -0.0000    constr:    0.0000
     atom:    4    charge:    1.7152    magn:    0.0000    constr:    0.0000
     atom:    5    charge:    1.7168    magn:   -0.0000    constr:    0.0000
     atom:    6    charge:    1.7146    magn:    0.0000    constr:    0.0000
     atom:    7    charge:    1.7168    magn:   -0.0000    constr:    0.0000
     atom:    8    charge:    1.7152    magn:    0.0000    constr:    0.0000
     atom:    9    charge:    1.7155    magn:   -0.0000    constr:    0.0000
     atom:   10    charge:    1.7177    magn:    0.0000    constr:    0.0000
     atom:   11    charge:    1.7156    magn:   -0.0000    constr:    0.0000
     atom:   12    charge:    1.7177    magn:    0.0000    constr:    0.0000
     atom:   13    charge:    1.7156    magn:   -0.0000    constr:    0.0000
     atom:   14    charge:    1.7176    magn:    0.0000    constr:    0.0000
     atom:   15    charge:    1.7118    magn:   -0.0000    constr:    0.0000
     atom:   16    charge:    1.7114    magn:    0.0000    constr:    0.0000
     atom:   17    charge:    1.7206    magn:   -0.0000    constr:    0.0000
     atom:   18    charge:    1.7114    magn:    0.0000    constr:    0.0000
     atom:   19    charge:    1.7118    magn:   -0.0000    constr:    0.0000
     atom:   20    charge:    1.7175    magn:    0.0000    constr:    0.0000
     atom:   21    charge:    1.7156    magn:   -0.0000    constr:    0.0000
     atom:   22    charge:    1.7177    magn:    0.0000    constr:    0.0000
     atom:   23    charge:    1.7155    magn:   -0.0000    constr:    0.0000
     atom:   24    charge:    1.7152    magn:    0.0000    constr:    0.0000
     atom:   25    charge:    1.7118    magn:   -0.0000    constr:    0.0000
     atom:   26    charge:    1.7114    magn:    0.0000    constr:    0.0000
     atom:   27    charge:    1.8182    magn:    0.0000    constr:    0.0000
     atom:   28    charge:   13.4047    magn:    0.0000    constr:    0.0000
     atom:   29    charge:    1.8182    magn:   -0.0000    constr:    0.0000
     atom:   30    charge:    1.7114    magn:    0.0000    constr:    0.0000
     atom:   31    charge:    1.7118    magn:   -0.0000    constr:    0.0000
     atom:   32    charge:    1.7152    magn:    0.0000    constr:    0.0000
     atom:   33    charge:    1.7168    magn:   -0.0000    constr:    0.0000
     atom:   34    charge:    1.7154    magn:    0.0000    constr:    0.0000
     atom:   35    charge:    1.7168    magn:   -0.0000    constr:    0.0000
     atom:   36    charge:    1.7146    magn:    0.0000    constr:    0.0000
     atom:   37    charge:    1.7206    magn:   -0.0000    constr:    0.0000
     atom:   38    charge:    1.7114    magn:    0.0000    constr:    0.0000
     atom:   39    charge:    1.8182    magn:    0.0000    constr:    0.0000
     atom:   40    charge:    1.7114    magn:    0.0000    constr:    0.0000
     atom:   41    charge:    1.7206    magn:   -0.0000    constr:    0.0000
     atom:   42    charge:    1.7146    magn:    0.0000    constr:    0.0000
     atom:   43    charge:    1.7168    magn:   -0.0000    constr:    0.0000
     atom:   44    charge:    1.7154    magn:    0.0000    constr:    0.0000
     atom:   45    charge:    1.7212    magn:   -0.0000    constr:    0.0000
     atom:   46    charge:    1.7154    magn:    0.0000    constr:    0.0000
     atom:   47    charge:    1.7168    magn:   -0.0000    constr:    0.0000
     atom:   48    charge:    1.7152    magn:    0.0000    constr:    0.0000
     atom:   49    charge:    1.7118    magn:   -0.0000    constr:    0.0000
     atom:   50    charge:    1.7175    magn:    0.0000    constr:    0.0000
     atom:   51    charge:    1.7118    magn:   -0.0000    constr:    0.0000
     atom:   52    charge:    1.7152    magn:    0.0000    constr:    0.0000

     total cpu time spent up to now is     8929.2 secs

     End of self-consistent calculation

 ------ SPIN UP ------------


          k = 0.0000 0.0000 0.0000 ( 87777 PWs)   bands (ev):

  -107.9175 -69.0861 -69.0859 -67.0017 -19.8262 -19.0069 -19.0066 -18.8881
   -18.8880 -18.8032 -18.7356 -17.1630 -17.1626 -17.1280 -17.0789 -17.0787
   -16.7529 -16.3119 -16.3119 -16.1653 -16.1653 -16.1519 -15.6695 -14.3103
   -14.3101 -14.1496 -14.0160 -14.0159 -13.5137 -13.1281 -13.1281 -13.0765
   -12.9004 -12.9004 -12.5002 -12.0753 -12.0752 -11.7118 -11.5677 -11.5677
   -10.9338 -10.4314 -10.4313  -9.5768  -9.3652  -9.3652  -9.2261  -9.2111
    -9.2111  -9.1963  -8.9522  -8.9522  -8.5924  -8.5924  -8.4569  -7.9422
    -7.9014  -7.8452  -7.8445  -7.6633  -7.5411  -7.5410  -7.4479  -7.4479
    -6.8457  -6.8211  -6.8211  -6.7521  -6.6967  -6.6187  -6.6187  -6.5549
    -6.5499  -6.5498  -6.5163  -6.4920  -6.4246  -6.4246  -6.3772  -6.2887
    -6.2886  -5.5462  -5.5461  -5.0302  -4.9491  -4.8420  -4.8420  -4.7574
    -4.7159  -4.7157  -4.4277  -4.3982  -4.3981  -3.8359  -3.8357  -3.7640
    -3.7584  -3.7583  -3.7295  -3.4191  -3.4187  -3.3507  -1.8913  -1.8058
    -1.8056  -1.5898  -1.5892  -1.1571   0.1080   0.1084   0.9049   0.9633
     0.9635   1.2131   1.2134   1.5500   2.4981   2.8034   2.8037   2.8529
     3.0406   3.0411   3.4220   3.6097   3.6108   3.7405   3.7435   3.7674
     3.8048   3.9725

     occupation numbers 
     1.0000   1.0000   1.0000   1.0000   1.0000   1.0000   1.0000   1.0000
     1.0000   1.0000   1.0000   1.0000   1.0000   1.0000   1.0000   1.0000
     1.0000   1.0000   1.0000   1.0000   1.0000   1.0000   1.0000   1.0000
     1.0000   1.0000   1.0000   1.0000   1.0000   1.0000   1.0000   1.0000
     1.0000   1.0000   1.0000   1.0000   1.0000   1.0000   1.0000   1.0000
     1.0000   1.0000   1.0000   1.0000   1.0000   1.0000   1.0000   1.0000
     1.0000   1.0000   1.0000   1.0000   1.0000   1.0000   1.0000   1.0000
     1.0000   1.0000   1.0000   1.0000   1.0000   1.0000   1.0000   1.0000
     1.0000   1.0000   1.0000   1.0000   1.0000   1.0000   1.0000   1.0000
     1.0000   1.0000   1.0000   1.0000   1.0000   1.0000   1.0000   1.0000
     1.0000   1.0000   1.0000   1.0000   1.0000   1.0000   1.0000   1.0000
     1.0000   1.0000   1.0000   1.0000   1.0000   1.0000   1.0000   1.0000
     1.0000   1.0000   1.0000   1.0000   1.0000   1.0000   1.0000   1.0000
     1.0000   1.0000   1.0000   1.0000   0.0000   0.0000   0.0000   0.0000
     0.0000   0.0000   0.0000   0.0000   0.0000   0.0000   0.0000   0.0000
     0.0000   0.0000   0.0000   0.0000   0.0000   0.0000   0.0000   0.0000
     0.0000   0.0000

 ------ SPIN DOWN ----------


          k = 0.0000 0.0000 0.0000 ( 87777 PWs)   bands (ev):

  -107.9175 -69.0861 -69.0858 -67.0017 -19.8262 -19.0069 -19.0066 -18.8881
   -18.8880 -18.8032 -18.7356 -17.1630 -17.1626 -17.1280 -17.0789 -17.0787
   -16.7529 -16.3119 -16.3119 -16.1653 -16.1653 -16.1519 -15.6695 -14.3103
   -14.3101 -14.1496 -14.0160 -14.0159 -13.5137 -13.1281 -13.1281 -13.0765
   -12.9004 -12.9004 -12.5002 -12.0753 -12.0752 -11.7118 -11.5677 -11.5677
   -10.9338 -10.4314 -10.4313  -9.5768  -9.3652  -9.3652  -9.2261  -9.2111
    -9.2111  -9.1963  -8.9522  -8.9522  -8.5924  -8.5924  -8.4569  -7.9422
    -7.9014  -7.8452  -7.8444  -7.6633  -7.5411  -7.5410  -7.4479  -7.4479
    -6.8457  -6.8211  -6.8211  -6.7521  -6.6967  -6.6187  -6.6187  -6.5549
    -6.5499  -6.5498  -6.5163  -6.4920  -6.4246  -6.4246  -6.3772  -6.2887
    -6.2886  -5.5462  -5.5461  -5.0302  -4.9491  -4.8420  -4.8420  -4.7574
    -4.7159  -4.7157  -4.4277  -4.3982  -4.3981  -3.8359  -3.8357  -3.7640
    -3.7584  -3.7583  -3.7295  -3.4191  -3.4187  -3.3507  -1.8913  -1.8058
    -1.8056  -1.5898  -1.5892  -1.1571   0.1080   0.1084   0.9049   0.9633
     0.9635   1.2131   1.2134   1.5500   2.4980   2.8034   2.8036   2.8529
     3.0406   3.0411   3.4220   3.6096   3.6107   3.7403   3.7433   3.7674
     3.8048   3.9724

     occupation numbers 
     1.0000   1.0000   1.0000   1.0000   1.0000   1.0000   1.0000   1.0000
     1.0000   1.0000   1.0000   1.0000   1.0000   1.0000   1.0000   1.0000
     1.0000   1.0000   1.0000   1.0000   1.0000   1.0000   1.0000   1.0000
     1.0000   1.0000   1.0000   1.0000   1.0000   1.0000   1.0000   1.0000
     1.0000   1.0000   1.0000   1.0000   1.0000   1.0000   1.0000   1.0000
     1.0000   1.0000   1.0000   1.0000   1.0000   1.0000   1.0000   1.0000
     1.0000   1.0000   1.0000   1.0000   1.0000   1.0000   1.0000   1.0000
     1.0000   1.0000   1.0000   1.0000   1.0000   1.0000   1.0000   1.0000
     1.0000   1.0000   1.0000   1.0000   1.0000   1.0000   1.0000   1.0000
     1.0000   1.0000   1.0000   1.0000   1.0000   1.0000   1.0000   1.0000
     1.0000   1.0000   1.0000   1.0000   1.0000   1.0000   1.0000   1.0000
     1.0000   1.0000   1.0000   1.0000   1.0000   1.0000   1.0000   1.0000
     1.0000   1.0000   1.0000   1.0000   1.0000   1.0000   1.0000   1.0000
     1.0000   1.0000   1.0000   1.0000   0.0000   0.0000   0.0000   0.0000
     0.0000   0.0000   0.0000   0.0000   0.0000   0.0000   0.0000   0.0000
     0.0000   0.0000   0.0000   0.0000   0.0000   0.0000   0.0000   0.0000
     0.0000   0.0000

     the Fermi energy is    -0.3731 ev

!    total energy              =    -951.88652286 Ry
     Harris-Foulkes estimate   =    -951.88652285 Ry
     estimated scf accuracy    <       0.00000089 Ry

     The total energy is the sum of the following terms:

     one-electron contribution =   -2962.58458852 Ry
     hartree contribution      =    1523.92953241 Ry
     xc contribution           =    -265.71319459 Ry
     ewald contribution        =     752.48172785 Ry
     smearing contrib. (-TS)   =       0.00000000 Ry

     total magnetization       =    -0.00 Bohr mag/cell
     absolute magnetization    =     0.00 Bohr mag/cell

     convergence has been achieved in  88 iterations

     Writing output data file distance-4.0.save/

     init_run     :     76.75s CPU     78.03s WALL (       1 calls)
     electrons    :   8697.67s CPU   8850.22s WALL (       1 calls)

     Called by init_run:
     wfcinit      :     42.64s CPU     42.90s WALL (       1 calls)
     wfcinit:atom :      0.04s CPU      0.07s WALL (       2 calls)
     wfcinit:wfcr :     42.22s CPU     42.42s WALL (       2 calls)
     potinit      :     14.21s CPU     14.64s WALL (       1 calls)
     hinit0       :     11.42s CPU     11.46s WALL (       1 calls)

     Called by electrons:
     c_bands      :   5476.53s CPU   5507.40s WALL (      88 calls)
     sum_band     :   1868.31s CPU   1918.67s WALL (      88 calls)
     v_of_rho     :    649.78s CPU    677.99s WALL (      89 calls)
     v_h          :      6.86s CPU      7.05s WALL (      89 calls)
     v_xc         :    642.92s CPU    670.94s WALL (      89 calls)
     newd         :    654.47s CPU    697.27s WALL (      89 calls)
     mix_rho      :     42.64s CPU     43.33s WALL (      88 calls)

     Called by c_bands:
     init_us_2    :     16.40s CPU     16.45s WALL (     354 calls)
     cegterg      :   5432.27s CPU   5462.89s WALL (     176 calls)

     Called by sum_band:
     sum_band:bec :      0.14s CPU      0.15s WALL (     176 calls)
     addusdens    :   1154.46s CPU   1200.49s WALL (      88 calls)

     Called by *egterg:
     h_psi        :   2852.03s CPU   2871.78s WALL (     601 calls)
     s_psi        :    961.62s CPU    962.45s WALL (     601 calls)
     g_psi        :      2.94s CPU      2.95s WALL (     423 calls)
     cdiaghg      :     36.92s CPU     36.96s WALL (     599 calls)
     cegterg:over :    640.43s CPU    641.08s WALL (     423 calls)
     cegterg:upda :    379.09s CPU    381.72s WALL (     423 calls)
     cegterg:last :    296.91s CPU    297.16s WALL (     176 calls)

     Called by h_psi:
     h_psi:pot    :   2848.43s CPU   2864.93s WALL (     601 calls)
     h_psi:calbec :    958.99s CPU    959.83s WALL (     601 calls)
     vloc_psi     :    929.05s CPU    943.89s WALL (     601 calls)
     add_vuspsi   :    960.38s CPU    961.22s WALL (     601 calls)

     General routines
     calbec       :   1395.36s CPU   1396.55s WALL (     777 calls)
     fft          :    375.25s CPU    386.78s WALL (    6669 calls)
     ffts         :      6.34s CPU      6.58s WALL (     354 calls)
     fftw         :    999.55s CPU   1016.05s WALL (  123630 calls)
     interpolate  :     15.31s CPU     15.75s WALL (     178 calls)

     Parallel routines
     fft_scatt_xy :    252.51s CPU    255.50s WALL (  130653 calls)
     fft_scatt_yz :    455.39s CPU    476.30s WALL (  130653 calls)

     PWSCF        :      2h26m CPU      2h28m WALL


   This run was terminated on:   4:36:59  23Dec2022            

=------------------------------------------------------------------------------=
   JOB DONE.
=------------------------------------------------------------------------------=
