
     Program PWSCF v.6.4.1 starts on 23Dec2022 at  9:24: 5 

     This program is part of the open-source Quantum ESPRESSO suite
     for quantum simulation of materials; please cite
         "P. Giannozzi et al., J. Phys.:Condens. Matter 21 395502 (2009);
         "P. Giannozzi et al., J. Phys.:Condens. Matter 29 465901 (2017);
          URL http://www.quantum-espresso.org", 
     in publications or presentations arising from this work. More details at
     http://www.quantum-espresso.org/quote

     Parallel version (MPI), running on     6 processors

     MPI processes distributed on     1 nodes
     R & G space division:  proc/nbgrp/npool/nimage =       6
     Reading input from distance-2.8.in

     Current dimensions of program PWSCF are:
     Max number of different atomic species (ntypx) = 10
     Max number of k-points (npk) =  40000
     Max angular momentum in pseudopotentials (lmaxx) =  3

     IMPORTANT: XC functional enforced from input :
     Exchange-correlation      = RVV10 ( 1  4 13  4 3 0)
     Any further DFT definition will be discarded
     Please, verify this is what you really want

               file H.pbe-rrkjus.UPF: wavefunction(s)  1S renormalized

     Subspace diagonalization in iterative solution of the eigenvalue problem:
     a serial algorithm will be used


     Parallelization info
     --------------------
     sticks:   dense  smooth     PW     G-vecs:    dense   smooth      PW
     Min        3051    1746    432               270999   117096   14629
     Max        3053    1747    437               271001   117099   14630
     Sum       18313   10477   2611              1626001   702581   87777



     bravais-lattice index     =            4
     lattice parameter (alat)  =      23.2937  a.u.
     unit-cell volume          =    8879.8548 (a.u.)^3
     number of atoms/cell      =           52
     number of atomic types    =            3
     number of electrons       =       216.00
     number of Kohn-Sham states=          130
     kinetic-energy cutoff     =      70.0000  Ry
     charge density cutoff     =     490.0000  Ry
     convergence threshold     =      1.0E-06
     mixing beta               =       0.7000
     number of iterations used =            8  plain     mixing
     Exchange-correlation      = RVV10 ( 1  4 13  4 3 0)

     celldm(1)=  23.293684  celldm(2)=   0.000000  celldm(3)=   0.811261
     celldm(4)=   0.000000  celldm(5)=   0.000000  celldm(6)=   0.000000

     crystal axes: (cart. coord. in units of alat)
               a(1) = (   1.000000   0.000000   0.000000 )  
               a(2) = (  -0.500000   0.866025   0.000000 )  
               a(3) = (   0.000000   0.000000   0.811261 )  

     reciprocal axes: (cart. coord. in units 2 pi/alat)
               b(1) = (  1.000000  0.577350 -0.000000 )  
               b(2) = (  0.000000  1.154701  0.000000 )  
               b(3) = (  0.000000 -0.000000  1.232649 )  


     PseudoPot. # 1 for H  read from file:
     /home/cristian/Escritorio/Proyecto_Grafeno/pseudopotenciales/H.pbe-rrkjus.UPF
     MD5 check sum: 7cc9d459525c9a0585f487a71c3c9563
     Pseudo is Ultrasoft, Zval =  1.0
     Generated by new atomic code, or converted to UPF format
     Using radial grid of 1061 points,  2 beta functions with: 
                l(1) =   0
                l(2) =   0
     Q(r) pseudized with 0 coefficients 


     PseudoPot. # 2 for C  read from file:
     /home/cristian/Escritorio/Proyecto_Grafeno/pseudopotenciales/C.pbe-n-rrkjus_psl.1.0.0.UPF
     MD5 check sum: 1fdd950c42eb37d8afe3dd2f8d12311e
     Pseudo is Ultrasoft + core correction, Zval =  4.0
     Generated using "atomic" code by A. Dal Corso v.6.3MaX
     Using radial grid of 1073 points,  4 beta functions with: 
                l(1) =   0
                l(2) =   0
                l(3) =   1
                l(4) =   1
     Q(r) pseudized with 0 coefficients 


     PseudoPot. # 3 for Ni read from file:
     /home/cristian/Escritorio/Proyecto_Grafeno/pseudopotenciales/Ni.pbe-spn-rrkjus_psl.1.0.0.UPF
     MD5 check sum: 8b3fc9aac6dafe35f580d41bb18c3945
     Pseudo is Ultrasoft + core correction, Zval = 18.0
     Generated using "atomic" code by A. Dal Corso v.6.3
     Using radial grid of 1195 points,  6 beta functions with: 
                l(1) =   0
                l(2) =   0
                l(3) =   1
                l(4) =   1
                l(5) =   2
                l(6) =   2
     Q(r) pseudized with 0 coefficients 


     vdW kernel table read from file rVV10_kernel_table
     MD5 check sum: b8e2538accc0c0b3206b45ba4daaba6c

     atomic species   valence    mass     pseudopotential
        H              1.00     1.00794     H ( 1.00)
        C              4.00    12.01070     C ( 1.00)
        Ni            18.00    58.69340     Ni( 1.00)

     Starting magnetic structure 
     atomic species   magnetization
        H            0.500
        C            0.300
        Ni           0.800

     No symmetry found


                                    s                        frac. trans.

      isym =  1     identity                                     

 cryst.   s( 1) = (     1          0          0      )
                  (     0          1          0      )
                  (     0          0          1      )

 cart.    s( 1) = (  1.0000000  0.0000000  0.0000000 )
                  (  0.0000000  1.0000000  0.0000000 )
                  (  0.0000000  0.0000000  1.0000000 )


     point group C_1 (1)    
     there are  1 classes
     the character table:

       E    
A      1.00

     the symmetry operations in each class and the name of the first element:

     E        1
          identity                                               

   Cartesian axes

     site n.     atom                  positions (alat units)
         1           H   tau(   1) = (   0.2500000   0.4907477   0.2271531  )
         2           H   tau(   2) = (   0.2500000   0.4907477   0.2881658  )
         3           C   tau(   3) = (   0.0000000   0.0000000   0.0000000  )
         4           C   tau(   4) = (   0.0000000   0.1154701   0.0000000  )
         5           C   tau(   5) = (  -0.1000000   0.1732051   0.0000000  )
         6           C   tau(   6) = (  -0.1000000   0.2886751   0.0000000  )
         7           C   tau(   7) = (  -0.2000000   0.3464102   0.0000000  )
         8           C   tau(   8) = (  -0.2000000   0.4618802   0.0000000  )
         9           C   tau(   9) = (  -0.3000000   0.5196152   0.0000000  )
        10           C   tau(  10) = (  -0.3000000   0.6350853   0.0000000  )
        11           C   tau(  11) = (  -0.4000000   0.6928203   0.0000000  )
        12           C   tau(  12) = (  -0.4000000   0.8082904   0.0000000  )
        13           C   tau(  13) = (   0.2000000   0.0000000   0.0000000  )
        14           C   tau(  14) = (   0.2000000   0.1154701   0.0000000  )
        15           C   tau(  15) = (   0.1000000   0.1732051   0.0000000  )
        16           C   tau(  16) = (   0.1000000   0.2886751   0.0000000  )
        17           C   tau(  17) = (   0.0000000   0.3464102   0.0000000  )
        18           C   tau(  18) = (   0.0000000   0.4618802   0.0000000  )
        19           C   tau(  19) = (  -0.1000000   0.5196152   0.0000000  )
        20           C   tau(  20) = (  -0.1000000   0.6350853   0.0000000  )
        21           C   tau(  21) = (  -0.2000000   0.6928203   0.0000000  )
        22           C   tau(  22) = (  -0.2000000   0.8082904   0.0000000  )
        23           C   tau(  23) = (   0.4000000   0.0000000   0.0000000  )
        24           C   tau(  24) = (   0.4000000   0.1154701   0.0000000  )
        25           C   tau(  25) = (   0.3000000   0.1732051   0.0000000  )
        26           C   tau(  26) = (   0.3000000   0.2886751   0.0000000  )
        27           C   tau(  27) = (   0.2000000   0.3464102   0.0000000  )
        28           Ni  tau(  28) = (   0.2000000   0.4618802   0.0000000  )
        29           C   tau(  29) = (   0.1000000   0.5196152   0.0000000  )
        30           C   tau(  30) = (   0.1000000   0.6350853   0.0000000  )
        31           C   tau(  31) = (   0.0000000   0.6928203   0.0000000  )
        32           C   tau(  32) = (   0.0000000   0.8082904   0.0000000  )
        33           C   tau(  33) = (   0.6000000   0.0000000   0.0000000  )
        34           C   tau(  34) = (   0.6000000   0.1154701   0.0000000  )
        35           C   tau(  35) = (   0.5000000   0.1732051   0.0000000  )
        36           C   tau(  36) = (   0.5000000   0.2886751   0.0000000  )
        37           C   tau(  37) = (   0.4000000   0.3464102   0.0000000  )
        38           C   tau(  38) = (   0.4000000   0.4618802   0.0000000  )
        39           C   tau(  39) = (   0.3000000   0.5196152   0.0000000  )
        40           C   tau(  40) = (   0.3000000   0.6350853   0.0000000  )
        41           C   tau(  41) = (   0.2000000   0.6928203   0.0000000  )
        42           C   tau(  42) = (   0.2000000   0.8082904   0.0000000  )
        43           C   tau(  43) = (   0.8000000   0.0000000   0.0000000  )
        44           C   tau(  44) = (   0.8000000   0.1154701   0.0000000  )
        45           C   tau(  45) = (   0.7000000   0.1732051   0.0000000  )
        46           C   tau(  46) = (   0.7000000   0.2886751   0.0000000  )
        47           C   tau(  47) = (   0.6000000   0.3464102   0.0000000  )
        48           C   tau(  48) = (   0.6000000   0.4618802   0.0000000  )
        49           C   tau(  49) = (   0.5000000   0.5196152   0.0000000  )
        50           C   tau(  50) = (   0.5000000   0.6350853   0.0000000  )
        51           C   tau(  51) = (   0.4000000   0.6928203   0.0000000  )
        52           C   tau(  52) = (   0.4000000   0.8082904   0.0000000  )

   Crystallographic axes

     site n.     atom                  positions (cryst. coord.)
         1           H   tau(   1) = (  0.5333333  0.5666667  0.2800000  )
         2           H   tau(   2) = (  0.5333333  0.5666667  0.3552072  )
         3           C   tau(   3) = (  0.0000000  0.0000000  0.0000000  )
         4           C   tau(   4) = (  0.0666667  0.1333333  0.0000000  )
         5           C   tau(   5) = (  0.0000000  0.2000000  0.0000000  )
         6           C   tau(   6) = (  0.0666667  0.3333333  0.0000000  )
         7           C   tau(   7) = (  0.0000000  0.4000000  0.0000000  )
         8           C   tau(   8) = (  0.0666667  0.5333333  0.0000000  )
         9           C   tau(   9) = (  0.0000000  0.6000000  0.0000000  )
        10           C   tau(  10) = (  0.0666667  0.7333333  0.0000000  )
        11           C   tau(  11) = (  0.0000000  0.8000000  0.0000000  )
        12           C   tau(  12) = (  0.0666667  0.9333333  0.0000000  )
        13           C   tau(  13) = (  0.2000000  0.0000000  0.0000000  )
        14           C   tau(  14) = (  0.2666667  0.1333333  0.0000000  )
        15           C   tau(  15) = (  0.2000000  0.2000000  0.0000000  )
        16           C   tau(  16) = (  0.2666667  0.3333333  0.0000000  )
        17           C   tau(  17) = (  0.2000000  0.4000000  0.0000000  )
        18           C   tau(  18) = (  0.2666667  0.5333333  0.0000000  )
        19           C   tau(  19) = (  0.2000000  0.6000000  0.0000000  )
        20           C   tau(  20) = (  0.2666667  0.7333333  0.0000000  )
        21           C   tau(  21) = (  0.2000000  0.8000000  0.0000000  )
        22           C   tau(  22) = (  0.2666667  0.9333333  0.0000000  )
        23           C   tau(  23) = (  0.4000000  0.0000000  0.0000000  )
        24           C   tau(  24) = (  0.4666667  0.1333333  0.0000000  )
        25           C   tau(  25) = (  0.4000000  0.2000000  0.0000000  )
        26           C   tau(  26) = (  0.4666667  0.3333333  0.0000000  )
        27           C   tau(  27) = (  0.4000000  0.4000000  0.0000000  )
        28           Ni  tau(  28) = (  0.4666667  0.5333333  0.0000000  )
        29           C   tau(  29) = (  0.4000000  0.6000000  0.0000000  )
        30           C   tau(  30) = (  0.4666667  0.7333333  0.0000000  )
        31           C   tau(  31) = (  0.4000000  0.8000000  0.0000000  )
        32           C   tau(  32) = (  0.4666667  0.9333333  0.0000000  )
        33           C   tau(  33) = (  0.6000000  0.0000000  0.0000000  )
        34           C   tau(  34) = (  0.6666667  0.1333333  0.0000000  )
        35           C   tau(  35) = (  0.6000000  0.2000000  0.0000000  )
        36           C   tau(  36) = (  0.6666667  0.3333333  0.0000000  )
        37           C   tau(  37) = (  0.6000000  0.4000000  0.0000000  )
        38           C   tau(  38) = (  0.6666667  0.5333333  0.0000000  )
        39           C   tau(  39) = (  0.6000000  0.6000000  0.0000000  )
        40           C   tau(  40) = (  0.6666667  0.7333333  0.0000000  )
        41           C   tau(  41) = (  0.6000000  0.8000000  0.0000000  )
        42           C   tau(  42) = (  0.6666667  0.9333333  0.0000000  )
        43           C   tau(  43) = (  0.8000000  0.0000000  0.0000000  )
        44           C   tau(  44) = (  0.8666667  0.1333333  0.0000000  )
        45           C   tau(  45) = (  0.8000000  0.2000000  0.0000000  )
        46           C   tau(  46) = (  0.8666667  0.3333333  0.0000000  )
        47           C   tau(  47) = (  0.8000000  0.4000000  0.0000000  )
        48           C   tau(  48) = (  0.8666667  0.5333333  0.0000000  )
        49           C   tau(  49) = (  0.8000000  0.6000000  0.0000000  )
        50           C   tau(  50) = (  0.8666667  0.7333333  0.0000000  )
        51           C   tau(  51) = (  0.8000000  0.8000000  0.0000000  )
        52           C   tau(  52) = (  0.8666667  0.9333333  0.0000000  )

     number of k points=     1  Marzari-Vanderbilt smearing, width (Ry)=  0.0010
                       cart. coord. in units 2pi/alat
        k(    1) = (   0.0000000   0.0000000   0.0000000), wk =   1.0000000

                       cryst. coord.
        k(    1) = (   0.0000000   0.0000000   0.0000000), wk =   1.0000000

     Dense  grid:  1626001 G-vectors     FFT dimensions: ( 180, 180, 135)

     Smooth grid:   702581 G-vectors     FFT dimensions: ( 125, 125, 108)

     Dynamical RAM for                 wfc:      29.03 MB

     Dynamical RAM for     wfc (w. buffer):      87.10 MB

     Dynamical RAM for           str. fact:      12.41 MB

     Dynamical RAM for           local pot:       0.00 MB

     Dynamical RAM for          nlocal pot:      92.46 MB

     Dynamical RAM for                qrad:      19.73 MB

     Dynamical RAM for          rho,v,vnew:      58.92 MB

     Dynamical RAM for               rhoin:      19.64 MB

     Dynamical RAM for            rho*nmix:     132.32 MB

     Dynamical RAM for           G-vectors:      16.40 MB

     Dynamical RAM for          h,s,v(r/c):      12.38 MB

     Dynamical RAM for          <psi|beta>:       0.82 MB

     Dynamical RAM for                 psi:     116.14 MB

     Dynamical RAM for                hpsi:     116.14 MB

     Dynamical RAM for                spsi:     116.14 MB

     Dynamical RAM for      wfcinit/wfcrot:      93.90 MB

     Dynamical RAM for           addusdens:     975.89 MB

     Estimated static dynamical RAM per process >     489.64 MB

     Estimated max dynamical RAM per process >       1.43 GB

     Estimated total dynamical RAM >       8.59 GB
     Generating pointlists ...
     new r_m :   0.0252 (alat units)  0.5862 (a.u.) for type    1
     new r_m :   0.0476 (alat units)  1.1095 (a.u.) for type    2
     new r_m :   0.0476 (alat units)  1.1095 (a.u.) for type    3

     Check: negative core charge=   -0.000002

     Initial potential from superposition of free atoms

     starting charge  215.80530, renormalised to  216.00000

     negative rho (up, down):  1.411E-04 1.522E-02


---------------------------------------------------------------------------------
Carrying out rVV10 run using the following parameters:
Nqs =      20    Nr_points =    1024   r_max =   100.000
b_value =  6.30000    beta =  0.00901
     q_mesh =  0.00010000  0.00030000  0.00058939  0.00100810
               0.00161396  0.00249058  0.00375900  0.00559430
               0.00824984  0.01209221  0.01765183  0.02569619
               0.03733578  0.05417739  0.07854596  0.11380545
               0.16482331  0.23864234  0.34545298  0.50000000

Gradients computed in Reciprocal space

---------------------------------------------------------------------------------


     Starting wfcs are  208 randomized atomic wfcs

     total cpu time spent up to now is       79.0 secs

     Self-consistent Calculation

     iteration #  1     ecut=    70.00 Ry     beta= 0.70
     Davidson diagonalization with overlap
     ethr =  1.00E-02,  avg # of iterations =  5.0

     negative rho (up, down):  2.700E-04 1.329E-02

     total cpu time spent up to now is      214.2 secs

     total energy              =    -946.77951349 Ry
     Harris-Foulkes estimate   =    -949.71412058 Ry
     estimated scf accuracy    <      14.06866033 Ry

     total magnetization       =     6.00 Bohr mag/cell
     absolute magnetization    =     6.74 Bohr mag/cell

     iteration #  2     ecut=    70.00 Ry     beta= 0.70
     Davidson diagonalization with overlap
     ethr =  6.51E-03,  avg # of iterations =  3.5

     negative rho (up, down):  5.507E-03 2.246E-01

     total cpu time spent up to now is      333.4 secs

     total energy              =    -947.91240044 Ry
     Harris-Foulkes estimate   =    -956.99499669 Ry
     estimated scf accuracy    <      34.04657946 Ry

     total magnetization       =     4.00 Bohr mag/cell
     absolute magnetization    =     6.85 Bohr mag/cell

     iteration #  3     ecut=    70.00 Ry     beta= 0.70
     Davidson diagonalization with overlap
     ethr =  6.51E-03,  avg # of iterations =  4.0

     negative rho (up, down):  9.285E-02 5.175E-01

     total cpu time spent up to now is      451.8 secs

     total energy              =    -953.77256381 Ry
     Harris-Foulkes estimate   =    -959.92066792 Ry
     estimated scf accuracy    <     461.07487832 Ry

     total magnetization       =     2.00 Bohr mag/cell
     absolute magnetization    =    32.47 Bohr mag/cell

     iteration #  4     ecut=    70.00 Ry     beta= 0.70
     Davidson diagonalization with overlap
     ethr =  6.51E-03,  avg # of iterations =  3.0

     negative rho (up, down):  7.227E-02 5.052E-01

     total cpu time spent up to now is      552.6 secs

     total energy              =    -948.32134165 Ry
     Harris-Foulkes estimate   =    -955.01850410 Ry
     estimated scf accuracy    <     183.03485505 Ry

     total magnetization       =     1.98 Bohr mag/cell
     absolute magnetization    =    21.37 Bohr mag/cell

     iteration #  5     ecut=    70.00 Ry     beta= 0.70
     Davidson diagonalization with overlap
     ethr =  6.51E-03,  avg # of iterations =  4.0

     negative rho (up, down):  1.385E-01 4.538E-01

     total cpu time spent up to now is      676.2 secs

     total energy              =    -949.57673436 Ry
     Harris-Foulkes estimate   =    -958.67441523 Ry
     estimated scf accuracy    <     438.63701775 Ry

     total magnetization       =     2.00 Bohr mag/cell
     absolute magnetization    =    31.74 Bohr mag/cell

     iteration #  6     ecut=    70.00 Ry     beta= 0.70
     Davidson diagonalization with overlap
     ethr =  6.51E-03,  avg # of iterations =  2.0

     negative rho (up, down):  9.059E-02 4.173E-01

     total cpu time spent up to now is      782.6 secs

     total energy              =    -948.95263481 Ry
     Harris-Foulkes estimate   =    -952.49467163 Ry
     estimated scf accuracy    <      79.66450708 Ry

     total magnetization       =     2.00 Bohr mag/cell
     absolute magnetization    =    14.18 Bohr mag/cell

     iteration #  7     ecut=    70.00 Ry     beta= 0.70
     Davidson diagonalization with overlap
     ethr =  6.51E-03,  avg # of iterations =  3.0

     negative rho (up, down):  3.361E-02 3.420E-01

     total cpu time spent up to now is      893.1 secs

     total energy              =    -951.18596886 Ry
     Harris-Foulkes estimate   =    -952.23067359 Ry
     estimated scf accuracy    <      46.95910586 Ry

     total magnetization       =     2.00 Bohr mag/cell
     absolute magnetization    =    10.99 Bohr mag/cell

     iteration #  8     ecut=    70.00 Ry     beta= 0.70
     Davidson diagonalization with overlap
     ethr =  6.51E-03,  avg # of iterations =  2.5

     negative rho (up, down):  4.912E-02 4.505E-01

     total cpu time spent up to now is     1000.4 secs

     total energy              =    -949.53433374 Ry
     Harris-Foulkes estimate   =    -954.76407095 Ry
     estimated scf accuracy    <     192.83835868 Ry

     total magnetization       =     0.00 Bohr mag/cell
     absolute magnetization    =    20.56 Bohr mag/cell

     iteration #  9     ecut=    70.00 Ry     beta= 0.70
     Davidson diagonalization with overlap
     ethr =  6.51E-03,  avg # of iterations =  2.0

     negative rho (up, down):  6.972E-02 3.271E-01

     total cpu time spent up to now is     1102.2 secs

     total energy              =    -951.65615200 Ry
     Harris-Foulkes estimate   =    -951.81919639 Ry
     estimated scf accuracy    <       7.46352899 Ry

     total magnetization       =    -0.00 Bohr mag/cell
     absolute magnetization    =     3.20 Bohr mag/cell

     iteration # 10     ecut=    70.00 Ry     beta= 0.70
     Davidson diagonalization with overlap
     ethr =  3.46E-03,  avg # of iterations =  1.5

     negative rho (up, down):  4.486E-02 2.324E-01

     total cpu time spent up to now is     1198.2 secs

     total energy              =    -951.76894692 Ry
     Harris-Foulkes estimate   =    -951.90900050 Ry
     estimated scf accuracy    <       5.55817667 Ry

     total magnetization       =     0.00 Bohr mag/cell
     absolute magnetization    =     2.97 Bohr mag/cell

     iteration # 11     ecut=    70.00 Ry     beta= 0.70
     Davidson diagonalization with overlap
     ethr =  2.57E-03,  avg # of iterations =  2.0

     negative rho (up, down):  2.493E-02 2.718E-01

     total cpu time spent up to now is     1293.8 secs

     total energy              =    -951.82598532 Ry
     Harris-Foulkes estimate   =    -951.93172102 Ry
     estimated scf accuracy    <       3.46139980 Ry

     total magnetization       =     0.00 Bohr mag/cell
     absolute magnetization    =     2.44 Bohr mag/cell

     iteration # 12     ecut=    70.00 Ry     beta= 0.70
     Davidson diagonalization with overlap
     ethr =  1.60E-03,  avg # of iterations =  1.5

     negative rho (up, down):  1.222E-02 3.001E-01

     total cpu time spent up to now is     1388.0 secs

     total energy              =    -951.84812412 Ry
     Harris-Foulkes estimate   =    -951.88654748 Ry
     estimated scf accuracy    <       1.06108270 Ry

     total magnetization       =     0.00 Bohr mag/cell
     absolute magnetization    =     1.50 Bohr mag/cell

     iteration # 13     ecut=    70.00 Ry     beta= 0.70
     Davidson diagonalization with overlap
     ethr =  4.91E-04,  avg # of iterations =  2.0

     negative rho (up, down):  1.954E-02 1.929E-01

     total cpu time spent up to now is     1485.7 secs

     total energy              =    -951.82654543 Ry
     Harris-Foulkes estimate   =    -951.91352763 Ry
     estimated scf accuracy    <       1.40394321 Ry

     total magnetization       =    -0.00 Bohr mag/cell
     absolute magnetization    =     1.22 Bohr mag/cell

     iteration # 14     ecut=    70.00 Ry     beta= 0.70
     Davidson diagonalization with overlap
     ethr =  4.91E-04,  avg # of iterations =  2.0

     negative rho (up, down):  3.025E-03 1.015E-01

     total cpu time spent up to now is     1581.7 secs

     total energy              =    -951.88127600 Ry
     Harris-Foulkes estimate   =    -951.88261281 Ry
     estimated scf accuracy    <       0.09194283 Ry

     total magnetization       =    -0.00 Bohr mag/cell
     absolute magnetization    =     0.39 Bohr mag/cell

     iteration # 15     ecut=    70.00 Ry     beta= 0.70
     Davidson diagonalization with overlap
     ethr =  4.26E-05,  avg # of iterations =  9.5

     negative rho (up, down):  6.238E-03 1.954E-01

     total cpu time spent up to now is     1693.7 secs

     total energy              =    -951.88498199 Ry
     Harris-Foulkes estimate   =    -951.89297632 Ry
     estimated scf accuracy    <       0.28831203 Ry

     total magnetization       =     0.00 Bohr mag/cell
     absolute magnetization    =     0.75 Bohr mag/cell

     iteration # 16     ecut=    70.00 Ry     beta= 0.70
     Davidson diagonalization with overlap
     ethr =  4.26E-05,  avg # of iterations =  3.0

     negative rho (up, down):  1.423E-03 2.695E-01

     total cpu time spent up to now is     1791.3 secs

     total energy              =    -951.89749146 Ry
     Harris-Foulkes estimate   =    -951.88998904 Ry
     estimated scf accuracy    <       0.19746475 Ry

     total magnetization       =     0.00 Bohr mag/cell
     absolute magnetization    =     0.72 Bohr mag/cell

     iteration # 17     ecut=    70.00 Ry     beta= 0.70
     Davidson diagonalization with overlap
     ethr =  4.26E-05,  avg # of iterations =  2.0

     negative rho (up, down):  2.696E-03 3.285E-01

     total cpu time spent up to now is     1889.3 secs

     total energy              =    -951.86107412 Ry
     Harris-Foulkes estimate   =    -951.90343703 Ry
     estimated scf accuracy    <       1.11638266 Ry

     total magnetization       =     0.12 Bohr mag/cell
     absolute magnetization    =     1.70 Bohr mag/cell

     iteration # 18     ecut=    70.00 Ry     beta= 0.70
     Davidson diagonalization with overlap
     ethr =  4.26E-05,  avg # of iterations =  3.0

     negative rho (up, down):  1.664E-03 2.297E-01

     total cpu time spent up to now is     1989.5 secs

     total energy              =    -951.88661155 Ry
     Harris-Foulkes estimate   =    -951.88014726 Ry
     estimated scf accuracy    <       0.01436385 Ry

     total magnetization       =    -0.00 Bohr mag/cell
     absolute magnetization    =     0.20 Bohr mag/cell

     iteration # 19     ecut=    70.00 Ry     beta= 0.70
     Davidson diagonalization with overlap
     ethr =  6.65E-06,  avg # of iterations =  3.5

     negative rho (up, down):  1.610E-03 1.858E-01

     total cpu time spent up to now is     2090.6 secs

     total energy              =    -951.88725227 Ry
     Harris-Foulkes estimate   =    -951.88719164 Ry
     estimated scf accuracy    <       0.03461956 Ry

     total magnetization       =     0.00 Bohr mag/cell
     absolute magnetization    =     0.31 Bohr mag/cell

     iteration # 20     ecut=    70.00 Ry     beta= 0.70
     Davidson diagonalization with overlap
     ethr =  6.65E-06,  avg # of iterations =  5.0

     negative rho (up, down):  1.385E-03 1.608E-01

     total cpu time spent up to now is     2187.5 secs

     total energy              =    -951.88741557 Ry
     Harris-Foulkes estimate   =    -951.88761843 Ry
     estimated scf accuracy    <       0.01515274 Ry

     total magnetization       =    -0.00 Bohr mag/cell
     absolute magnetization    =     0.21 Bohr mag/cell

     iteration # 21     ecut=    70.00 Ry     beta= 0.70
     Davidson diagonalization with overlap
     ethr =  6.65E-06,  avg # of iterations =  2.5

     negative rho (up, down):  5.529E-03 1.319E-01

     total cpu time spent up to now is     2290.0 secs

     total energy              =    -951.88257785 Ry
     Harris-Foulkes estimate   =    -951.89028783 Ry
     estimated scf accuracy    <       0.13257747 Ry

     total magnetization       =    -0.00 Bohr mag/cell
     absolute magnetization    =     0.35 Bohr mag/cell

     iteration # 22     ecut=    70.00 Ry     beta= 0.70
     Davidson diagonalization with overlap
     ethr =  6.65E-06,  avg # of iterations =  3.0

     negative rho (up, down):  2.565E-03 1.485E-01

     total cpu time spent up to now is     2398.2 secs

     total energy              =    -951.88951259 Ry
     Harris-Foulkes estimate   =    -951.88755224 Ry
     estimated scf accuracy    <       0.07334146 Ry

     total magnetization       =    -0.00 Bohr mag/cell
     absolute magnetization    =     0.39 Bohr mag/cell

     iteration # 23     ecut=    70.00 Ry     beta= 0.70
     Davidson diagonalization with overlap
     ethr =  6.65E-06,  avg # of iterations =  3.0

     negative rho (up, down):  6.262E-03 1.718E-01

     total cpu time spent up to now is     2500.6 secs

     total energy              =    -951.88671831 Ry
     Harris-Foulkes estimate   =    -951.89070428 Ry
     estimated scf accuracy    <       0.21014789 Ry

     total magnetization       =    -0.00 Bohr mag/cell
     absolute magnetization    =     0.61 Bohr mag/cell

     iteration # 24     ecut=    70.00 Ry     beta= 0.70
     Davidson diagonalization with overlap
     ethr =  6.65E-06,  avg # of iterations =  3.0

     negative rho (up, down):  5.961E-03 1.686E-01

     total cpu time spent up to now is     2601.2 secs

     total energy              =    -951.88570499 Ry
     Harris-Foulkes estimate   =    -951.88746060 Ry
     estimated scf accuracy    <       0.11932854 Ry

     total magnetization       =    -0.00 Bohr mag/cell
     absolute magnetization    =     0.47 Bohr mag/cell

     iteration # 25     ecut=    70.00 Ry     beta= 0.70
     Davidson diagonalization with overlap
     ethr =  6.65E-06,  avg # of iterations =  2.0

     negative rho (up, down):  4.072E-03 1.556E-01

     total cpu time spent up to now is     2696.8 secs

     total energy              =    -951.88598860 Ry
     Harris-Foulkes estimate   =    -951.88632266 Ry
     estimated scf accuracy    <       0.04696648 Ry

     total magnetization       =     0.00 Bohr mag/cell
     absolute magnetization    =     0.31 Bohr mag/cell

     iteration # 26     ecut=    70.00 Ry     beta= 0.70
     Davidson diagonalization with overlap
     ethr =  6.65E-06,  avg # of iterations =  2.5

     negative rho (up, down):  1.823E-03 1.373E-01

     total cpu time spent up to now is     2793.9 secs

     total energy              =    -951.88722780 Ry
     Harris-Foulkes estimate   =    -951.88651331 Ry
     estimated scf accuracy    <       0.00819278 Ry

     total magnetization       =    -0.00 Bohr mag/cell
     absolute magnetization    =     0.15 Bohr mag/cell

     iteration # 27     ecut=    70.00 Ry     beta= 0.70
     Davidson diagonalization with overlap
     ethr =  3.79E-06,  avg # of iterations =  4.0

     negative rho (up, down):  1.406E-03 1.065E-01

     total cpu time spent up to now is     2892.5 secs

     total energy              =    -951.88740599 Ry
     Harris-Foulkes estimate   =    -951.88752682 Ry
     estimated scf accuracy    <       0.00502371 Ry

     total magnetization       =    -0.00 Bohr mag/cell
     absolute magnetization    =     0.11 Bohr mag/cell

     iteration # 28     ecut=    70.00 Ry     beta= 0.70
     Davidson diagonalization with overlap
     ethr =  2.33E-06,  avg # of iterations =  4.0

     negative rho (up, down):  1.317E-03 1.365E-01

     total cpu time spent up to now is     2995.0 secs

     total energy              =    -951.88806365 Ry
     Harris-Foulkes estimate   =    -951.88818320 Ry
     estimated scf accuracy    <       0.02057926 Ry

     total magnetization       =    -0.00 Bohr mag/cell
     absolute magnetization    =     0.21 Bohr mag/cell

     iteration # 29     ecut=    70.00 Ry     beta= 0.70
     Davidson diagonalization with overlap
     ethr =  2.33E-06,  avg # of iterations =  3.0

     negative rho (up, down):  1.401E-03 1.598E-01

     total cpu time spent up to now is     3091.4 secs

     total energy              =    -951.88792399 Ry
     Harris-Foulkes estimate   =    -951.88811226 Ry
     estimated scf accuracy    <       0.01725807 Ry

     total magnetization       =    -0.00 Bohr mag/cell
     absolute magnetization    =     0.20 Bohr mag/cell

     iteration # 30     ecut=    70.00 Ry     beta= 0.70
     Davidson diagonalization with overlap
     ethr =  2.33E-06,  avg # of iterations =  1.5

     negative rho (up, down):  1.440E-03 1.674E-01

     total cpu time spent up to now is     3185.9 secs

     total energy              =    -951.88780006 Ry
     Harris-Foulkes estimate   =    -951.88792951 Ry
     estimated scf accuracy    <       0.01777996 Ry

     total magnetization       =     0.00 Bohr mag/cell
     absolute magnetization    =     0.20 Bohr mag/cell

     iteration # 31     ecut=    70.00 Ry     beta= 0.70
     Davidson diagonalization with overlap
     ethr =  2.33E-06,  avg # of iterations =  1.0

     negative rho (up, down):  1.554E-03 1.640E-01

     total cpu time spent up to now is     3279.9 secs

     total energy              =    -951.88766007 Ry
     Harris-Foulkes estimate   =    -951.88783412 Ry
     estimated scf accuracy    <       0.01707443 Ry

     total magnetization       =     0.00 Bohr mag/cell
     absolute magnetization    =     0.19 Bohr mag/cell

     iteration # 32     ecut=    70.00 Ry     beta= 0.70
     Davidson diagonalization with overlap
     ethr =  2.33E-06,  avg # of iterations =  2.0

     negative rho (up, down):  2.013E-03 1.661E-01

     total cpu time spent up to now is     3378.7 secs

     total energy              =    -951.88745027 Ry
     Harris-Foulkes estimate   =    -951.88801173 Ry
     estimated scf accuracy    <       0.02824787 Ry

     total magnetization       =    -0.00 Bohr mag/cell
     absolute magnetization    =     0.24 Bohr mag/cell

     iteration # 33     ecut=    70.00 Ry     beta= 0.70
     Davidson diagonalization with overlap
     ethr =  2.33E-06,  avg # of iterations =  4.5

     negative rho (up, down):  1.982E-03 1.448E-01

     total cpu time spent up to now is     3478.8 secs

     total energy              =    -951.88754867 Ry
     Harris-Foulkes estimate   =    -951.88768722 Ry
     estimated scf accuracy    <       0.01552336 Ry

     total magnetization       =     0.00 Bohr mag/cell
     absolute magnetization    =     0.17 Bohr mag/cell

     iteration # 34     ecut=    70.00 Ry     beta= 0.70
     Davidson diagonalization with overlap
     ethr =  2.33E-06,  avg # of iterations =  2.0

     negative rho (up, down):  1.507E-03 1.589E-01

     total cpu time spent up to now is     3575.2 secs

     total energy              =    -951.88808283 Ry
     Harris-Foulkes estimate   =    -951.88787853 Ry
     estimated scf accuracy    <       0.01543499 Ry

     total magnetization       =    -0.00 Bohr mag/cell
     absolute magnetization    =     0.19 Bohr mag/cell

     iteration # 35     ecut=    70.00 Ry     beta= 0.70
     Davidson diagonalization with overlap
     ethr =  2.33E-06,  avg # of iterations =  2.5

     negative rho (up, down):  1.733E-03 1.837E-01

     total cpu time spent up to now is     3672.2 secs

     total energy              =    -951.88752418 Ry
     Harris-Foulkes estimate   =    -951.88816428 Ry
     estimated scf accuracy    <       0.03052172 Ry

     total magnetization       =     0.00 Bohr mag/cell
     absolute magnetization    =     0.26 Bohr mag/cell

     iteration # 36     ecut=    70.00 Ry     beta= 0.70
     Davidson diagonalization with overlap
     ethr =  2.33E-06,  avg # of iterations =  2.0

     negative rho (up, down):  1.471E-03 1.745E-01

     total cpu time spent up to now is     3768.1 secs

     total energy              =    -951.88697944 Ry
     Harris-Foulkes estimate   =    -951.88765662 Ry
     estimated scf accuracy    <       0.01606654 Ry

     total magnetization       =     0.00 Bohr mag/cell
     absolute magnetization    =     0.19 Bohr mag/cell

     iteration # 37     ecut=    70.00 Ry     beta= 0.70
     Davidson diagonalization with overlap
     ethr =  2.33E-06,  avg # of iterations =  3.0

     negative rho (up, down):  1.159E-03 5.065E-02

     total cpu time spent up to now is     3869.8 secs

     total energy              =    -951.88790171 Ry
     Harris-Foulkes estimate   =    -951.88765039 Ry
     estimated scf accuracy    <       0.00243618 Ry

     total magnetization       =     0.00 Bohr mag/cell
     absolute magnetization    =     0.06 Bohr mag/cell

     iteration # 38     ecut=    70.00 Ry     beta= 0.70
     Davidson diagonalization with overlap
     ethr =  1.13E-06,  avg # of iterations =  6.0

     negative rho (up, down):  1.638E-03 1.841E-01

     total cpu time spent up to now is     3984.1 secs

     total energy              =    -951.88818293 Ry
     Harris-Foulkes estimate   =    -951.88903269 Ry
     estimated scf accuracy    <       0.04818229 Ry

     total magnetization       =    -0.00 Bohr mag/cell
     absolute magnetization    =     0.32 Bohr mag/cell

     iteration # 39     ecut=    70.00 Ry     beta= 0.70
     Davidson diagonalization with overlap
     ethr =  1.13E-06,  avg # of iterations =  7.0

     negative rho (up, down):  1.873E-03 1.975E-01

     total cpu time spent up to now is     4085.4 secs

     total energy              =    -951.88804641 Ry
     Harris-Foulkes estimate   =    -951.88831611 Ry
     estimated scf accuracy    <       0.04653748 Ry

     total magnetization       =     0.00 Bohr mag/cell
     absolute magnetization    =     0.31 Bohr mag/cell

     iteration # 40     ecut=    70.00 Ry     beta= 0.70
     Davidson diagonalization with overlap
     ethr =  1.13E-06,  avg # of iterations =  2.5

     negative rho (up, down):  1.743E-03 2.113E-01

     total cpu time spent up to now is     4183.4 secs

     total energy              =    -951.88749342 Ry
     Harris-Foulkes estimate   =    -951.88817520 Ry
     estimated scf accuracy    <       0.05319767 Ry

     total magnetization       =    -0.00 Bohr mag/cell
     absolute magnetization    =     0.34 Bohr mag/cell

     iteration # 41     ecut=    70.00 Ry     beta= 0.70
     Davidson diagonalization with overlap
     ethr =  1.13E-06,  avg # of iterations =  3.0

     negative rho (up, down):  1.584E-03 2.025E-01

     total cpu time spent up to now is     4284.3 secs

     total energy              =    -951.88745753 Ry
     Harris-Foulkes estimate   =    -951.88770453 Ry
     estimated scf accuracy    <       0.03254067 Ry

     total magnetization       =     0.00 Bohr mag/cell
     absolute magnetization    =     0.26 Bohr mag/cell

     iteration # 42     ecut=    70.00 Ry     beta= 0.70
     Davidson diagonalization with overlap
     ethr =  1.13E-06,  avg # of iterations =  2.0

     negative rho (up, down):  1.654E-03 1.880E-01

     total cpu time spent up to now is     4381.8 secs

     total energy              =    -951.88680034 Ry
     Harris-Foulkes estimate   =    -951.88769975 Ry
     estimated scf accuracy    <       0.02627020 Ry

     total magnetization       =    -0.00 Bohr mag/cell
     absolute magnetization    =     0.23 Bohr mag/cell

     iteration # 43     ecut=    70.00 Ry     beta= 0.70
     Davidson diagonalization with overlap
     ethr =  1.13E-06,  avg # of iterations =  3.0

     negative rho (up, down):  1.438E-03 1.233E-01

     total cpu time spent up to now is     4484.0 secs

     total energy              =    -951.88757018 Ry
     Harris-Foulkes estimate   =    -951.88739134 Ry
     estimated scf accuracy    <       0.00537139 Ry

     total magnetization       =    -0.00 Bohr mag/cell
     absolute magnetization    =     0.09 Bohr mag/cell

     iteration # 44     ecut=    70.00 Ry     beta= 0.70
     Davidson diagonalization with overlap
     ethr =  1.13E-06,  avg # of iterations =  6.0

     negative rho (up, down):  1.356E-03 1.014E-01

     total cpu time spent up to now is     4588.3 secs

     total energy              =    -951.88781304 Ry
     Harris-Foulkes estimate   =    -951.88793982 Ry
     estimated scf accuracy    <       0.00606061 Ry

     total magnetization       =    -0.00 Bohr mag/cell
     absolute magnetization    =     0.10 Bohr mag/cell

     iteration # 45     ecut=    70.00 Ry     beta= 0.70
     Davidson diagonalization with overlap
     ethr =  1.13E-06,  avg # of iterations =  2.5

     negative rho (up, down):  1.127E-03 1.085E-01

     total cpu time spent up to now is     4688.2 secs

     total energy              =    -951.88808307 Ry
     Harris-Foulkes estimate   =    -951.88800014 Ry
     estimated scf accuracy    <       0.00525744 Ry

     total magnetization       =     0.00 Bohr mag/cell
     absolute magnetization    =     0.11 Bohr mag/cell

     iteration # 46     ecut=    70.00 Ry     beta= 0.70
     Davidson diagonalization with overlap
     ethr =  1.13E-06,  avg # of iterations =  2.0

     negative rho (up, down):  1.193E-03 1.111E-01

     total cpu time spent up to now is     4782.9 secs

     total energy              =    -951.88795308 Ry
     Harris-Foulkes estimate   =    -951.88808900 Ry
     estimated scf accuracy    <       0.00508202 Ry

     total magnetization       =     0.00 Bohr mag/cell
     absolute magnetization    =     0.10 Bohr mag/cell

     iteration # 47     ecut=    70.00 Ry     beta= 0.70
     Davidson diagonalization with overlap
     ethr =  1.13E-06,  avg # of iterations =  1.5

     negative rho (up, down):  1.440E-03 8.925E-02

     total cpu time spent up to now is     4878.7 secs

     total energy              =    -951.88785650 Ry
     Harris-Foulkes estimate   =    -951.88812951 Ry
     estimated scf accuracy    <       0.00622712 Ry

     total magnetization       =    -0.00 Bohr mag/cell
     absolute magnetization    =     0.10 Bohr mag/cell

     iteration # 48     ecut=    70.00 Ry     beta= 0.70
     Davidson diagonalization with overlap
     ethr =  1.13E-06,  avg # of iterations =  2.5

     negative rho (up, down):  1.854E-03 1.395E-01

     total cpu time spent up to now is     4979.1 secs

     total energy              =    -951.88772494 Ry
     Harris-Foulkes estimate   =    -951.88828723 Ry
     estimated scf accuracy    <       0.01987038 Ry

     total magnetization       =     0.00 Bohr mag/cell
     absolute magnetization    =     0.19 Bohr mag/cell

     iteration # 49     ecut=    70.00 Ry     beta= 0.70
     Davidson diagonalization with overlap
     ethr =  1.13E-06,  avg # of iterations =  4.0

     negative rho (up, down):  1.454E-03 1.584E-01

     total cpu time spent up to now is     5078.9 secs

     total energy              =    -951.88789110 Ry
     Harris-Foulkes estimate   =    -951.88784018 Ry
     estimated scf accuracy    <       0.01408940 Ry

     total magnetization       =    -0.00 Bohr mag/cell
     absolute magnetization    =     0.17 Bohr mag/cell

     iteration # 50     ecut=    70.00 Ry     beta= 0.70
     Davidson diagonalization with overlap
     ethr =  1.13E-06,  avg # of iterations =  2.0

     negative rho (up, down):  1.474E-03 1.619E-01

     total cpu time spent up to now is     5173.4 secs

     total energy              =    -951.88806029 Ry
     Harris-Foulkes estimate   =    -951.88790038 Ry
     estimated scf accuracy    <       0.01450248 Ry

     total magnetization       =     0.00 Bohr mag/cell
     absolute magnetization    =     0.17 Bohr mag/cell

     iteration # 51     ecut=    70.00 Ry     beta= 0.70
     Davidson diagonalization with overlap
     ethr =  1.13E-06,  avg # of iterations =  1.5

     negative rho (up, down):  2.187E-03 1.802E-01

     total cpu time spent up to now is     5269.9 secs

     total energy              =    -951.88783321 Ry
     Harris-Foulkes estimate   =    -951.88818798 Ry
     estimated scf accuracy    <       0.03531277 Ry

     total magnetization       =     0.00 Bohr mag/cell
     absolute magnetization    =     0.26 Bohr mag/cell

     iteration # 52     ecut=    70.00 Ry     beta= 0.70
     Davidson diagonalization with overlap
     ethr =  1.13E-06,  avg # of iterations =  2.0

     negative rho (up, down):  2.721E-03 1.762E-01

     total cpu time spent up to now is     5365.5 secs

     total energy              =    -951.88850713 Ry
     Harris-Foulkes estimate   =    -951.88784133 Ry
     estimated scf accuracy    <       0.03621202 Ry

     total magnetization       =    -0.00 Bohr mag/cell
     absolute magnetization    =     0.26 Bohr mag/cell

     iteration # 53     ecut=    70.00 Ry     beta= 0.70
     Davidson diagonalization with overlap
     ethr =  1.13E-06,  avg # of iterations =  4.5

     negative rho (up, down):  5.525E-03 2.062E-01

     total cpu time spent up to now is     5479.1 secs

     total energy              =    -951.89053096 Ry
     Harris-Foulkes estimate   =    -951.89042013 Ry
     estimated scf accuracy    <       0.19271912 Ry

     total magnetization       =     0.00 Bohr mag/cell
     absolute magnetization    =     0.58 Bohr mag/cell

     iteration # 54     ecut=    70.00 Ry     beta= 0.70
     Davidson diagonalization with overlap
     ethr =  1.13E-06,  avg # of iterations =  5.5

     negative rho (up, down):  6.009E-03 2.423E-01

     total cpu time spent up to now is     5591.6 secs

     total energy              =    -951.88123868 Ry
     Harris-Foulkes estimate   =    -951.89166470 Ry
     estimated scf accuracy    <       0.33932487 Ry

     total magnetization       =     0.00 Bohr mag/cell
     absolute magnetization    =     0.83 Bohr mag/cell

     iteration # 55     ecut=    70.00 Ry     beta= 0.70
     Davidson diagonalization with overlap
     ethr =  1.13E-06,  avg # of iterations =  4.0

     negative rho (up, down):  4.304E-03 2.111E-01

     total cpu time spent up to now is     5719.8 secs

     total energy              =    -951.88708577 Ry
     Harris-Foulkes estimate   =    -951.88624616 Ry
     estimated scf accuracy    <       0.10899222 Ry

     total magnetization       =     0.01 Bohr mag/cell
     absolute magnetization    =     0.43 Bohr mag/cell

     iteration # 56     ecut=    70.00 Ry     beta= 0.70
     Davidson diagonalization with overlap
     ethr =  1.13E-06,  avg # of iterations =  5.0

     negative rho (up, down):  3.698E-03 2.153E-01

     total cpu time spent up to now is     5832.3 secs

     total energy              =    -951.89103983 Ry
     Harris-Foulkes estimate   =    -951.88805383 Ry
     estimated scf accuracy    <       0.10278667 Ry

     total magnetization       =     0.00 Bohr mag/cell
     absolute magnetization    =     0.44 Bohr mag/cell

     iteration # 57     ecut=    70.00 Ry     beta= 0.70
     Davidson diagonalization with overlap
     ethr =  1.13E-06,  avg # of iterations =  4.0

     negative rho (up, down):  4.563E-03 2.697E-01

     total cpu time spent up to now is     5959.2 secs

     total energy              =    -951.88789785 Ry
     Harris-Foulkes estimate   =    -951.89388896 Ry
     estimated scf accuracy    <       0.40930165 Ry

     total magnetization       =    -0.00 Bohr mag/cell
     absolute magnetization    =     0.92 Bohr mag/cell

     iteration # 58     ecut=    70.00 Ry     beta= 0.70
     Davidson diagonalization with overlap
     ethr =  1.13E-06,  avg # of iterations =  5.5

     negative rho (up, down):  3.201E-03 2.713E-01

     total cpu time spent up to now is     6069.8 secs

     total energy              =    -951.88033723 Ry
     Harris-Foulkes estimate   =    -951.88868145 Ry
     estimated scf accuracy    <       0.18904598 Ry

     total magnetization       =    -0.01 Bohr mag/cell
     absolute magnetization    =     0.63 Bohr mag/cell

     iteration # 59     ecut=    70.00 Ry     beta= 0.70
     Davidson diagonalization with overlap
     ethr =  1.13E-06,  avg # of iterations =  4.0

     negative rho (up, down):  1.687E-03 1.870E-01

     total cpu time spent up to now is     6199.9 secs

     total energy              =    -951.88736411 Ry
     Harris-Foulkes estimate   =    -951.88510461 Ry
     estimated scf accuracy    <       0.01091379 Ry

     total magnetization       =    -0.00 Bohr mag/cell
     absolute magnetization    =     0.13 Bohr mag/cell

     iteration # 60     ecut=    70.00 Ry     beta= 0.70
     Davidson diagonalization with overlap
     ethr =  1.13E-06,  avg # of iterations =  6.0

     negative rho (up, down):  1.644E-03 1.296E-01

     total cpu time spent up to now is     6302.6 secs

     total energy              =    -951.88761637 Ry
     Harris-Foulkes estimate   =    -951.88748176 Ry
     estimated scf accuracy    <       0.01219350 Ry

     total magnetization       =     0.00 Bohr mag/cell
     absolute magnetization    =     0.15 Bohr mag/cell

     iteration # 61     ecut=    70.00 Ry     beta= 0.70
     Davidson diagonalization with overlap
     ethr =  1.13E-06,  avg # of iterations =  6.5

     negative rho (up, down):  1.205E-03 7.692E-02

     total cpu time spent up to now is     6404.5 secs

     total energy              =    -951.88803025 Ry
     Harris-Foulkes estimate   =    -951.88779696 Ry
     estimated scf accuracy    <       0.00288422 Ry

     total magnetization       =    -0.00 Bohr mag/cell
     absolute magnetization    =     0.07 Bohr mag/cell

     iteration # 62     ecut=    70.00 Ry     beta= 0.70
     Davidson diagonalization with overlap
     ethr =  1.13E-06,  avg # of iterations =  5.0

     negative rho (up, down):  1.737E-03 1.258E-01

     total cpu time spent up to now is     6510.2 secs

     total energy              =    -951.88766279 Ry
     Harris-Foulkes estimate   =    -951.88851218 Ry
     estimated scf accuracy    <       0.01995191 Ry

     total magnetization       =     0.00 Bohr mag/cell
     absolute magnetization    =     0.19 Bohr mag/cell

     iteration # 63     ecut=    70.00 Ry     beta= 0.70
     Davidson diagonalization with overlap
     ethr =  1.13E-06,  avg # of iterations =  3.5

     negative rho (up, down):  1.928E-03 1.298E-01

     total cpu time spent up to now is     6611.1 secs

     total energy              =    -951.88789379 Ry
     Harris-Foulkes estimate   =    -951.88795555 Ry
     estimated scf accuracy    <       0.01790516 Ry

     total magnetization       =     0.00 Bohr mag/cell
     absolute magnetization    =     0.18 Bohr mag/cell

     iteration # 64     ecut=    70.00 Ry     beta= 0.70
     Davidson diagonalization with overlap
     ethr =  1.13E-06,  avg # of iterations =  2.5

     negative rho (up, down):  1.779E-03 1.537E-01

     total cpu time spent up to now is     6710.4 secs

     total energy              =    -951.88711051 Ry
     Harris-Foulkes estimate   =    -951.88802138 Ry
     estimated scf accuracy    <       0.02612080 Ry

     total magnetization       =     0.00 Bohr mag/cell
     absolute magnetization    =     0.23 Bohr mag/cell

     iteration # 65     ecut=    70.00 Ry     beta= 0.70
     Davidson diagonalization with overlap
     ethr =  1.13E-06,  avg # of iterations =  2.5

     negative rho (up, down):  1.815E-03 1.202E-01

     total cpu time spent up to now is     6814.7 secs

     total energy              =    -951.88776325 Ry
     Harris-Foulkes estimate   =    -951.88793403 Ry
     estimated scf accuracy    <       0.01804681 Ry

     total magnetization       =     0.00 Bohr mag/cell
     absolute magnetization    =     0.13 Bohr mag/cell

     iteration # 66     ecut=    70.00 Ry     beta= 0.70
     Davidson diagonalization with overlap
     ethr =  1.13E-06,  avg # of iterations =  4.0

     negative rho (up, down):  2.002E-03 1.645E-01

     total cpu time spent up to now is     6925.8 secs

     total energy              =    -951.88843427 Ry
     Harris-Foulkes estimate   =    -951.88875937 Ry
     estimated scf accuracy    <       0.04264000 Ry

     total magnetization       =     0.00 Bohr mag/cell
     absolute magnetization    =     0.26 Bohr mag/cell

     iteration # 67     ecut=    70.00 Ry     beta= 0.70
     Davidson diagonalization with overlap
     ethr =  1.13E-06,  avg # of iterations =  5.0

     negative rho (up, down):  2.331E-03 2.347E-01

     total cpu time spent up to now is     7038.5 secs

     total energy              =    -951.88695528 Ry
     Harris-Foulkes estimate   =    -951.88946361 Ry
     estimated scf accuracy    <       0.11930466 Ry

     total magnetization       =    -0.00 Bohr mag/cell
     absolute magnetization    =     0.50 Bohr mag/cell

     iteration # 68     ecut=    70.00 Ry     beta= 0.70
     Davidson diagonalization with overlap
     ethr =  1.13E-06,  avg # of iterations =  6.0

     negative rho (up, down):  2.218E-03 2.097E-01

     total cpu time spent up to now is     7143.7 secs

     total energy              =    -951.89061117 Ry
     Harris-Foulkes estimate   =    -951.88741441 Ry
     estimated scf accuracy    <       0.04052302 Ry

     total magnetization       =    -0.00 Bohr mag/cell
     absolute magnetization    =     0.29 Bohr mag/cell

     iteration # 69     ecut=    70.00 Ry     beta= 0.70
     Davidson diagonalization with overlap
     ethr =  1.13E-06,  avg # of iterations =  4.5

     negative rho (up, down):  7.235E-03 2.491E-01

     total cpu time spent up to now is     7266.2 secs

     total energy              =    -951.87772491 Ry
     Harris-Foulkes estimate   =    -951.89813765 Ry
     estimated scf accuracy    <       0.64728896 Ry

     total magnetization       =    -0.00 Bohr mag/cell
     absolute magnetization    =     1.14 Bohr mag/cell

     iteration # 70     ecut=    70.00 Ry     beta= 0.70
     Davidson diagonalization with overlap
     ethr =  1.13E-06,  avg # of iterations =  5.5

     negative rho (up, down):  3.824E-03 2.078E-01

     total cpu time spent up to now is     7397.9 secs

     total energy              =    -951.88448497 Ry
     Harris-Foulkes estimate   =    -951.88475544 Ry
     estimated scf accuracy    <       0.04260553 Ry

     total magnetization       =     0.00 Bohr mag/cell
     absolute magnetization    =     0.26 Bohr mag/cell

     iteration # 71     ecut=    70.00 Ry     beta= 0.70
     Davidson diagonalization with overlap
     ethr =  1.13E-06,  avg # of iterations =  5.0

     negative rho (up, down):  1.255E-03 1.019E-01

     total cpu time spent up to now is     7515.0 secs

     total energy              =    -951.88767496 Ry
     Harris-Foulkes estimate   =    -951.88627933 Ry
     estimated scf accuracy    <       0.00416211 Ry

     total magnetization       =     0.00 Bohr mag/cell
     absolute magnetization    =     0.08 Bohr mag/cell

     iteration # 72     ecut=    70.00 Ry     beta= 0.70
     Davidson diagonalization with overlap
     ethr =  1.13E-06,  avg # of iterations =  5.5

     negative rho (up, down):  1.273E-03 6.497E-02

     total cpu time spent up to now is     7620.5 secs

     total energy              =    -951.88774973 Ry
     Harris-Foulkes estimate   =    -951.88800208 Ry
     estimated scf accuracy    <       0.00210453 Ry

     total magnetization       =     0.00 Bohr mag/cell
     absolute magnetization    =     0.05 Bohr mag/cell

     iteration # 73     ecut=    70.00 Ry     beta= 0.70
     Davidson diagonalization with overlap
     ethr =  9.74E-07,  avg # of iterations =  3.0

     negative rho (up, down):  1.276E-03 1.118E-01

     total cpu time spent up to now is     7724.7 secs

     total energy              =    -951.88826599 Ry
     Harris-Foulkes estimate   =    -951.88843049 Ry
     estimated scf accuracy    <       0.01475948 Ry

     total magnetization       =    -0.00 Bohr mag/cell
     absolute magnetization    =     0.17 Bohr mag/cell

     iteration # 74     ecut=    70.00 Ry     beta= 0.70
     Davidson diagonalization with overlap
     ethr =  9.74E-07,  avg # of iterations =  2.0

     negative rho (up, down):  1.272E-03 1.502E-01

     total cpu time spent up to now is     7820.1 secs

     total energy              =    -951.88728858 Ry
     Harris-Foulkes estimate   =    -951.88829008 Ry
     estimated scf accuracy    <       0.01841863 Ry

     total magnetization       =    -0.00 Bohr mag/cell
     absolute magnetization    =     0.20 Bohr mag/cell

     iteration # 75     ecut=    70.00 Ry     beta= 0.70
     Davidson diagonalization with overlap
     ethr =  9.74E-07,  avg # of iterations =  2.0

     negative rho (up, down):  1.727E-03 6.876E-02

     total cpu time spent up to now is     7923.3 secs

     total energy              =    -951.88771069 Ry
     Harris-Foulkes estimate   =    -951.88779120 Ry
     estimated scf accuracy    <       0.00682280 Ry

     total magnetization       =     0.00 Bohr mag/cell
     absolute magnetization    =     0.06 Bohr mag/cell

     iteration # 76     ecut=    70.00 Ry     beta= 0.70
     Davidson diagonalization with overlap
     ethr =  9.74E-07,  avg # of iterations =  2.5

     negative rho (up, down):  1.408E-03 4.503E-02

     total cpu time spent up to now is     8024.5 secs

     total energy              =    -951.88800896 Ry
     Harris-Foulkes estimate   =    -951.88790304 Ry
     estimated scf accuracy    <       0.00219744 Ry

     total magnetization       =    -0.00 Bohr mag/cell
     absolute magnetization    =     0.04 Bohr mag/cell

     iteration # 77     ecut=    70.00 Ry     beta= 0.70
     Davidson diagonalization with overlap
     ethr =  9.74E-07,  avg # of iterations =  2.0

     negative rho (up, down):  1.172E-03 8.264E-02

     total cpu time spent up to now is     8119.4 secs

     total energy              =    -951.88809875 Ry
     Harris-Foulkes estimate   =    -951.88807799 Ry
     estimated scf accuracy    <       0.00280090 Ry

     total magnetization       =    -0.00 Bohr mag/cell
     absolute magnetization    =     0.08 Bohr mag/cell

     iteration # 78     ecut=    70.00 Ry     beta= 0.70
     Davidson diagonalization with overlap
     ethr =  9.74E-07,  avg # of iterations =  2.5

     negative rho (up, down):  1.161E-03 8.782E-02

     total cpu time spent up to now is     8215.2 secs

     total energy              =    -951.88804876 Ry
     Harris-Foulkes estimate   =    -951.88810129 Ry
     estimated scf accuracy    <       0.00223306 Ry

     total magnetization       =    -0.00 Bohr mag/cell
     absolute magnetization    =     0.07 Bohr mag/cell

     iteration # 79     ecut=    70.00 Ry     beta= 0.70
     Davidson diagonalization with overlap
     ethr =  9.74E-07,  avg # of iterations =  2.0

     negative rho (up, down):  1.200E-03 7.794E-02

     total cpu time spent up to now is     8310.2 secs

     total energy              =    -951.88803652 Ry
     Harris-Foulkes estimate   =    -951.88810217 Ry
     estimated scf accuracy    <       0.00325642 Ry

     total magnetization       =    -0.00 Bohr mag/cell
     absolute magnetization    =     0.08 Bohr mag/cell

     iteration # 80     ecut=    70.00 Ry     beta= 0.70
     Davidson diagonalization with overlap
     ethr =  9.74E-07,  avg # of iterations =  1.5

     negative rho (up, down):  1.172E-03 5.634E-02

     total cpu time spent up to now is     8404.7 secs

     total energy              =    -951.88804826 Ry
     Harris-Foulkes estimate   =    -951.88805901 Ry
     estimated scf accuracy    <       0.00073657 Ry

     total magnetization       =     0.00 Bohr mag/cell
     absolute magnetization    =     0.03 Bohr mag/cell

     iteration # 81     ecut=    70.00 Ry     beta= 0.70
     Davidson diagonalization with overlap
     ethr =  3.41E-07,  avg # of iterations =  2.5

     negative rho (up, down):  1.182E-03 3.584E-02

     total cpu time spent up to now is     8504.4 secs

     total energy              =    -951.88803692 Ry
     Harris-Foulkes estimate   =    -951.88818770 Ry
     estimated scf accuracy    <       0.00215536 Ry

     total magnetization       =     0.00 Bohr mag/cell
     absolute magnetization    =     0.05 Bohr mag/cell

     iteration # 82     ecut=    70.00 Ry     beta= 0.70
     Davidson diagonalization with overlap
     ethr =  3.41E-07,  avg # of iterations =  2.5

     negative rho (up, down):  1.138E-03 1.567E-02

     total cpu time spent up to now is     8604.2 secs

     total energy              =    -951.88814721 Ry
     Harris-Foulkes estimate   =    -951.88815357 Ry
     estimated scf accuracy    <       0.00035886 Ry

     total magnetization       =     0.00 Bohr mag/cell
     absolute magnetization    =     0.02 Bohr mag/cell

     iteration # 83     ecut=    70.00 Ry     beta= 0.70
     Davidson diagonalization with overlap
     ethr =  1.66E-07,  avg # of iterations =  3.0

     negative rho (up, down):  1.129E-03 9.107E-03

     total cpu time spent up to now is     8701.7 secs

     total energy              =    -951.88817994 Ry
     Harris-Foulkes estimate   =    -951.88817085 Ry
     estimated scf accuracy    <       0.00009253 Ry

     total magnetization       =     0.00 Bohr mag/cell
     absolute magnetization    =     0.01 Bohr mag/cell

     iteration # 84     ecut=    70.00 Ry     beta= 0.70
     Davidson diagonalization with overlap
     ethr =  4.28E-08,  avg # of iterations =  2.0

     negative rho (up, down):  1.132E-03 2.920E-02

     total cpu time spent up to now is     8797.7 secs

     total energy              =    -951.88815771 Ry
     Harris-Foulkes estimate   =    -951.88818336 Ry
     estimated scf accuracy    <       0.00043324 Ry

     total magnetization       =    -0.00 Bohr mag/cell
     absolute magnetization    =     0.03 Bohr mag/cell

     iteration # 85     ecut=    70.00 Ry     beta= 0.70
     Davidson diagonalization with overlap
     ethr =  4.28E-08,  avg # of iterations =  2.0

     negative rho (up, down):  1.180E-03 2.181E-02

     total cpu time spent up to now is     8897.7 secs

     total energy              =    -951.88813895 Ry
     Harris-Foulkes estimate   =    -951.88817160 Ry
     estimated scf accuracy    <       0.00050123 Ry

     total magnetization       =     0.00 Bohr mag/cell
     absolute magnetization    =     0.02 Bohr mag/cell

     iteration # 86     ecut=    70.00 Ry     beta= 0.70
     Davidson diagonalization with overlap
     ethr =  4.28E-08,  avg # of iterations =  2.5

     negative rho (up, down):  1.179E-03 1.632E-02

     total cpu time spent up to now is     8999.6 secs

     total energy              =    -951.88814463 Ry
     Harris-Foulkes estimate   =    -951.88815801 Ry
     estimated scf accuracy    <       0.00046036 Ry

     total magnetization       =     0.00 Bohr mag/cell
     absolute magnetization    =     0.01 Bohr mag/cell

     iteration # 87     ecut=    70.00 Ry     beta= 0.70
     Davidson diagonalization with overlap
     ethr =  4.28E-08,  avg # of iterations =  2.5

     negative rho (up, down):  1.135E-03 3.025E-02

     total cpu time spent up to now is     9100.1 secs

     total energy              =    -951.88818183 Ry
     Harris-Foulkes estimate   =    -951.88816240 Ry
     estimated scf accuracy    <       0.00044115 Ry

     total magnetization       =    -0.00 Bohr mag/cell
     absolute magnetization    =     0.03 Bohr mag/cell

     iteration # 88     ecut=    70.00 Ry     beta= 0.70
     Davidson diagonalization with overlap
     ethr =  4.28E-08,  avg # of iterations =  2.0

     negative rho (up, down):  1.145E-03 6.806E-02

     total cpu time spent up to now is     9197.4 secs

     total energy              =    -951.88809066 Ry
     Harris-Foulkes estimate   =    -951.88818908 Ry
     estimated scf accuracy    <       0.00166233 Ry

     total magnetization       =    -0.00 Bohr mag/cell
     absolute magnetization    =     0.06 Bohr mag/cell

     iteration # 89     ecut=    70.00 Ry     beta= 0.70
     Davidson diagonalization with overlap
     ethr =  4.28E-08,  avg # of iterations =  2.5

     negative rho (up, down):  1.154E-03 4.218E-02

     total cpu time spent up to now is     9301.2 secs

     total energy              =    -951.88814651 Ry
     Harris-Foulkes estimate   =    -951.88811806 Ry
     estimated scf accuracy    <       0.00068517 Ry

     total magnetization       =     0.00 Bohr mag/cell
     absolute magnetization    =     0.04 Bohr mag/cell

     iteration # 90     ecut=    70.00 Ry     beta= 0.70
     Davidson diagonalization with overlap
     ethr =  4.28E-08,  avg # of iterations =  1.0

     negative rho (up, down):  1.151E-03 3.688E-02

     total cpu time spent up to now is     9395.0 secs

     total energy              =    -951.88813316 Ry
     Harris-Foulkes estimate   =    -951.88814737 Ry
     estimated scf accuracy    <       0.00044376 Ry

     total magnetization       =     0.00 Bohr mag/cell
     absolute magnetization    =     0.03 Bohr mag/cell

     iteration # 91     ecut=    70.00 Ry     beta= 0.70
     Davidson diagonalization with overlap
     ethr =  4.28E-08,  avg # of iterations =  2.0

     negative rho (up, down):  1.130E-03 9.737E-03

     total cpu time spent up to now is     9494.8 secs

     total energy              =    -951.88817310 Ry
     Harris-Foulkes estimate   =    -951.88814422 Ry
     estimated scf accuracy    <       0.00000677 Ry

     total magnetization       =    -0.00 Bohr mag/cell
     absolute magnetization    =     0.00 Bohr mag/cell

     iteration # 92     ecut=    70.00 Ry     beta= 0.70
     Davidson diagonalization with overlap
     ethr =  3.13E-09,  avg # of iterations =  3.0

     negative rho (up, down):  1.128E-03 6.065E-03

     total cpu time spent up to now is     9597.3 secs

     total energy              =    -951.88817431 Ry
     Harris-Foulkes estimate   =    -951.88817418 Ry
     estimated scf accuracy    <       0.00001019 Ry

     total magnetization       =     0.00 Bohr mag/cell
     absolute magnetization    =     0.00 Bohr mag/cell

     iteration # 93     ecut=    70.00 Ry     beta= 0.70
     Davidson diagonalization with overlap
     ethr =  3.13E-09,  avg # of iterations =  2.0

     negative rho (up, down):  1.128E-03 3.149E-03

     total cpu time spent up to now is     9698.0 secs

     total energy              =    -951.88817549 Ry
     Harris-Foulkes estimate   =    -951.88817574 Ry
     estimated scf accuracy    <       0.00001420 Ry

     total magnetization       =    -0.00 Bohr mag/cell
     absolute magnetization    =     0.00 Bohr mag/cell

     iteration # 94     ecut=    70.00 Ry     beta= 0.70
     Davidson diagonalization with overlap
     ethr =  3.13E-09,  avg # of iterations =  1.5

     negative rho (up, down):  1.127E-03 2.406E-03

     total cpu time spent up to now is     9793.6 secs

     total energy              =    -951.88817596 Ry
     Harris-Foulkes estimate   =    -951.88817579 Ry
     estimated scf accuracy    <       0.00000190 Ry

     total magnetization       =     0.00 Bohr mag/cell
     absolute magnetization    =     0.00 Bohr mag/cell

     iteration # 95     ecut=    70.00 Ry     beta= 0.70
     Davidson diagonalization with overlap
     ethr =  8.80E-10,  avg # of iterations =  1.0

     negative rho (up, down):  1.128E-03 2.386E-03

     total cpu time spent up to now is     9887.6 secs

     total energy              =    -951.88817594 Ry
     Harris-Foulkes estimate   =    -951.88817597 Ry
     estimated scf accuracy    <       0.00000218 Ry

     total magnetization       =    -0.00 Bohr mag/cell
     absolute magnetization    =     0.00 Bohr mag/cell

     iteration # 96     ecut=    70.00 Ry     beta= 0.70
     Davidson diagonalization with overlap
     ethr =  8.80E-10,  avg # of iterations =  1.0

     negative rho (up, down):  1.127E-03 2.038E-03

     total cpu time spent up to now is     9981.5 secs

     total energy              =    -951.88817597 Ry
     Harris-Foulkes estimate   =    -951.88817594 Ry
     estimated scf accuracy    <       0.00000122 Ry

     total magnetization       =     0.00 Bohr mag/cell
     absolute magnetization    =     0.00 Bohr mag/cell

     iteration # 97     ecut=    70.00 Ry     beta= 0.70
     Davidson diagonalization with overlap
     ethr =  5.67E-10,  avg # of iterations =  1.0

     negative rho (up, down):  1.126E-03 7.796E-05

     Magnetic moment per site:
     atom:    1    charge:    0.2111    magn:   -0.0000    constr:    0.0000
     atom:    2    charge:    0.2115    magn:    0.0000    constr:    0.0000
     atom:    3    charge:    1.7155    magn:    0.0000    constr:    0.0000
     atom:    4    charge:    1.7152    magn:   -0.0000    constr:    0.0000
     atom:    5    charge:    1.7168    magn:   -0.0000    constr:    0.0000
     atom:    6    charge:    1.7146    magn:    0.0000    constr:    0.0000
     atom:    7    charge:    1.7168    magn:   -0.0000    constr:    0.0000
     atom:    8    charge:    1.7152    magn:   -0.0000    constr:    0.0000
     atom:    9    charge:    1.7155    magn:    0.0000    constr:    0.0000
     atom:   10    charge:    1.7177    magn:   -0.0000    constr:    0.0000
     atom:   11    charge:    1.7156    magn:    0.0000    constr:    0.0000
     atom:   12    charge:    1.7177    magn:   -0.0000    constr:    0.0000
     atom:   13    charge:    1.7156    magn:    0.0000    constr:    0.0000
     atom:   14    charge:    1.7175    magn:   -0.0000    constr:    0.0000
     atom:   15    charge:    1.7117    magn:    0.0000    constr:    0.0000
     atom:   16    charge:    1.7113    magn:    0.0000    constr:    0.0000
     atom:   17    charge:    1.7206    magn:    0.0000    constr:    0.0000
     atom:   18    charge:    1.7113    magn:    0.0000    constr:    0.0000
     atom:   19    charge:    1.7117    magn:    0.0000    constr:    0.0000
     atom:   20    charge:    1.7175    magn:   -0.0000    constr:    0.0000
     atom:   21    charge:    1.7156    magn:    0.0000    constr:    0.0000
     atom:   22    charge:    1.7176    magn:   -0.0000    constr:    0.0000
     atom:   23    charge:    1.7155    magn:    0.0000    constr:    0.0000
     atom:   24    charge:    1.7152    magn:   -0.0000    constr:    0.0000
     atom:   25    charge:    1.7117    magn:    0.0000    constr:    0.0000
     atom:   26    charge:    1.7113    magn:   -0.0000    constr:    0.0000
     atom:   27    charge:    1.8183    magn:    0.0000    constr:    0.0000
     atom:   28    charge:   13.4053    magn:    0.0000    constr:    0.0000
     atom:   29    charge:    1.8183    magn:   -0.0000    constr:    0.0000
     atom:   30    charge:    1.7113    magn:   -0.0000    constr:    0.0000
     atom:   31    charge:    1.7117    magn:   -0.0000    constr:    0.0000
     atom:   32    charge:    1.7152    magn:   -0.0000    constr:    0.0000
     atom:   33    charge:    1.7168    magn:    0.0000    constr:    0.0000
     atom:   34    charge:    1.7154    magn:   -0.0000    constr:    0.0000
     atom:   35    charge:    1.7168    magn:    0.0000    constr:    0.0000
     atom:   36    charge:    1.7146    magn:   -0.0000    constr:    0.0000
     atom:   37    charge:    1.7205    magn:   -0.0000    constr:    0.0000
     atom:   38    charge:    1.7114    magn:    0.0000    constr:    0.0000
     atom:   39    charge:    1.8185    magn:   -0.0000    constr:    0.0000
     atom:   40    charge:    1.7114    magn:    0.0000    constr:    0.0000
     atom:   41    charge:    1.7205    magn:   -0.0000    constr:    0.0000
     atom:   42    charge:    1.7146    magn:   -0.0000    constr:    0.0000
     atom:   43    charge:    1.7168    magn:    0.0000    constr:    0.0000
     atom:   44    charge:    1.7154    magn:    0.0000    constr:    0.0000
     atom:   45    charge:    1.7212    magn:   -0.0000    constr:    0.0000
     atom:   46    charge:    1.7154    magn:    0.0000    constr:    0.0000
     atom:   47    charge:    1.7168    magn:    0.0000    constr:    0.0000
     atom:   48    charge:    1.7152    magn:   -0.0000    constr:    0.0000
     atom:   49    charge:    1.7117    magn:    0.0000    constr:    0.0000
     atom:   50    charge:    1.7175    magn:   -0.0000    constr:    0.0000
     atom:   51    charge:    1.7117    magn:    0.0000    constr:    0.0000
     atom:   52    charge:    1.7152    magn:   -0.0000    constr:    0.0000

     total cpu time spent up to now is    10074.7 secs

     End of self-consistent calculation

 ------ SPIN UP ------------


          k = 0.0000 0.0000 0.0000 ( 87777 PWs)   bands (ev):

  -107.9224 -69.0908 -69.0904 -67.0075 -19.8279 -19.0084 -19.0083 -18.8897
   -18.8896 -18.8049 -18.7380 -17.1649 -17.1642 -17.1294 -17.0808 -17.0806
   -16.7549 -16.3138 -16.3134 -16.1671 -16.1671 -16.1536 -15.6718 -14.3126
   -14.3118 -14.1513 -14.0176 -14.0174 -13.5160 -13.1298 -13.1297 -13.0781
   -12.9024 -12.9023 -12.5021 -12.0774 -12.0773 -11.7136 -11.5697 -11.5695
   -10.9362 -10.4339 -10.4338  -9.5786  -9.3669  -9.3668  -9.2277  -9.2128
    -9.2127  -9.1980  -8.9542  -8.9540  -8.5945  -8.5944  -8.4589  -7.9524
    -7.9032  -7.8599  -7.8493  -7.6656  -7.5430  -7.5429  -7.4498  -7.4496
    -6.8474  -6.8273  -6.8225  -6.8225  -6.7470  -6.6205  -6.6203  -6.5566
    -6.5515  -6.5514  -6.5196  -6.4438  -6.4269  -6.4261  -6.3402  -6.2907
    -6.2905  -5.5480  -5.5479  -5.0318  -4.9508  -4.8439  -4.8438  -4.7585
    -4.7176  -4.7170  -4.4244  -4.3999  -4.3997  -3.8375  -3.8371  -3.7654
    -3.7602  -3.7601  -3.7161  -3.4210  -3.4208  -3.3467  -1.8927  -1.8071
    -1.8070  -1.5930  -1.5910  -1.1590   0.1019   0.1032   0.9032   0.9615
     0.9620   1.2093   1.2112   1.5465   2.5019   2.8007   2.8021   2.8518
     3.0346   3.0373   3.4413   3.6086   3.6141   3.7370   3.7395   3.7629
     3.9000   4.2690

     occupation numbers 
     1.0000   1.0000   1.0000   1.0000   1.0000   1.0000   1.0000   1.0000
     1.0000   1.0000   1.0000   1.0000   1.0000   1.0000   1.0000   1.0000
     1.0000   1.0000   1.0000   1.0000   1.0000   1.0000   1.0000   1.0000
     1.0000   1.0000   1.0000   1.0000   1.0000   1.0000   1.0000   1.0000
     1.0000   1.0000   1.0000   1.0000   1.0000   1.0000   1.0000   1.0000
     1.0000   1.0000   1.0000   1.0000   1.0000   1.0000   1.0000   1.0000
     1.0000   1.0000   1.0000   1.0000   1.0000   1.0000   1.0000   1.0000
     1.0000   1.0000   1.0000   1.0000   1.0000   1.0000   1.0000   1.0000
     1.0000   1.0000   1.0000   1.0000   1.0000   1.0000   1.0000   1.0000
     1.0000   1.0000   1.0000   1.0000   1.0000   1.0000   1.0000   1.0000
     1.0000   1.0000   1.0000   1.0000   1.0000   1.0000   1.0000   1.0000
     1.0000   1.0000   1.0000   1.0000   1.0000   1.0000   1.0000   1.0000
     1.0000   1.0000   1.0000   1.0000   1.0000   1.0000   1.0000   1.0000
     1.0000   1.0000   1.0000   1.0000   0.0000   0.0000   0.0000   0.0000
     0.0000   0.0000   0.0000   0.0000   0.0000   0.0000   0.0000   0.0000
     0.0000   0.0000   0.0000   0.0000   0.0000   0.0000   0.0000   0.0000
     0.0000   0.0000

 ------ SPIN DOWN ----------


          k = 0.0000 0.0000 0.0000 ( 87777 PWs)   bands (ev):

  -107.9224 -69.0908 -69.0904 -67.0075 -19.8279 -19.0084 -19.0083 -18.8897
   -18.8896 -18.8049 -18.7380 -17.1649 -17.1642 -17.1294 -17.0808 -17.0806
   -16.7549 -16.3138 -16.3134 -16.1671 -16.1671 -16.1536 -15.6718 -14.3125
   -14.3119 -14.1513 -14.0176 -14.0174 -13.5160 -13.1298 -13.1297 -13.0781
   -12.9024 -12.9023 -12.5021 -12.0774 -12.0773 -11.7136 -11.5697 -11.5695
   -10.9362 -10.4339 -10.4338  -9.5786  -9.3669  -9.3668  -9.2277  -9.2128
    -9.2127  -9.1980  -8.9542  -8.9541  -8.5945  -8.5944  -8.4589  -7.9524
    -7.9032  -7.8599  -7.8493  -7.6656  -7.5430  -7.5429  -7.4498  -7.4497
    -6.8474  -6.8273  -6.8225  -6.8225  -6.7470  -6.6205  -6.6203  -6.5566
    -6.5515  -6.5514  -6.5196  -6.4438  -6.4269  -6.4261  -6.3402  -6.2908
    -6.2905  -5.5480  -5.5479  -5.0318  -4.9508  -4.8439  -4.8438  -4.7585
    -4.7176  -4.7170  -4.4244  -4.3999  -4.3997  -3.8375  -3.8371  -3.7654
    -3.7602  -3.7601  -3.7161  -3.4210  -3.4208  -3.3467  -1.8927  -1.8071
    -1.8070  -1.5930  -1.5910  -1.1590   0.1017   0.1035   0.9032   0.9615
     0.9620   1.2092   1.2112   1.5465   2.5019   2.8007   2.8021   2.8518
     3.0346   3.0373   3.4413   3.6087   3.6140   3.7369   3.7394   3.7630
     3.9000   4.2689

     occupation numbers 
     1.0000   1.0000   1.0000   1.0000   1.0000   1.0000   1.0000   1.0000
     1.0000   1.0000   1.0000   1.0000   1.0000   1.0000   1.0000   1.0000
     1.0000   1.0000   1.0000   1.0000   1.0000   1.0000   1.0000   1.0000
     1.0000   1.0000   1.0000   1.0000   1.0000   1.0000   1.0000   1.0000
     1.0000   1.0000   1.0000   1.0000   1.0000   1.0000   1.0000   1.0000
     1.0000   1.0000   1.0000   1.0000   1.0000   1.0000   1.0000   1.0000
     1.0000   1.0000   1.0000   1.0000   1.0000   1.0000   1.0000   1.0000
     1.0000   1.0000   1.0000   1.0000   1.0000   1.0000   1.0000   1.0000
     1.0000   1.0000   1.0000   1.0000   1.0000   1.0000   1.0000   1.0000
     1.0000   1.0000   1.0000   1.0000   1.0000   1.0000   1.0000   1.0000
     1.0000   1.0000   1.0000   1.0000   1.0000   1.0000   1.0000   1.0000
     1.0000   1.0000   1.0000   1.0000   1.0000   1.0000   1.0000   1.0000
     1.0000   1.0000   1.0000   1.0000   1.0000   1.0000   1.0000   1.0000
     1.0000   1.0000   1.0000   1.0000   0.0000   0.0000   0.0000   0.0000
     0.0000   0.0000   0.0000   0.0000   0.0000   0.0000   0.0000   0.0000
     0.0000   0.0000   0.0000   0.0000   0.0000   0.0000   0.0000   0.0000
     0.0000   0.0000

     the Fermi energy is    -0.9653 ev

!    total energy              =    -951.88817632 Ry
     Harris-Foulkes estimate   =    -951.88817598 Ry
     estimated scf accuracy    <       0.00000091 Ry

     The total energy is the sum of the following terms:

     one-electron contribution =   -2977.73973469 Ry
     hartree contribution      =    1531.50507339 Ry
     xc contribution           =    -265.72442345 Ry
     ewald contribution        =     760.07090843 Ry
     smearing contrib. (-TS)   =       0.00000000 Ry

     total magnetization       =    -0.00 Bohr mag/cell
     absolute magnetization    =     0.00 Bohr mag/cell

     convergence has been achieved in  97 iterations

     Writing output data file distance-2.8.save/

     init_run     :     76.67s CPU     77.89s WALL (       1 calls)
     electrons    :   9827.09s CPU   9995.79s WALL (       1 calls)

     Called by init_run:
     wfcinit      :     42.64s CPU     42.87s WALL (       1 calls)
     wfcinit:atom :      0.05s CPU      0.08s WALL (       2 calls)
     wfcinit:wfcr :     42.22s CPU     42.37s WALL (       2 calls)
     potinit      :     13.91s CPU     14.30s WALL (       1 calls)
     hinit0       :     11.33s CPU     11.36s WALL (       1 calls)

     Called by electrons:
     c_bands      :   6295.04s CPU   6328.75s WALL (      97 calls)
     sum_band     :   2049.79s CPU   2104.71s WALL (      97 calls)
     v_of_rho     :    710.37s CPU    741.74s WALL (      98 calls)
     v_h          :      7.61s CPU      7.78s WALL (      98 calls)
     v_xc         :    702.76s CPU    733.96s WALL (      98 calls)
     newd         :    716.88s CPU    765.28s WALL (      98 calls)
     mix_rho      :     47.09s CPU     47.74s WALL (      97 calls)

     Called by c_bands:
     init_us_2    :     17.93s CPU     17.98s WALL (     390 calls)
     cegterg      :   6248.53s CPU   6282.05s WALL (     194 calls)

     Called by sum_band:
     sum_band:bec :      0.16s CPU      0.16s WALL (     194 calls)
     addusdens    :   1264.09s CPU   1314.56s WALL (      97 calls)

     Called by *egterg:
     h_psi        :   3242.66s CPU   3265.05s WALL (     801 calls)
     s_psi        :   1095.95s CPU   1096.39s WALL (     801 calls)
     g_psi        :      3.44s CPU      3.44s WALL (     605 calls)
     cdiaghg      :     55.63s CPU     55.66s WALL (     799 calls)
     cegterg:over :    757.05s CPU    757.40s WALL (     605 calls)
     cegterg:upda :    466.55s CPU    469.62s WALL (     605 calls)
     cegterg:last :    338.31s CPU    338.41s WALL (     194 calls)

     Called by h_psi:
     h_psi:pot    :   3238.89s CPU   3257.22s WALL (     801 calls)
     h_psi:calbec :   1091.37s CPU   1091.86s WALL (     801 calls)
     vloc_psi     :   1052.06s CPU   1069.51s WALL (     801 calls)
     add_vuspsi   :   1095.46s CPU   1095.84s WALL (     801 calls)

     General routines
     calbec       :   1571.77s CPU   1572.48s WALL (     995 calls)
     fft          :    412.92s CPU    425.82s WALL (    7344 calls)
     ffts         :      7.14s CPU      7.38s WALL (     390 calls)
     fftw         :   1120.60s CPU   1139.55s WALL (  140020 calls)
     interpolate  :     16.83s CPU     17.26s WALL (     196 calls)

     Parallel routines
     fft_scatt_xy :    282.51s CPU    285.87s WALL (  147754 calls)
     fft_scatt_yz :    503.88s CPU    527.81s WALL (  147754 calls)

     PWSCF        :      2h45m CPU      2h47m WALL


   This run was terminated on:  12:12: 0  23Dec2022            

=------------------------------------------------------------------------------=
   JOB DONE.
=------------------------------------------------------------------------------=
