
     Program PWSCF v.6.4.1 starts on 12Jan2023 at 15: 6:34 

     This program is part of the open-source Quantum ESPRESSO suite
     for quantum simulation of materials; please cite
         "P. Giannozzi et al., J. Phys.:Condens. Matter 21 395502 (2009);
         "P. Giannozzi et al., J. Phys.:Condens. Matter 29 465901 (2017);
          URL http://www.quantum-espresso.org", 
     in publications or presentations arising from this work. More details at
     http://www.quantum-espresso.org/quote

     Parallel version (MPI), running on     6 processors

     MPI processes distributed on     1 nodes
     R & G space division:  proc/nbgrp/npool/nimage =       6
     Reading input from distance-2.0.in

     Current dimensions of program PWSCF are:
     Max number of different atomic species (ntypx) = 10
     Max number of k-points (npk) =  40000
     Max angular momentum in pseudopotentials (lmaxx) =  3

     IMPORTANT: XC functional enforced from input :
     Exchange-correlation      = RVV10 ( 1  4 13  4 3 0)
     Any further DFT definition will be discarded
     Please, verify this is what you really want

               file H.pbe-rrkjus.UPF: wavefunction(s)  1S renormalized

     Subspace diagonalization in iterative solution of the eigenvalue problem:
     a serial algorithm will be used


     Parallelization info
     --------------------
     sticks:   dense  smooth     PW     G-vecs:    dense   smooth      PW
     Min        3051    1746    432               270999   117096   14629
     Max        3053    1747    437               271001   117099   14630
     Sum       18313   10477   2611              1626001   702581   87777



     bravais-lattice index     =            4
     lattice parameter (alat)  =      23.2937  a.u.
     unit-cell volume          =    8879.8548 (a.u.)^3
     number of atoms/cell      =           52
     number of atomic types    =            3
     number of electrons       =       216.00
     number of Kohn-Sham states=          130
     kinetic-energy cutoff     =      70.0000  Ry
     charge density cutoff     =     490.0000  Ry
     convergence threshold     =      1.0E-06
     mixing beta               =       0.7000
     number of iterations used =            8  plain     mixing
     Exchange-correlation      = RVV10 ( 1  4 13  4 3 0)

     celldm(1)=  23.293684  celldm(2)=   0.000000  celldm(3)=   0.811261
     celldm(4)=   0.000000  celldm(5)=   0.000000  celldm(6)=   0.000000

     crystal axes: (cart. coord. in units of alat)
               a(1) = (   1.000000   0.000000   0.000000 )  
               a(2) = (  -0.500000   0.866025   0.000000 )  
               a(3) = (   0.000000   0.000000   0.811261 )  

     reciprocal axes: (cart. coord. in units 2 pi/alat)
               b(1) = (  1.000000  0.577350 -0.000000 )  
               b(2) = (  0.000000  1.154701  0.000000 )  
               b(3) = (  0.000000 -0.000000  1.232649 )  


     PseudoPot. # 1 for H  read from file:
     /home/cristian/Escritorio/Proyecto_Grafeno/pseudopotenciales/H.pbe-rrkjus.UPF
     MD5 check sum: 7cc9d459525c9a0585f487a71c3c9563
     Pseudo is Ultrasoft, Zval =  1.0
     Generated by new atomic code, or converted to UPF format
     Using radial grid of 1061 points,  2 beta functions with: 
                l(1) =   0
                l(2) =   0
     Q(r) pseudized with 0 coefficients 


     PseudoPot. # 2 for C  read from file:
     /home/cristian/Escritorio/Proyecto_Grafeno/pseudopotenciales/C.pbe-n-rrkjus_psl.1.0.0.UPF
     MD5 check sum: 1fdd950c42eb37d8afe3dd2f8d12311e
     Pseudo is Ultrasoft + core correction, Zval =  4.0
     Generated using "atomic" code by A. Dal Corso v.6.3MaX
     Using radial grid of 1073 points,  4 beta functions with: 
                l(1) =   0
                l(2) =   0
                l(3) =   1
                l(4) =   1
     Q(r) pseudized with 0 coefficients 


     PseudoPot. # 3 for Ni read from file:
     /home/cristian/Escritorio/Proyecto_Grafeno/pseudopotenciales/Ni.pbe-spn-rrkjus_psl.1.0.0.UPF
     MD5 check sum: 8b3fc9aac6dafe35f580d41bb18c3945
     Pseudo is Ultrasoft + core correction, Zval = 18.0
     Generated using "atomic" code by A. Dal Corso v.6.3
     Using radial grid of 1195 points,  6 beta functions with: 
                l(1) =   0
                l(2) =   0
                l(3) =   1
                l(4) =   1
                l(5) =   2
                l(6) =   2
     Q(r) pseudized with 0 coefficients 


     vdW kernel table read from file rVV10_kernel_table
     MD5 check sum: b8e2538accc0c0b3206b45ba4daaba6c

     atomic species   valence    mass     pseudopotential
        H              1.00     1.00794     H ( 1.00)
        C              4.00    12.01070     C ( 1.00)
        Ni            18.00    58.69340     Ni( 1.00)

     Starting magnetic structure 
     atomic species   magnetization
        H            0.500
        C            0.300
        Ni           0.800

     No symmetry found


                                    s                        frac. trans.

      isym =  1     identity                                     

 cryst.   s( 1) = (     1          0          0      )
                  (     0          1          0      )
                  (     0          0          1      )

 cart.    s( 1) = (  1.0000000  0.0000000  0.0000000 )
                  (  0.0000000  1.0000000  0.0000000 )
                  (  0.0000000  0.0000000  1.0000000 )


     point group C_1 (1)    
     there are  1 classes
     the character table:

       E    
A      1.00

     the symmetry operations in each class and the name of the first element:

     E        1
          identity                                               

   Cartesian axes

     site n.     atom                  positions (alat units)
         1           H   tau(   1) = (   0.2500000   0.4907477   0.1622522  )
         2           H   tau(   2) = (   0.2500000   0.4907477   0.2232649  )
         3           C   tau(   3) = (   0.0000000   0.0000000   0.0000000  )
         4           C   tau(   4) = (   0.0000000   0.1154701   0.0000000  )
         5           C   tau(   5) = (  -0.1000000   0.1732051   0.0000000  )
         6           C   tau(   6) = (  -0.1000000   0.2886751   0.0000000  )
         7           C   tau(   7) = (  -0.2000000   0.3464102   0.0000000  )
         8           C   tau(   8) = (  -0.2000000   0.4618802   0.0000000  )
         9           C   tau(   9) = (  -0.3000000   0.5196152   0.0000000  )
        10           C   tau(  10) = (  -0.3000000   0.6350853   0.0000000  )
        11           C   tau(  11) = (  -0.4000000   0.6928203   0.0000000  )
        12           C   tau(  12) = (  -0.4000000   0.8082904   0.0000000  )
        13           C   tau(  13) = (   0.2000000   0.0000000   0.0000000  )
        14           C   tau(  14) = (   0.2000000   0.1154701   0.0000000  )
        15           C   tau(  15) = (   0.1000000   0.1732051   0.0000000  )
        16           C   tau(  16) = (   0.1000000   0.2886751   0.0000000  )
        17           C   tau(  17) = (   0.0000000   0.3464102   0.0000000  )
        18           C   tau(  18) = (   0.0000000   0.4618802   0.0000000  )
        19           C   tau(  19) = (  -0.1000000   0.5196152   0.0000000  )
        20           C   tau(  20) = (  -0.1000000   0.6350853   0.0000000  )
        21           C   tau(  21) = (  -0.2000000   0.6928203   0.0000000  )
        22           C   tau(  22) = (  -0.2000000   0.8082904   0.0000000  )
        23           C   tau(  23) = (   0.4000000   0.0000000   0.0000000  )
        24           C   tau(  24) = (   0.4000000   0.1154701   0.0000000  )
        25           C   tau(  25) = (   0.3000000   0.1732051   0.0000000  )
        26           C   tau(  26) = (   0.3000000   0.2886751   0.0000000  )
        27           C   tau(  27) = (   0.2000000   0.3464102   0.0000000  )
        28           Ni  tau(  28) = (   0.2000000   0.4618802   0.0000000  )
        29           C   tau(  29) = (   0.1000000   0.5196152   0.0000000  )
        30           C   tau(  30) = (   0.1000000   0.6350853   0.0000000  )
        31           C   tau(  31) = (   0.0000000   0.6928203   0.0000000  )
        32           C   tau(  32) = (   0.0000000   0.8082904   0.0000000  )
        33           C   tau(  33) = (   0.6000000   0.0000000   0.0000000  )
        34           C   tau(  34) = (   0.6000000   0.1154701   0.0000000  )
        35           C   tau(  35) = (   0.5000000   0.1732051   0.0000000  )
        36           C   tau(  36) = (   0.5000000   0.2886751   0.0000000  )
        37           C   tau(  37) = (   0.4000000   0.3464102   0.0000000  )
        38           C   tau(  38) = (   0.4000000   0.4618802   0.0000000  )
        39           C   tau(  39) = (   0.3000000   0.5196152   0.0000000  )
        40           C   tau(  40) = (   0.3000000   0.6350853   0.0000000  )
        41           C   tau(  41) = (   0.2000000   0.6928203   0.0000000  )
        42           C   tau(  42) = (   0.2000000   0.8082904   0.0000000  )
        43           C   tau(  43) = (   0.8000000   0.0000000   0.0000000  )
        44           C   tau(  44) = (   0.8000000   0.1154701   0.0000000  )
        45           C   tau(  45) = (   0.7000000   0.1732051   0.0000000  )
        46           C   tau(  46) = (   0.7000000   0.2886751   0.0000000  )
        47           C   tau(  47) = (   0.6000000   0.3464102   0.0000000  )
        48           C   tau(  48) = (   0.6000000   0.4618802   0.0000000  )
        49           C   tau(  49) = (   0.5000000   0.5196152   0.0000000  )
        50           C   tau(  50) = (   0.5000000   0.6350853   0.0000000  )
        51           C   tau(  51) = (   0.4000000   0.6928203   0.0000000  )
        52           C   tau(  52) = (   0.4000000   0.8082904   0.0000000  )

   Crystallographic axes

     site n.     atom                  positions (cryst. coord.)
         1           H   tau(   1) = (  0.5333333  0.5666667  0.2000000  )
         2           H   tau(   2) = (  0.5333333  0.5666667  0.2752072  )
         3           C   tau(   3) = (  0.0000000  0.0000000  0.0000000  )
         4           C   tau(   4) = (  0.0666667  0.1333333  0.0000000  )
         5           C   tau(   5) = (  0.0000000  0.2000000  0.0000000  )
         6           C   tau(   6) = (  0.0666667  0.3333333  0.0000000  )
         7           C   tau(   7) = (  0.0000000  0.4000000  0.0000000  )
         8           C   tau(   8) = (  0.0666667  0.5333333  0.0000000  )
         9           C   tau(   9) = (  0.0000000  0.6000000  0.0000000  )
        10           C   tau(  10) = (  0.0666667  0.7333333  0.0000000  )
        11           C   tau(  11) = (  0.0000000  0.8000000  0.0000000  )
        12           C   tau(  12) = (  0.0666667  0.9333333  0.0000000  )
        13           C   tau(  13) = (  0.2000000  0.0000000  0.0000000  )
        14           C   tau(  14) = (  0.2666667  0.1333333  0.0000000  )
        15           C   tau(  15) = (  0.2000000  0.2000000  0.0000000  )
        16           C   tau(  16) = (  0.2666667  0.3333333  0.0000000  )
        17           C   tau(  17) = (  0.2000000  0.4000000  0.0000000  )
        18           C   tau(  18) = (  0.2666667  0.5333333  0.0000000  )
        19           C   tau(  19) = (  0.2000000  0.6000000  0.0000000  )
        20           C   tau(  20) = (  0.2666667  0.7333333  0.0000000  )
        21           C   tau(  21) = (  0.2000000  0.8000000  0.0000000  )
        22           C   tau(  22) = (  0.2666667  0.9333333  0.0000000  )
        23           C   tau(  23) = (  0.4000000  0.0000000  0.0000000  )
        24           C   tau(  24) = (  0.4666667  0.1333333  0.0000000  )
        25           C   tau(  25) = (  0.4000000  0.2000000  0.0000000  )
        26           C   tau(  26) = (  0.4666667  0.3333333  0.0000000  )
        27           C   tau(  27) = (  0.4000000  0.4000000  0.0000000  )
        28           Ni  tau(  28) = (  0.4666667  0.5333333  0.0000000  )
        29           C   tau(  29) = (  0.4000000  0.6000000  0.0000000  )
        30           C   tau(  30) = (  0.4666667  0.7333333  0.0000000  )
        31           C   tau(  31) = (  0.4000000  0.8000000  0.0000000  )
        32           C   tau(  32) = (  0.4666667  0.9333333  0.0000000  )
        33           C   tau(  33) = (  0.6000000  0.0000000  0.0000000  )
        34           C   tau(  34) = (  0.6666667  0.1333333  0.0000000  )
        35           C   tau(  35) = (  0.6000000  0.2000000  0.0000000  )
        36           C   tau(  36) = (  0.6666667  0.3333333  0.0000000  )
        37           C   tau(  37) = (  0.6000000  0.4000000  0.0000000  )
        38           C   tau(  38) = (  0.6666667  0.5333333  0.0000000  )
        39           C   tau(  39) = (  0.6000000  0.6000000  0.0000000  )
        40           C   tau(  40) = (  0.6666667  0.7333333  0.0000000  )
        41           C   tau(  41) = (  0.6000000  0.8000000  0.0000000  )
        42           C   tau(  42) = (  0.6666667  0.9333333  0.0000000  )
        43           C   tau(  43) = (  0.8000000  0.0000000  0.0000000  )
        44           C   tau(  44) = (  0.8666667  0.1333333  0.0000000  )
        45           C   tau(  45) = (  0.8000000  0.2000000  0.0000000  )
        46           C   tau(  46) = (  0.8666667  0.3333333  0.0000000  )
        47           C   tau(  47) = (  0.8000000  0.4000000  0.0000000  )
        48           C   tau(  48) = (  0.8666667  0.5333333  0.0000000  )
        49           C   tau(  49) = (  0.8000000  0.6000000  0.0000000  )
        50           C   tau(  50) = (  0.8666667  0.7333333  0.0000000  )
        51           C   tau(  51) = (  0.8000000  0.8000000  0.0000000  )
        52           C   tau(  52) = (  0.8666667  0.9333333  0.0000000  )

     number of k points=     1  Marzari-Vanderbilt smearing, width (Ry)=  0.0010
                       cart. coord. in units 2pi/alat
        k(    1) = (   0.0000000   0.0000000   0.0000000), wk =   1.0000000

                       cryst. coord.
        k(    1) = (   0.0000000   0.0000000   0.0000000), wk =   1.0000000

     Dense  grid:  1626001 G-vectors     FFT dimensions: ( 180, 180, 135)

     Smooth grid:   702581 G-vectors     FFT dimensions: ( 125, 125, 108)

     Dynamical RAM for                 wfc:      29.03 MB

     Dynamical RAM for     wfc (w. buffer):      87.10 MB

     Dynamical RAM for           str. fact:      12.41 MB

     Dynamical RAM for           local pot:       0.00 MB

     Dynamical RAM for          nlocal pot:      92.46 MB

     Dynamical RAM for                qrad:      19.73 MB

     Dynamical RAM for          rho,v,vnew:      58.92 MB

     Dynamical RAM for               rhoin:      19.64 MB

     Dynamical RAM for            rho*nmix:     132.32 MB

     Dynamical RAM for           G-vectors:      16.40 MB

     Dynamical RAM for          h,s,v(r/c):      12.38 MB

     Dynamical RAM for          <psi|beta>:       0.82 MB

     Dynamical RAM for                 psi:     116.14 MB

     Dynamical RAM for                hpsi:     116.14 MB

     Dynamical RAM for                spsi:     116.14 MB

     Dynamical RAM for      wfcinit/wfcrot:      93.90 MB

     Dynamical RAM for           addusdens:     975.89 MB

     Estimated static dynamical RAM per process >     489.64 MB

     Estimated max dynamical RAM per process >       1.43 GB

     Estimated total dynamical RAM >       8.59 GB
     Generating pointlists ...
     new r_m :   0.0252 (alat units)  0.5862 (a.u.) for type    1
     new r_m :   0.0476 (alat units)  1.1095 (a.u.) for type    2
     new r_m :   0.0476 (alat units)  1.1095 (a.u.) for type    3

     Check: negative core charge=   -0.000002

     Initial potential from superposition of free atoms

     starting charge  215.80530, renormalised to  216.00000

     negative rho (up, down):  1.632E-04 1.797E-02


---------------------------------------------------------------------------------
Carrying out rVV10 run using the following parameters:
Nqs =      20    Nr_points =    1024   r_max =   100.000
b_value =  6.30000    beta =  0.00901
     q_mesh =  0.00010000  0.00030000  0.00058939  0.00100810
               0.00161396  0.00249058  0.00375900  0.00559430
               0.00824984  0.01209221  0.01765183  0.02569619
               0.03733578  0.05417739  0.07854596  0.11380545
               0.16482331  0.23864234  0.34545298  0.50000000

Gradients computed in Reciprocal space

---------------------------------------------------------------------------------


     Starting wfcs are  208 randomized atomic wfcs

     total cpu time spent up to now is       89.9 secs

     Self-consistent Calculation

     iteration #  1     ecut=    70.00 Ry     beta= 0.70
     Davidson diagonalization with overlap
     ethr =  1.00E-02,  avg # of iterations =  6.0

     negative rho (up, down):  3.219E-04 1.565E-02

     total cpu time spent up to now is      254.8 secs

     total energy              =    -946.97583410 Ry
     Harris-Foulkes estimate   =    -949.67203586 Ry
     estimated scf accuracy    <      13.91285780 Ry

     total magnetization       =     6.00 Bohr mag/cell
     absolute magnetization    =     6.71 Bohr mag/cell

     iteration #  2     ecut=    70.00 Ry     beta= 0.70
     Davidson diagonalization with overlap
     ethr =  6.44E-03,  avg # of iterations =  3.0

     negative rho (up, down):  2.346E-02 3.427E-01

     total cpu time spent up to now is      390.1 secs

     total energy              =    -952.78916971 Ry
     Harris-Foulkes estimate   =    -956.25879548 Ry
     estimated scf accuracy    <      48.19059983 Ry

     total magnetization       =     4.00 Bohr mag/cell
     absolute magnetization    =    10.33 Bohr mag/cell

     iteration #  3     ecut=    70.00 Ry     beta= 0.70
     Davidson diagonalization with overlap
     ethr =  6.44E-03,  avg # of iterations =  3.0

     negative rho (up, down):  2.221E-02 5.495E-01

     total cpu time spent up to now is      502.8 secs

     total energy              =    -947.66289959 Ry
     Harris-Foulkes estimate   =    -965.69723920 Ry
     estimated scf accuracy    <     749.14690769 Ry

     total magnetization       =     0.00 Bohr mag/cell
     absolute magnetization    =    40.02 Bohr mag/cell

     iteration #  4     ecut=    70.00 Ry     beta= 0.70
     Davidson diagonalization with overlap
     ethr =  6.44E-03,  avg # of iterations =  4.5

     negative rho (up, down):  2.275E-02 5.088E-01

     total cpu time spent up to now is      621.1 secs

     total energy              =    -946.02320389 Ry
     Harris-Foulkes estimate   =    -953.66147669 Ry
     estimated scf accuracy    <     101.14554467 Ry

     total magnetization       =     2.00 Bohr mag/cell
     absolute magnetization    =    15.75 Bohr mag/cell

     iteration #  5     ecut=    70.00 Ry     beta= 0.70
     Davidson diagonalization with overlap
     ethr =  6.44E-03,  avg # of iterations =  3.5

     negative rho (up, down):  8.961E-02 3.127E-01

     total cpu time spent up to now is      749.1 secs

     total energy              =    -954.79962977 Ry
     Harris-Foulkes estimate   =    -953.15236857 Ry
     estimated scf accuracy    <     114.61721319 Ry

     total magnetization       =    -0.00 Bohr mag/cell
     absolute magnetization    =    15.79 Bohr mag/cell

     iteration #  6     ecut=    70.00 Ry     beta= 0.70
     Davidson diagonalization with overlap
     ethr =  6.44E-03,  avg # of iterations =  3.0

     negative rho (up, down):  6.276E-02 4.924E-01

     total cpu time spent up to now is      872.2 secs

     total energy              =    -945.72444471 Ry
     Harris-Foulkes estimate   =    -958.73671405 Ry
     estimated scf accuracy    <     425.70427106 Ry

     total magnetization       =     2.00 Bohr mag/cell
     absolute magnetization    =    31.78 Bohr mag/cell

     iteration #  7     ecut=    70.00 Ry     beta= 0.70
     Davidson diagonalization with overlap
     ethr =  6.44E-03,  avg # of iterations =  3.0

     negative rho (up, down):  5.792E-02 3.844E-01

     total cpu time spent up to now is     1007.3 secs

     total energy              =    -950.10099248 Ry
     Harris-Foulkes estimate   =    -952.38993699 Ry
     estimated scf accuracy    <      18.92893090 Ry

     total magnetization       =     2.00 Bohr mag/cell
     absolute magnetization    =     3.71 Bohr mag/cell

     iteration #  8     ecut=    70.00 Ry     beta= 0.70
     Davidson diagonalization with overlap
     ethr =  6.44E-03,  avg # of iterations =  2.0

     negative rho (up, down):  3.842E-02 3.348E-01

     total cpu time spent up to now is     1118.1 secs

     total energy              =    -952.48029279 Ry
     Harris-Foulkes estimate   =    -952.15627116 Ry
     estimated scf accuracy    <      24.67105516 Ry

     total magnetization       =     0.00 Bohr mag/cell
     absolute magnetization    =     7.58 Bohr mag/cell

     iteration #  9     ecut=    70.00 Ry     beta= 0.70
     Davidson diagonalization with overlap
     ethr =  6.44E-03,  avg # of iterations =  1.0

     negative rho (up, down):  4.117E-02 4.088E-01

     total cpu time spent up to now is     1226.1 secs

     total energy              =    -950.95140263 Ry
     Harris-Foulkes estimate   =    -952.56423528 Ry
     estimated scf accuracy    <      46.79055047 Ry

     total magnetization       =     0.00 Bohr mag/cell
     absolute magnetization    =    10.31 Bohr mag/cell

     iteration # 10     ecut=    70.00 Ry     beta= 0.70
     Davidson diagonalization with overlap
     ethr =  6.44E-03,  avg # of iterations =  2.0

     negative rho (up, down):  3.646E-02 2.905E-01

     total cpu time spent up to now is     1339.0 secs

     total energy              =    -951.70276460 Ry
     Harris-Foulkes estimate   =    -951.84509098 Ry
     estimated scf accuracy    <       6.08259147 Ry

     total magnetization       =    -0.00 Bohr mag/cell
     absolute magnetization    =     2.93 Bohr mag/cell

     iteration # 11     ecut=    70.00 Ry     beta= 0.70
     Davidson diagonalization with overlap
     ethr =  2.82E-03,  avg # of iterations =  1.5

     negative rho (up, down):  5.627E-03 3.194E-01

     total cpu time spent up to now is     1454.4 secs

     total energy              =    -951.75645030 Ry
     Harris-Foulkes estimate   =    -951.86180510 Ry
     estimated scf accuracy    <       1.15457522 Ry

     total magnetization       =    -0.00 Bohr mag/cell
     absolute magnetization    =     1.43 Bohr mag/cell

     iteration # 12     ecut=    70.00 Ry     beta= 0.70
     Davidson diagonalization with overlap
     ethr =  5.35E-04,  avg # of iterations =  5.0

     negative rho (up, down):  1.905E-02 5.716E-02

     total cpu time spent up to now is     1582.0 secs

     total energy              =    -951.80589694 Ry
     Harris-Foulkes estimate   =    -951.90450822 Ry
     estimated scf accuracy    <       1.41623903 Ry

     total magnetization       =    -0.00 Bohr mag/cell
     absolute magnetization    =     0.83 Bohr mag/cell

     iteration # 13     ecut=    70.00 Ry     beta= 0.70
     Davidson diagonalization with overlap
     ethr =  5.35E-04,  avg # of iterations =  4.5

     negative rho (up, down):  1.116E-02 1.068E-01

     total cpu time spent up to now is     1705.5 secs

     total energy              =    -951.81888877 Ry
     Harris-Foulkes estimate   =    -951.88035442 Ry
     estimated scf accuracy    <       0.74688132 Ry

     total magnetization       =     0.00 Bohr mag/cell
     absolute magnetization    =     0.61 Bohr mag/cell

     iteration # 14     ecut=    70.00 Ry     beta= 0.70
     Davidson diagonalization with overlap
     ethr =  3.46E-04,  avg # of iterations =  2.0

     negative rho (up, down):  3.521E-03 1.598E-01

     total cpu time spent up to now is     1819.0 secs

     total energy              =    -951.85182465 Ry
     Harris-Foulkes estimate   =    -951.86949940 Ry
     estimated scf accuracy    <       0.15766209 Ry

     total magnetization       =     0.00 Bohr mag/cell
     absolute magnetization    =     0.47 Bohr mag/cell

     iteration # 15     ecut=    70.00 Ry     beta= 0.70
     Davidson diagonalization with overlap
     ethr =  7.30E-05,  avg # of iterations =  5.5

     negative rho (up, down):  1.463E-02 3.201E-01

     total cpu time spent up to now is     1933.9 secs

     total energy              =    -951.89736739 Ry
     Harris-Foulkes estimate   =    -951.89247652 Ry
     estimated scf accuracy    <       1.54370970 Ry

     total magnetization       =    -0.00 Bohr mag/cell
     absolute magnetization    =     1.75 Bohr mag/cell

     iteration # 16     ecut=    70.00 Ry     beta= 0.70
     Davidson diagonalization with overlap
     ethr =  7.30E-05,  avg # of iterations =  2.5

     negative rho (up, down):  1.165E-02 3.711E-01

     total cpu time spent up to now is     2039.3 secs

     total energy              =    -951.82187158 Ry
     Harris-Foulkes estimate   =    -951.90290994 Ry
     estimated scf accuracy    <       2.67255008 Ry

     total magnetization       =     0.00 Bohr mag/cell
     absolute magnetization    =     2.46 Bohr mag/cell

     iteration # 17     ecut=    70.00 Ry     beta= 0.70
     Davidson diagonalization with overlap
     ethr =  7.30E-05,  avg # of iterations =  2.5

     negative rho (up, down):  4.949E-03 3.086E-01

     total cpu time spent up to now is     2147.6 secs

     total energy              =    -951.87108128 Ry
     Harris-Foulkes estimate   =    -951.85971967 Ry
     estimated scf accuracy    <       0.61645939 Ry

     total magnetization       =    -0.00 Bohr mag/cell
     absolute magnetization    =     1.12 Bohr mag/cell

     iteration # 18     ecut=    70.00 Ry     beta= 0.70
     Davidson diagonalization with overlap
     ethr =  7.30E-05,  avg # of iterations =  2.5

     negative rho (up, down):  8.680E-03 2.733E-01

     total cpu time spent up to now is     2252.2 secs

     total energy              =    -951.86480106 Ry
     Harris-Foulkes estimate   =    -951.87298872 Ry
     estimated scf accuracy    <       0.86186641 Ry

     total magnetization       =    -0.00 Bohr mag/cell
     absolute magnetization    =     1.38 Bohr mag/cell

     iteration # 19     ecut=    70.00 Ry     beta= 0.70
     Davidson diagonalization with overlap
     ethr =  7.30E-05,  avg # of iterations =  2.0

     negative rho (up, down):  7.535E-03 2.962E-01

     total cpu time spent up to now is     2360.8 secs

     total energy              =    -951.84431429 Ry
     Harris-Foulkes estimate   =    -951.88060575 Ry
     estimated scf accuracy    <       1.42742367 Ry

     total magnetization       =    -0.00 Bohr mag/cell
     absolute magnetization    =     1.80 Bohr mag/cell

     iteration # 20     ecut=    70.00 Ry     beta= 0.70
     Davidson diagonalization with overlap
     ethr =  7.30E-05,  avg # of iterations =  3.0

     negative rho (up, down):  2.472E-03 2.879E-01

     total cpu time spent up to now is     2471.0 secs

     total energy              =    -951.85742910 Ry
     Harris-Foulkes estimate   =    -951.86225835 Ry
     estimated scf accuracy    <       0.25304289 Ry

     total magnetization       =    -0.00 Bohr mag/cell
     absolute magnetization    =     0.74 Bohr mag/cell

     iteration # 21     ecut=    70.00 Ry     beta= 0.70
     Davidson diagonalization with overlap
     ethr =  7.30E-05,  avg # of iterations =  2.0

     negative rho (up, down):  3.001E-03 2.686E-01

     total cpu time spent up to now is     2573.6 secs

     total energy              =    -951.84843089 Ry
     Harris-Foulkes estimate   =    -951.86336477 Ry
     estimated scf accuracy    <       0.24834498 Ry

     total magnetization       =    -0.00 Bohr mag/cell
     absolute magnetization    =     0.75 Bohr mag/cell

     iteration # 22     ecut=    70.00 Ry     beta= 0.70
     Davidson diagonalization with overlap
     ethr =  7.30E-05,  avg # of iterations =  3.0

     negative rho (up, down):  1.805E-03 1.088E-01

     total cpu time spent up to now is     2683.0 secs

     total energy              =    -951.85960286 Ry
     Harris-Foulkes estimate   =    -951.86156706 Ry
     estimated scf accuracy    <       0.04441914 Ry

     total magnetization       =     0.00 Bohr mag/cell
     absolute magnetization    =     0.24 Bohr mag/cell

     iteration # 23     ecut=    70.00 Ry     beta= 0.70
     Davidson diagonalization with overlap
     ethr =  2.06E-05,  avg # of iterations =  5.0

     negative rho (up, down):  4.076E-03 8.121E-02

     total cpu time spent up to now is     2796.2 secs

     total energy              =    -951.85999364 Ry
     Harris-Foulkes estimate   =    -951.86414870 Ry
     estimated scf accuracy    <       0.07283394 Ry

     total magnetization       =     0.00 Bohr mag/cell
     absolute magnetization    =     0.21 Bohr mag/cell

     iteration # 24     ecut=    70.00 Ry     beta= 0.70
     Davidson diagonalization with overlap
     ethr =  2.06E-05,  avg # of iterations =  2.0

     negative rho (up, down):  1.432E-03 1.228E-01

     total cpu time spent up to now is     2901.0 secs

     total energy              =    -951.86216735 Ry
     Harris-Foulkes estimate   =    -951.86206815 Ry
     estimated scf accuracy    <       0.00781204 Ry

     total magnetization       =    -0.00 Bohr mag/cell
     absolute magnetization    =     0.16 Bohr mag/cell

     iteration # 25     ecut=    70.00 Ry     beta= 0.70
     Davidson diagonalization with overlap
     ethr =  3.62E-06,  avg # of iterations =  4.0

     negative rho (up, down):  1.751E-03 6.298E-02

     total cpu time spent up to now is     3013.8 secs

     total energy              =    -951.86330903 Ry
     Harris-Foulkes estimate   =    -951.86314865 Ry
     estimated scf accuracy    <       0.01182587 Ry

     total magnetization       =    -0.00 Bohr mag/cell
     absolute magnetization    =     0.12 Bohr mag/cell

     iteration # 26     ecut=    70.00 Ry     beta= 0.70
     Davidson diagonalization with overlap
     ethr =  3.62E-06,  avg # of iterations =  4.0

     negative rho (up, down):  8.596E-03 3.158E-01

     total cpu time spent up to now is     3143.6 secs

     total energy              =    -951.85355978 Ry
     Harris-Foulkes estimate   =    -951.88114254 Ry
     estimated scf accuracy    <       1.27358015 Ry

     total magnetization       =    -0.00 Bohr mag/cell
     absolute magnetization    =     1.67 Bohr mag/cell

     iteration # 27     ecut=    70.00 Ry     beta= 0.70
     Davidson diagonalization with overlap
     ethr =  3.62E-06,  avg # of iterations =  5.0

     negative rho (up, down):  1.428E-02 2.190E-01

     total cpu time spent up to now is     3267.2 secs

     total energy              =    -951.85341906 Ry
     Harris-Foulkes estimate   =    -951.86182656 Ry
     estimated scf accuracy    <       0.33543317 Ry

     total magnetization       =    -0.00 Bohr mag/cell
     absolute magnetization    =     0.65 Bohr mag/cell

     iteration # 28     ecut=    70.00 Ry     beta= 0.70
     Davidson diagonalization with overlap
     ethr =  3.62E-06,  avg # of iterations =  3.5

     negative rho (up, down):  3.558E-03 1.869E-01

     total cpu time spent up to now is     3388.9 secs

     total energy              =    -951.86199209 Ry
     Harris-Foulkes estimate   =    -951.85833939 Ry
     estimated scf accuracy    <       0.01953260 Ry

     total magnetization       =     0.00 Bohr mag/cell
     absolute magnetization    =     0.21 Bohr mag/cell

     iteration # 29     ecut=    70.00 Ry     beta= 0.70
     Davidson diagonalization with overlap
     ethr =  3.62E-06,  avg # of iterations =  3.0

     negative rho (up, down):  1.855E-03 1.981E-01

     total cpu time spent up to now is     3498.0 secs

     total energy              =    -951.86121433 Ry
     Harris-Foulkes estimate   =    -951.86236572 Ry
     estimated scf accuracy    <       0.04847541 Ry

     total magnetization       =    -0.00 Bohr mag/cell
     absolute magnetization    =     0.34 Bohr mag/cell

     iteration # 30     ecut=    70.00 Ry     beta= 0.70
     Davidson diagonalization with overlap
     ethr =  3.62E-06,  avg # of iterations =  3.5

     negative rho (up, down):  2.098E-03 1.248E-01

     total cpu time spent up to now is     3611.0 secs

     total energy              =    -951.86365107 Ry
     Harris-Foulkes estimate   =    -951.86217115 Ry
     estimated scf accuracy    <       0.01385499 Ry

     total magnetization       =     0.00 Bohr mag/cell
     absolute magnetization    =     0.16 Bohr mag/cell

     iteration # 31     ecut=    70.00 Ry     beta= 0.70
     Davidson diagonalization with overlap
     ethr =  3.62E-06,  avg # of iterations =  2.5

     negative rho (up, down):  3.091E-03 2.342E-01

     total cpu time spent up to now is     3727.1 secs

     total energy              =    -951.85615320 Ry
     Harris-Foulkes estimate   =    -951.86610932 Ry
     estimated scf accuracy    <       0.21562936 Ry

     total magnetization       =     0.00 Bohr mag/cell
     absolute magnetization    =     0.69 Bohr mag/cell

     iteration # 32     ecut=    70.00 Ry     beta= 0.70
     Davidson diagonalization with overlap
     ethr =  3.62E-06,  avg # of iterations =  3.5

     negative rho (up, down):  1.299E-03 1.292E-01

     total cpu time spent up to now is     3848.8 secs

     total energy              =    -951.86230257 Ry
     Harris-Foulkes estimate   =    -951.86049920 Ry
     estimated scf accuracy    <       0.00268047 Ry

     total magnetization       =    -0.05 Bohr mag/cell
     absolute magnetization    =     0.11 Bohr mag/cell

     iteration # 33     ecut=    70.00 Ry     beta= 0.70
     Davidson diagonalization with overlap
     ethr =  1.24E-06,  avg # of iterations =  4.0

     negative rho (up, down):  1.421E-03 6.837E-02

     total cpu time spent up to now is     3962.6 secs

     total energy              =    -951.86276222 Ry
     Harris-Foulkes estimate   =    -951.86277662 Ry
     estimated scf accuracy    <       0.00395291 Ry

     total magnetization       =    -0.00 Bohr mag/cell
     absolute magnetization    =     0.06 Bohr mag/cell

     iteration # 34     ecut=    70.00 Ry     beta= 0.70
     Davidson diagonalization with overlap
     ethr =  1.24E-06,  avg # of iterations =  2.5

     negative rho (up, down):  1.199E-03 4.949E-02

     total cpu time spent up to now is     4070.3 secs

     total energy              =    -951.86290820 Ry
     Harris-Foulkes estimate   =    -951.86290604 Ry
     estimated scf accuracy    <       0.00125301 Ry

     total magnetization       =     0.00 Bohr mag/cell
     absolute magnetization    =     0.04 Bohr mag/cell

     iteration # 35     ecut=    70.00 Ry     beta= 0.70
     Davidson diagonalization with overlap
     ethr =  5.80E-07,  avg # of iterations =  2.0

     negative rho (up, down):  1.180E-03 8.736E-03

     total cpu time spent up to now is     4174.8 secs

     total energy              =    -951.86298482 Ry
     Harris-Foulkes estimate   =    -951.86300141 Ry
     estimated scf accuracy    <       0.00029868 Ry

     total magnetization       =    -0.00 Bohr mag/cell
     absolute magnetization    =     0.02 Bohr mag/cell

     iteration # 36     ecut=    70.00 Ry     beta= 0.70
     Davidson diagonalization with overlap
     ethr =  1.38E-07,  avg # of iterations =  3.0

     negative rho (up, down):  1.238E-03 8.577E-02

     total cpu time spent up to now is     4288.7 secs

     total energy              =    -951.86291128 Ry
     Harris-Foulkes estimate   =    -951.86307532 Ry
     estimated scf accuracy    <       0.00350946 Ry

     total magnetization       =     0.00 Bohr mag/cell
     absolute magnetization    =     0.09 Bohr mag/cell

     iteration # 37     ecut=    70.00 Ry     beta= 0.70
     Davidson diagonalization with overlap
     ethr =  1.38E-07,  avg # of iterations =  3.0

     negative rho (up, down):  1.245E-03 6.606E-02

     total cpu time spent up to now is     4398.4 secs

     total energy              =    -951.86293046 Ry
     Harris-Foulkes estimate   =    -951.86292593 Ry
     estimated scf accuracy    <       0.00094414 Ry

     total magnetization       =     0.00 Bohr mag/cell
     absolute magnetization    =     0.05 Bohr mag/cell

     iteration # 38     ecut=    70.00 Ry     beta= 0.70
     Davidson diagonalization with overlap
     ethr =  1.38E-07,  avg # of iterations =  2.5

     negative rho (up, down):  1.291E-03 1.812E-02

     total cpu time spent up to now is     4507.0 secs

     total energy              =    -951.86299288 Ry
     Harris-Foulkes estimate   =    -951.86299821 Ry
     estimated scf accuracy    <       0.00138196 Ry

     total magnetization       =     0.00 Bohr mag/cell
     absolute magnetization    =     0.03 Bohr mag/cell

     iteration # 39     ecut=    70.00 Ry     beta= 0.70
     Davidson diagonalization with overlap
     ethr =  1.38E-07,  avg # of iterations =  3.0

     negative rho (up, down):  1.243E-03 1.283E-01

     total cpu time spent up to now is     4626.4 secs

     total energy              =    -951.86254130 Ry
     Harris-Foulkes estimate   =    -951.86318250 Ry
     estimated scf accuracy    <       0.01239084 Ry

     total magnetization       =    -0.00 Bohr mag/cell
     absolute magnetization    =     0.17 Bohr mag/cell

     iteration # 40     ecut=    70.00 Ry     beta= 0.70
     Davidson diagonalization with overlap
     ethr =  1.38E-07,  avg # of iterations =  3.0

     negative rho (up, down):  1.197E-03 5.282E-02

     total cpu time spent up to now is     4746.4 secs

     total energy              =    -951.86296931 Ry
     Harris-Foulkes estimate   =    -951.86272943 Ry
     estimated scf accuracy    <       0.00009864 Ry

     total magnetization       =     0.00 Bohr mag/cell
     absolute magnetization    =     0.02 Bohr mag/cell

     iteration # 41     ecut=    70.00 Ry     beta= 0.70
     Davidson diagonalization with overlap
     ethr =  4.57E-08,  avg # of iterations =  2.0

     negative rho (up, down):  1.189E-03 2.774E-02

     total cpu time spent up to now is     4860.2 secs

     total energy              =    -951.86302135 Ry
     Harris-Foulkes estimate   =    -951.86299113 Ry
     estimated scf accuracy    <       0.00034379 Ry

     total magnetization       =    -0.00 Bohr mag/cell
     absolute magnetization    =     0.03 Bohr mag/cell

     iteration # 42     ecut=    70.00 Ry     beta= 0.70
     Davidson diagonalization with overlap
     ethr =  4.57E-08,  avg # of iterations =  1.5

     negative rho (up, down):  1.194E-03 2.349E-02

     total cpu time spent up to now is     4963.5 secs

     total energy              =    -951.86302107 Ry
     Harris-Foulkes estimate   =    -951.86302399 Ry
     estimated scf accuracy    <       0.00019140 Ry

     total magnetization       =     0.00 Bohr mag/cell
     absolute magnetization    =     0.02 Bohr mag/cell

     iteration # 43     ecut=    70.00 Ry     beta= 0.70
     Davidson diagonalization with overlap
     ethr =  4.57E-08,  avg # of iterations =  2.0

     negative rho (up, down):  1.190E-03 2.133E-02

     total cpu time spent up to now is     5066.3 secs

     total energy              =    -951.86302421 Ry
     Harris-Foulkes estimate   =    -951.86302462 Ry
     estimated scf accuracy    <       0.00014825 Ry

     total magnetization       =     0.00 Bohr mag/cell
     absolute magnetization    =     0.02 Bohr mag/cell

     iteration # 44     ecut=    70.00 Ry     beta= 0.70
     Davidson diagonalization with overlap
     ethr =  4.57E-08,  avg # of iterations =  2.0

     negative rho (up, down):  1.199E-03 1.888E-02

     total cpu time spent up to now is     5170.4 secs

     total energy              =    -951.86301700 Ry
     Harris-Foulkes estimate   =    -951.86302857 Ry
     estimated scf accuracy    <       0.00019745 Ry

     total magnetization       =     0.00 Bohr mag/cell
     absolute magnetization    =     0.02 Bohr mag/cell

     iteration # 45     ecut=    70.00 Ry     beta= 0.70
     Davidson diagonalization with overlap
     ethr =  4.57E-08,  avg # of iterations =  2.0

     negative rho (up, down):  1.190E-03 6.394E-03

     total cpu time spent up to now is     5276.6 secs

     total energy              =    -951.86302703 Ry
     Harris-Foulkes estimate   =    -951.86302490 Ry
     estimated scf accuracy    <       0.00002903 Ry

     total magnetization       =    -0.00 Bohr mag/cell
     absolute magnetization    =     0.01 Bohr mag/cell

     iteration # 46     ecut=    70.00 Ry     beta= 0.70
     Davidson diagonalization with overlap
     ethr =  1.34E-08,  avg # of iterations =  3.0

     negative rho (up, down):  1.194E-03 1.909E-02

     total cpu time spent up to now is     5386.3 secs

     total energy              =    -951.86303027 Ry
     Harris-Foulkes estimate   =    -951.86303433 Ry
     estimated scf accuracy    <       0.00017411 Ry

     total magnetization       =     0.00 Bohr mag/cell
     absolute magnetization    =     0.02 Bohr mag/cell

     iteration # 47     ecut=    70.00 Ry     beta= 0.70
     Davidson diagonalization with overlap
     ethr =  1.34E-08,  avg # of iterations =  1.5

     negative rho (up, down):  1.195E-03 3.182E-02

     total cpu time spent up to now is     5488.3 secs

     total energy              =    -951.86301348 Ry
     Harris-Foulkes estimate   =    -951.86303056 Ry
     estimated scf accuracy    <       0.00026713 Ry

     total magnetization       =    -0.00 Bohr mag/cell
     absolute magnetization    =     0.03 Bohr mag/cell

     iteration # 48     ecut=    70.00 Ry     beta= 0.70
     Davidson diagonalization with overlap
     ethr =  1.34E-08,  avg # of iterations =  2.0

     negative rho (up, down):  1.190E-03 9.534E-03

     total cpu time spent up to now is     5594.0 secs

     total energy              =    -951.86303009 Ry
     Harris-Foulkes estimate   =    -951.86301887 Ry
     estimated scf accuracy    <       0.00003068 Ry

     total magnetization       =     0.00 Bohr mag/cell
     absolute magnetization    =     0.01 Bohr mag/cell

     iteration # 49     ecut=    70.00 Ry     beta= 0.70
     Davidson diagonalization with overlap
     ethr =  1.34E-08,  avg # of iterations =  2.0

     negative rho (up, down):  1.189E-03 2.072E-02

     total cpu time spent up to now is     5703.5 secs

     total energy              =    -951.86302493 Ry
     Harris-Foulkes estimate   =    -951.86303392 Ry
     estimated scf accuracy    <       0.00020945 Ry

     total magnetization       =    -0.00 Bohr mag/cell
     absolute magnetization    =     0.02 Bohr mag/cell

     iteration # 50     ecut=    70.00 Ry     beta= 0.70
     Davidson diagonalization with overlap
     ethr =  1.34E-08,  avg # of iterations =  2.0

     negative rho (up, down):  1.189E-03 1.207E-02

     total cpu time spent up to now is     5810.3 secs

     total energy              =    -951.86302747 Ry
     Harris-Foulkes estimate   =    -951.86302717 Ry
     estimated scf accuracy    <       0.00002837 Ry

     total magnetization       =    -0.00 Bohr mag/cell
     absolute magnetization    =     0.01 Bohr mag/cell

     iteration # 51     ecut=    70.00 Ry     beta= 0.70
     Davidson diagonalization with overlap
     ethr =  1.31E-08,  avg # of iterations =  2.0

     negative rho (up, down):  1.190E-03 1.092E-02

     total cpu time spent up to now is     5919.4 secs

     total energy              =    -951.86303176 Ry
     Harris-Foulkes estimate   =    -951.86303153 Ry
     estimated scf accuracy    <       0.00006710 Ry

     total magnetization       =    -0.00 Bohr mag/cell
     absolute magnetization    =     0.01 Bohr mag/cell

     iteration # 52     ecut=    70.00 Ry     beta= 0.70
     Davidson diagonalization with overlap
     ethr =  1.31E-08,  avg # of iterations =  1.5

     negative rho (up, down):  1.192E-03 1.556E-02

     total cpu time spent up to now is     6021.0 secs

     total energy              =    -951.86302962 Ry
     Harris-Foulkes estimate   =    -951.86303211 Ry
     estimated scf accuracy    <       0.00010270 Ry

     total magnetization       =    -0.00 Bohr mag/cell
     absolute magnetization    =     0.02 Bohr mag/cell

     iteration # 53     ecut=    70.00 Ry     beta= 0.70
     Davidson diagonalization with overlap
     ethr =  1.31E-08,  avg # of iterations =  1.0

     negative rho (up, down):  1.192E-03 1.784E-02

     total cpu time spent up to now is     6122.8 secs

     total energy              =    -951.86302654 Ry
     Harris-Foulkes estimate   =    -951.86302966 Ry
     estimated scf accuracy    <       0.00010614 Ry

     total magnetization       =     0.00 Bohr mag/cell
     absolute magnetization    =     0.02 Bohr mag/cell

     iteration # 54     ecut=    70.00 Ry     beta= 0.70
     Davidson diagonalization with overlap
     ethr =  1.31E-08,  avg # of iterations =  2.0

     negative rho (up, down):  1.192E-03 1.330E-02

     total cpu time spent up to now is     6225.4 secs

     total energy              =    -951.86302646 Ry
     Harris-Foulkes estimate   =    -951.86302740 Ry
     estimated scf accuracy    <       0.00006016 Ry

     total magnetization       =     0.00 Bohr mag/cell
     absolute magnetization    =     0.01 Bohr mag/cell

     iteration # 55     ecut=    70.00 Ry     beta= 0.70
     Davidson diagonalization with overlap
     ethr =  1.31E-08,  avg # of iterations =  2.0

     negative rho (up, down):  1.189E-03 3.644E-03

     total cpu time spent up to now is     6331.2 secs

     total energy              =    -951.86303071 Ry
     Harris-Foulkes estimate   =    -951.86302846 Ry
     estimated scf accuracy    <       0.00000593 Ry

     total magnetization       =     0.00 Bohr mag/cell
     absolute magnetization    =     0.00 Bohr mag/cell

     iteration # 56     ecut=    70.00 Ry     beta= 0.70
     Davidson diagonalization with overlap
     ethr =  2.74E-09,  avg # of iterations =  3.0

     negative rho (up, down):  1.191E-03 9.130E-03

     total cpu time spent up to now is     6442.0 secs

     total energy              =    -951.86303179 Ry
     Harris-Foulkes estimate   =    -951.86303269 Ry
     estimated scf accuracy    <       0.00004378 Ry

     total magnetization       =     0.00 Bohr mag/cell
     absolute magnetization    =     0.01 Bohr mag/cell

     iteration # 57     ecut=    70.00 Ry     beta= 0.70
     Davidson diagonalization with overlap
     ethr =  2.74E-09,  avg # of iterations =  2.0

     negative rho (up, down):  1.190E-03 1.890E-02

     total cpu time spent up to now is     6546.7 secs

     total energy              =    -951.86302655 Ry
     Harris-Foulkes estimate   =    -951.86303204 Ry
     estimated scf accuracy    <       0.00009641 Ry

     total magnetization       =    -0.00 Bohr mag/cell
     absolute magnetization    =     0.02 Bohr mag/cell

     iteration # 58     ecut=    70.00 Ry     beta= 0.70
     Davidson diagonalization with overlap
     ethr =  2.74E-09,  avg # of iterations =  2.5

     negative rho (up, down):  1.195E-03 8.610E-03

     total cpu time spent up to now is     6659.1 secs

     total energy              =    -951.86302834 Ry
     Harris-Foulkes estimate   =    -951.86302973 Ry
     estimated scf accuracy    <       0.00007461 Ry

     total magnetization       =    -0.00 Bohr mag/cell
     absolute magnetization    =     0.01 Bohr mag/cell

     iteration # 59     ecut=    70.00 Ry     beta= 0.70
     Davidson diagonalization with overlap
     ethr =  2.74E-09,  avg # of iterations =  3.0

     negative rho (up, down):  1.190E-03 1.895E-02

     total cpu time spent up to now is     6775.5 secs

     total energy              =    -951.86302583 Ry
     Harris-Foulkes estimate   =    -951.86303155 Ry
     estimated scf accuracy    <       0.00016154 Ry

     total magnetization       =     0.00 Bohr mag/cell
     absolute magnetization    =     0.02 Bohr mag/cell

     iteration # 60     ecut=    70.00 Ry     beta= 0.70
     Davidson diagonalization with overlap
     ethr =  2.74E-09,  avg # of iterations =  2.5

     negative rho (up, down):  1.189E-03 1.095E-02

     total cpu time spent up to now is     6886.9 secs

     total energy              =    -951.86302915 Ry
     Harris-Foulkes estimate   =    -951.86302736 Ry
     estimated scf accuracy    <       0.00002000 Ry

     total magnetization       =    -0.00 Bohr mag/cell
     absolute magnetization    =     0.01 Bohr mag/cell

     iteration # 61     ecut=    70.00 Ry     beta= 0.70
     Davidson diagonalization with overlap
     ethr =  2.74E-09,  avg # of iterations =  2.0

     negative rho (up, down):  1.189E-03 5.087E-03

     total cpu time spent up to now is     6998.1 secs

     total energy              =    -951.86303172 Ry
     Harris-Foulkes estimate   =    -951.86303055 Ry
     estimated scf accuracy    <       0.00000991 Ry

     total magnetization       =    -0.00 Bohr mag/cell
     absolute magnetization    =     0.00 Bohr mag/cell

     iteration # 62     ecut=    70.00 Ry     beta= 0.70
     Davidson diagonalization with overlap
     ethr =  2.74E-09,  avg # of iterations =  2.0

     negative rho (up, down):  1.189E-03 5.103E-03

     total cpu time spent up to now is     7107.9 secs

     total energy              =    -951.86303185 Ry
     Harris-Foulkes estimate   =    -951.86303189 Ry
     estimated scf accuracy    <       0.00001300 Ry

     total magnetization       =     0.00 Bohr mag/cell
     absolute magnetization    =     0.01 Bohr mag/cell

     iteration # 63     ecut=    70.00 Ry     beta= 0.70
     Davidson diagonalization with overlap
     ethr =  2.74E-09,  avg # of iterations =  1.5

     negative rho (up, down):  1.189E-03 7.769E-03

     total cpu time spent up to now is     7223.4 secs

     total energy              =    -951.86303130 Ry
     Harris-Foulkes estimate   =    -951.86303197 Ry
     estimated scf accuracy    <       0.00002359 Ry

     total magnetization       =    -0.00 Bohr mag/cell
     absolute magnetization    =     0.01 Bohr mag/cell

     iteration # 64     ecut=    70.00 Ry     beta= 0.70
     Davidson diagonalization with overlap
     ethr =  2.74E-09,  avg # of iterations =  2.0

     negative rho (up, down):  1.190E-03 7.786E-03

     total cpu time spent up to now is     7339.9 secs

     total energy              =    -951.86303001 Ry
     Harris-Foulkes estimate   =    -951.86303148 Ry
     estimated scf accuracy    <       0.00002597 Ry

     total magnetization       =    -0.00 Bohr mag/cell
     absolute magnetization    =     0.01 Bohr mag/cell

     iteration # 65     ecut=    70.00 Ry     beta= 0.70
     Davidson diagonalization with overlap
     ethr =  2.74E-09,  avg # of iterations =  2.0

     negative rho (up, down):  1.189E-03 2.628E-03

     total cpu time spent up to now is     7469.1 secs

     total energy              =    -951.86303129 Ry
     Harris-Foulkes estimate   =    -951.86303106 Ry
     estimated scf accuracy    <       0.00000441 Ry

     total magnetization       =    -0.00 Bohr mag/cell
     absolute magnetization    =     0.00 Bohr mag/cell

     iteration # 66     ecut=    70.00 Ry     beta= 0.70
     Davidson diagonalization with overlap
     ethr =  2.04E-09,  avg # of iterations =  2.5

     negative rho (up, down):  1.190E-03 5.632E-03

     total cpu time spent up to now is     7590.8 secs

     total energy              =    -951.86303215 Ry
     Harris-Foulkes estimate   =    -951.86303236 Ry
     estimated scf accuracy    <       0.00001793 Ry

     total magnetization       =     0.00 Bohr mag/cell
     absolute magnetization    =     0.01 Bohr mag/cell

     iteration # 67     ecut=    70.00 Ry     beta= 0.70
     Davidson diagonalization with overlap
     ethr =  2.04E-09,  avg # of iterations =  2.0

     negative rho (up, down):  1.190E-03 1.361E-02

     total cpu time spent up to now is     7707.9 secs

     total energy              =    -951.86302919 Ry
     Harris-Foulkes estimate   =    -951.86303234 Ry
     estimated scf accuracy    <       0.00005070 Ry

     total magnetization       =    -0.00 Bohr mag/cell
     absolute magnetization    =     0.01 Bohr mag/cell

     iteration # 68     ecut=    70.00 Ry     beta= 0.70
     Davidson diagonalization with overlap
     ethr =  2.04E-09,  avg # of iterations =  2.0

     negative rho (up, down):  1.189E-03 4.603E-03

     total cpu time spent up to now is     7833.8 secs

     total energy              =    -951.86303160 Ry
     Harris-Foulkes estimate   =    -951.86303011 Ry
     estimated scf accuracy    <       0.00000654 Ry

     total magnetization       =    -0.00 Bohr mag/cell
     absolute magnetization    =     0.00 Bohr mag/cell

     iteration # 69     ecut=    70.00 Ry     beta= 0.70
     Davidson diagonalization with overlap
     ethr =  2.04E-09,  avg # of iterations =  2.0

     negative rho (up, down):  1.189E-03 8.014E-03

     total cpu time spent up to now is     7959.8 secs

     total energy              =    -951.86303111 Ry
     Harris-Foulkes estimate   =    -951.86303215 Ry
     estimated scf accuracy    <       0.00002968 Ry

     total magnetization       =     0.00 Bohr mag/cell
     absolute magnetization    =     0.01 Bohr mag/cell

     iteration # 70     ecut=    70.00 Ry     beta= 0.70
     Davidson diagonalization with overlap
     ethr =  2.04E-09,  avg # of iterations =  2.0

     negative rho (up, down):  1.189E-03 5.399E-03

     total cpu time spent up to now is     8078.5 secs

     total energy              =    -951.86303121 Ry
     Harris-Foulkes estimate   =    -951.86303133 Ry
     estimated scf accuracy    <       0.00000636 Ry

     total magnetization       =    -0.00 Bohr mag/cell
     absolute magnetization    =     0.00 Bohr mag/cell

     iteration # 71     ecut=    70.00 Ry     beta= 0.70
     Davidson diagonalization with overlap
     ethr =  2.04E-09,  avg # of iterations =  2.0

     negative rho (up, down):  1.189E-03 3.513E-03

     total cpu time spent up to now is     8199.3 secs

     total energy              =    -951.86303211 Ry
     Harris-Foulkes estimate   =    -951.86303177 Ry
     estimated scf accuracy    <       0.00000679 Ry

     total magnetization       =     0.00 Bohr mag/cell
     absolute magnetization    =     0.00 Bohr mag/cell

     iteration # 72     ecut=    70.00 Ry     beta= 0.70
     Davidson diagonalization with overlap
     ethr =  2.04E-09,  avg # of iterations =  2.0

     negative rho (up, down):  1.191E-03 8.039E-03

     total cpu time spent up to now is     8320.6 secs

     total energy              =    -951.86303089 Ry
     Harris-Foulkes estimate   =    -951.86303268 Ry
     estimated scf accuracy    <       0.00004583 Ry

     total magnetization       =    -0.00 Bohr mag/cell
     absolute magnetization    =     0.01 Bohr mag/cell

     iteration # 73     ecut=    70.00 Ry     beta= 0.70
     Davidson diagonalization with overlap
     ethr =  2.04E-09,  avg # of iterations =  2.0

     negative rho (up, down):  1.190E-03 1.068E-02

     total cpu time spent up to now is     8439.4 secs

     total energy              =    -951.86302984 Ry
     Harris-Foulkes estimate   =    -951.86303108 Ry
     estimated scf accuracy    <       0.00004179 Ry

     total magnetization       =     0.00 Bohr mag/cell
     absolute magnetization    =     0.01 Bohr mag/cell

     iteration # 74     ecut=    70.00 Ry     beta= 0.70
     Davidson diagonalization with overlap
     ethr =  2.04E-09,  avg # of iterations =  2.0

     negative rho (up, down):  1.190E-03 7.556E-03

     total cpu time spent up to now is     8561.0 secs

     total energy              =    -951.86303032 Ry
     Harris-Foulkes estimate   =    -951.86303011 Ry
     estimated scf accuracy    <       0.00001706 Ry

     total magnetization       =     0.00 Bohr mag/cell
     absolute magnetization    =     0.00 Bohr mag/cell

     iteration # 75     ecut=    70.00 Ry     beta= 0.70
     Davidson diagonalization with overlap
     ethr =  2.04E-09,  avg # of iterations =  2.0

     negative rho (up, down):  1.189E-03 5.853E-05

     Magnetic moment per site:
     atom:    1    charge:    0.2136    magn:   -0.0000    constr:    0.0000
     atom:    2    charge:    0.2158    magn:    0.0000    constr:    0.0000
     atom:    3    charge:    1.7155    magn:   -0.0000    constr:    0.0000
     atom:    4    charge:    1.7152    magn:    0.0000    constr:    0.0000
     atom:    5    charge:    1.7168    magn:   -0.0000    constr:    0.0000
     atom:    6    charge:    1.7146    magn:    0.0000    constr:    0.0000
     atom:    7    charge:    1.7168    magn:   -0.0000    constr:    0.0000
     atom:    8    charge:    1.7152    magn:    0.0000    constr:    0.0000
     atom:    9    charge:    1.7155    magn:   -0.0000    constr:    0.0000
     atom:   10    charge:    1.7176    magn:    0.0000    constr:    0.0000
     atom:   11    charge:    1.7155    magn:   -0.0000    constr:    0.0000
     atom:   12    charge:    1.7176    magn:    0.0000    constr:    0.0000
     atom:   13    charge:    1.7156    magn:   -0.0000    constr:    0.0000
     atom:   14    charge:    1.7175    magn:    0.0000    constr:    0.0000
     atom:   15    charge:    1.7118    magn:   -0.0000    constr:    0.0000
     atom:   16    charge:    1.7113    magn:    0.0000    constr:    0.0000
     atom:   17    charge:    1.7207    magn:   -0.0000    constr:    0.0000
     atom:   18    charge:    1.7113    magn:    0.0000    constr:    0.0000
     atom:   19    charge:    1.7118    magn:   -0.0000    constr:    0.0000
     atom:   20    charge:    1.7175    magn:    0.0000    constr:    0.0000
     atom:   21    charge:    1.7156    magn:   -0.0000    constr:    0.0000
     atom:   22    charge:    1.7176    magn:    0.0000    constr:    0.0000
     atom:   23    charge:    1.7155    magn:   -0.0000    constr:    0.0000
     atom:   24    charge:    1.7152    magn:    0.0000    constr:    0.0000
     atom:   25    charge:    1.7118    magn:   -0.0000    constr:    0.0000
     atom:   26    charge:    1.7111    magn:    0.0000    constr:    0.0000
     atom:   27    charge:    1.8195    magn:   -0.0000    constr:    0.0000
     atom:   28    charge:   13.4075    magn:    0.0000    constr:    0.0000
     atom:   29    charge:    1.8195    magn:   -0.0000    constr:    0.0000
     atom:   30    charge:    1.7111    magn:    0.0000    constr:    0.0000
     atom:   31    charge:    1.7118    magn:   -0.0000    constr:    0.0000
     atom:   32    charge:    1.7152    magn:    0.0000    constr:    0.0000
     atom:   33    charge:    1.7168    magn:   -0.0000    constr:    0.0000
     atom:   34    charge:    1.7154    magn:    0.0000    constr:    0.0000
     atom:   35    charge:    1.7168    magn:   -0.0000    constr:    0.0000
     atom:   36    charge:    1.7146    magn:    0.0000    constr:    0.0000
     atom:   37    charge:    1.7204    magn:   -0.0000    constr:    0.0000
     atom:   38    charge:    1.7117    magn:    0.0000    constr:    0.0000
     atom:   39    charge:    1.8215    magn:   -0.0000    constr:    0.0000
     atom:   40    charge:    1.7117    magn:    0.0000    constr:    0.0000
     atom:   41    charge:    1.7204    magn:   -0.0000    constr:    0.0000
     atom:   42    charge:    1.7146    magn:    0.0000    constr:    0.0000
     atom:   43    charge:    1.7167    magn:   -0.0000    constr:    0.0000
     atom:   44    charge:    1.7154    magn:    0.0000    constr:    0.0000
     atom:   45    charge:    1.7213    magn:   -0.0000    constr:    0.0000
     atom:   46    charge:    1.7154    magn:    0.0000    constr:    0.0000
     atom:   47    charge:    1.7167    magn:   -0.0000    constr:    0.0000
     atom:   48    charge:    1.7152    magn:    0.0000    constr:    0.0000
     atom:   49    charge:    1.7115    magn:   -0.0000    constr:    0.0000
     atom:   50    charge:    1.7175    magn:   -0.0000    constr:    0.0000
     atom:   51    charge:    1.7115    magn:   -0.0000    constr:    0.0000
     atom:   52    charge:    1.7152    magn:    0.0000    constr:    0.0000

     total cpu time spent up to now is     8681.8 secs

     End of self-consistent calculation

 ------ SPIN UP ------------


          k = 0.0000 0.0000 0.0000 ( 87777 PWs)   bands (ev):

  -107.9382 -69.1106 -69.0993 -67.0324 -19.8377 -19.0178 -19.0178 -18.8981
   -18.8979 -18.8133 -18.7513 -17.1763 -17.1715 -17.1377 -17.0913 -17.0900
   -16.7655 -16.3243 -16.3211 -16.1772 -16.1762 -16.1618 -15.6863 -14.3276
   -14.3201 -14.1597 -14.0262 -14.0252 -13.5269 -13.1391 -13.1384 -13.0867
   -12.9137 -12.9123 -12.5144 -12.0878 -12.0873 -11.7223 -11.5813 -11.5789
   -10.9510 -10.4467 -10.4447  -9.5878  -9.3759  -9.3752  -9.2358  -9.2214
    -9.2208  -9.2063  -8.9668  -8.9629  -8.6043  -8.6040  -8.4695  -8.1804
    -7.9276  -7.9117  -7.8737  -7.6761  -7.5540  -7.5523  -7.4593  -7.4583
    -7.1830  -6.8560  -6.8306  -6.8301  -6.7566  -6.6301  -6.6283  -6.5649
    -6.5599  -6.5594  -6.5300  -6.4657  -6.4401  -6.4242  -6.3001  -6.2999
    -6.1198  -5.5572  -5.5542  -5.0405  -4.9590  -4.8533  -4.8517  -4.7664
    -4.7273  -4.7251  -4.4124  -4.4090  -4.4006  -3.8468  -3.8462  -3.7731
    -3.7691  -3.7689  -3.5760  -3.4310  -3.4276  -3.2244  -1.9013  -1.8153
    -1.8145  -1.6067  -1.6001  -1.1426   0.0695   0.0816   0.8941   0.9514
     0.9534   1.1917   1.2020   1.5389   2.4978   2.7885   2.7941   2.8447
     3.0080   3.0251   3.4298   3.6327   3.6437   3.7409   3.7419   3.7656
     3.9230   4.2264

     occupation numbers 
     1.0000   1.0000   1.0000   1.0000   1.0000   1.0000   1.0000   1.0000
     1.0000   1.0000   1.0000   1.0000   1.0000   1.0000   1.0000   1.0000
     1.0000   1.0000   1.0000   1.0000   1.0000   1.0000   1.0000   1.0000
     1.0000   1.0000   1.0000   1.0000   1.0000   1.0000   1.0000   1.0000
     1.0000   1.0000   1.0000   1.0000   1.0000   1.0000   1.0000   1.0000
     1.0000   1.0000   1.0000   1.0000   1.0000   1.0000   1.0000   1.0000
     1.0000   1.0000   1.0000   1.0000   1.0000   1.0000   1.0000   1.0000
     1.0000   1.0000   1.0000   1.0000   1.0000   1.0000   1.0000   1.0000
     1.0000   1.0000   1.0000   1.0000   1.0000   1.0000   1.0000   1.0000
     1.0000   1.0000   1.0000   1.0000   1.0000   1.0000   1.0000   1.0000
     1.0000   1.0000   1.0000   1.0000   1.0000   1.0000   1.0000   1.0000
     1.0000   1.0000   1.0000   1.0000   1.0000   1.0000   1.0000   1.0000
     1.0000   1.0000   1.0000   1.0000   1.0000   1.0000   1.0000   1.0000
     1.0000   1.0000   1.0000   1.0000   0.0000   0.0000   0.0000   0.0000
     0.0000   0.0000   0.0000   0.0000   0.0000   0.0000   0.0000   0.0000
     0.0000   0.0000   0.0000   0.0000   0.0000   0.0000   0.0000   0.0000
     0.0000   0.0000

 ------ SPIN DOWN ----------


          k = 0.0000 0.0000 0.0000 ( 87777 PWs)   bands (ev):

  -107.9381 -69.1105 -69.0992 -67.0324 -19.8377 -19.0178 -19.0178 -18.8981
   -18.8979 -18.8133 -18.7513 -17.1764 -17.1715 -17.1377 -17.0913 -17.0900
   -16.7655 -16.3243 -16.3211 -16.1772 -16.1762 -16.1618 -15.6863 -14.3276
   -14.3201 -14.1597 -14.0262 -14.0252 -13.5269 -13.1391 -13.1384 -13.0867
   -12.9137 -12.9123 -12.5144 -12.0878 -12.0873 -11.7223 -11.5813 -11.5789
   -10.9510 -10.4467 -10.4447  -9.5878  -9.3759  -9.3752  -9.2358  -9.2214
    -9.2208  -9.2063  -8.9668  -8.9629  -8.6043  -8.6040  -8.4695  -8.1804
    -7.9276  -7.9117  -7.8736  -7.6761  -7.5541  -7.5523  -7.4593  -7.4583
    -7.1830  -6.8560  -6.8306  -6.8301  -6.7566  -6.6301  -6.6283  -6.5649
    -6.5599  -6.5594  -6.5300  -6.4657  -6.4401  -6.4242  -6.3001  -6.2999
    -6.1198  -5.5572  -5.5542  -5.0405  -4.9590  -4.8533  -4.8517  -4.7664
    -4.7273  -4.7251  -4.4124  -4.4090  -4.4006  -3.8468  -3.8462  -3.7731
    -3.7691  -3.7689  -3.5760  -3.4310  -3.4276  -3.2244  -1.9013  -1.8152
    -1.8145  -1.6067  -1.6001  -1.1426   0.0696   0.0815   0.8941   0.9514
     0.9534   1.1917   1.2020   1.5389   2.4979   2.7885   2.7941   2.8447
     3.0080   3.0251   3.4298   3.6329   3.6440   3.7409   3.7421   3.7656
     3.9232   4.2266

     occupation numbers 
     1.0000   1.0000   1.0000   1.0000   1.0000   1.0000   1.0000   1.0000
     1.0000   1.0000   1.0000   1.0000   1.0000   1.0000   1.0000   1.0000
     1.0000   1.0000   1.0000   1.0000   1.0000   1.0000   1.0000   1.0000
     1.0000   1.0000   1.0000   1.0000   1.0000   1.0000   1.0000   1.0000
     1.0000   1.0000   1.0000   1.0000   1.0000   1.0000   1.0000   1.0000
     1.0000   1.0000   1.0000   1.0000   1.0000   1.0000   1.0000   1.0000
     1.0000   1.0000   1.0000   1.0000   1.0000   1.0000   1.0000   1.0000
     1.0000   1.0000   1.0000   1.0000   1.0000   1.0000   1.0000   1.0000
     1.0000   1.0000   1.0000   1.0000   1.0000   1.0000   1.0000   1.0000
     1.0000   1.0000   1.0000   1.0000   1.0000   1.0000   1.0000   1.0000
     1.0000   1.0000   1.0000   1.0000   1.0000   1.0000   1.0000   1.0000
     1.0000   1.0000   1.0000   1.0000   1.0000   1.0000   1.0000   1.0000
     1.0000   1.0000   1.0000   1.0000   1.0000   1.0000   1.0000   1.0000
     1.0000   1.0000   1.0000   1.0000   0.0000   0.0000   0.0000   0.0000
     0.0000   0.0000   0.0000   0.0000   0.0000   0.0000   0.0000   0.0000
     0.0000   0.0000   0.0000   0.0000   0.0000   0.0000   0.0000   0.0000
     0.0000   0.0000

     the Fermi energy is    -1.0065 ev

!    total energy              =    -951.86303177 Ry
     Harris-Foulkes estimate   =    -951.86303076 Ry
     estimated scf accuracy    <       0.00000073 Ry

     The total energy is the sum of the following terms:

     one-electron contribution =   -2997.11895435 Ry
     hartree contribution      =    1541.14630720 Ry
     xc contribution           =    -265.78172151 Ry
     ewald contribution        =     769.89133688 Ry
     smearing contrib. (-TS)   =       0.00000000 Ry

     total magnetization       =     0.00 Bohr mag/cell
     absolute magnetization    =     0.00 Bohr mag/cell

     convergence has been achieved in  75 iterations

     Writing output data file distance-2.0.save/

     init_run     :     87.35s CPU     88.75s WALL (       1 calls)
     electrons    :   8452.46s CPU   8592.03s WALL (       1 calls)

     Called by init_run:
     wfcinit      :     55.71s CPU     56.00s WALL (       1 calls)
     wfcinit:atom :      0.05s CPU      0.09s WALL (       2 calls)
     wfcinit:wfcr :     55.27s CPU     55.45s WALL (       2 calls)
     potinit      :     13.44s CPU     13.93s WALL (       1 calls)
     hinit0       :      8.18s CPU      8.20s WALL (       1 calls)

     Called by electrons:
     c_bands      :   5472.16s CPU   5498.34s WALL (      75 calls)
     sum_band     :   1770.90s CPU   1818.07s WALL (      75 calls)
     v_of_rho     :    577.66s CPU    603.23s WALL (      76 calls)
     v_h          :      7.25s CPU      7.43s WALL (      76 calls)
     v_xc         :    570.41s CPU    595.80s WALL (      76 calls)
     newd         :    584.28s CPU    624.88s WALL (      76 calls)
     mix_rho      :     43.58s CPU     44.17s WALL (      75 calls)

     Called by c_bands:
     init_us_2    :     17.36s CPU     17.41s WALL (     302 calls)
     cegterg      :   5432.54s CPU   5458.50s WALL (     150 calls)

     Called by sum_band:
     sum_band:bec :      0.13s CPU      0.13s WALL (     150 calls)
     addusdens    :   1038.79s CPU   1082.15s WALL (      75 calls)

     Called by *egterg:
     h_psi        :   2956.40s CPU   2974.05s WALL (     547 calls)
     s_psi        :   1010.45s CPU   1010.81s WALL (     547 calls)
     g_psi        :      2.74s CPU      2.75s WALL (     395 calls)
     cdiaghg      :     35.95s CPU     35.97s WALL (     545 calls)
     cegterg:over :    586.83s CPU    587.10s WALL (     395 calls)
     cegterg:upda :    357.49s CPU    359.63s WALL (     395 calls)
     cegterg:last :    267.40s CPU    267.46s WALL (     150 calls)

     Called by h_psi:
     h_psi:pot    :   2953.35s CPU   2967.85s WALL (     547 calls)
     h_psi:calbec :   1004.27s CPU   1004.67s WALL (     547 calls)
     vloc_psi     :    938.81s CPU    952.64s WALL (     547 calls)
     add_vuspsi   :   1010.26s CPU   1010.53s WALL (     547 calls)

     General routines
     calbec       :   1452.65s CPU   1453.20s WALL (     697 calls)
     fft          :    348.37s CPU    359.01s WALL (    5694 calls)
     ffts         :      6.43s CPU      6.64s WALL (     302 calls)
     fftw         :   1003.95s CPU   1019.18s WALL (  107386 calls)
     interpolate  :     15.50s CPU     15.90s WALL (     152 calls)

     Parallel routines
     fft_scatt_xy :    261.24s CPU    263.84s WALL (  113382 calls)
     fft_scatt_yz :    437.55s CPU    457.03s WALL (  113382 calls)

     PWSCF        :      2h22m CPU      2h24m WALL


   This run was terminated on:  17:31:16  12Jan2023            

=------------------------------------------------------------------------------=
   JOB DONE.
=------------------------------------------------------------------------------=
