
     Program PWSCF v.6.4.1 starts on 23Dec2022 at 12:12: 1 

     This program is part of the open-source Quantum ESPRESSO suite
     for quantum simulation of materials; please cite
         "P. Giannozzi et al., J. Phys.:Condens. Matter 21 395502 (2009);
         "P. Giannozzi et al., J. Phys.:Condens. Matter 29 465901 (2017);
          URL http://www.quantum-espresso.org", 
     in publications or presentations arising from this work. More details at
     http://www.quantum-espresso.org/quote

     Parallel version (MPI), running on     6 processors

     MPI processes distributed on     1 nodes
     R & G space division:  proc/nbgrp/npool/nimage =       6
     Reading input from distance-2.6.in

     Current dimensions of program PWSCF are:
     Max number of different atomic species (ntypx) = 10
     Max number of k-points (npk) =  40000
     Max angular momentum in pseudopotentials (lmaxx) =  3

     IMPORTANT: XC functional enforced from input :
     Exchange-correlation      = RVV10 ( 1  4 13  4 3 0)
     Any further DFT definition will be discarded
     Please, verify this is what you really want

               file H.pbe-rrkjus.UPF: wavefunction(s)  1S renormalized

     Subspace diagonalization in iterative solution of the eigenvalue problem:
     a serial algorithm will be used


     Parallelization info
     --------------------
     sticks:   dense  smooth     PW     G-vecs:    dense   smooth      PW
     Min        3051    1746    432               270999   117096   14629
     Max        3053    1747    437               271001   117099   14630
     Sum       18313   10477   2611              1626001   702581   87777



     bravais-lattice index     =            4
     lattice parameter (alat)  =      23.2937  a.u.
     unit-cell volume          =    8879.8548 (a.u.)^3
     number of atoms/cell      =           52
     number of atomic types    =            3
     number of electrons       =       216.00
     number of Kohn-Sham states=          130
     kinetic-energy cutoff     =      70.0000  Ry
     charge density cutoff     =     490.0000  Ry
     convergence threshold     =      1.0E-06
     mixing beta               =       0.7000
     number of iterations used =            8  plain     mixing
     Exchange-correlation      = RVV10 ( 1  4 13  4 3 0)

     celldm(1)=  23.293684  celldm(2)=   0.000000  celldm(3)=   0.811261
     celldm(4)=   0.000000  celldm(5)=   0.000000  celldm(6)=   0.000000

     crystal axes: (cart. coord. in units of alat)
               a(1) = (   1.000000   0.000000   0.000000 )  
               a(2) = (  -0.500000   0.866025   0.000000 )  
               a(3) = (   0.000000   0.000000   0.811261 )  

     reciprocal axes: (cart. coord. in units 2 pi/alat)
               b(1) = (  1.000000  0.577350 -0.000000 )  
               b(2) = (  0.000000  1.154701  0.000000 )  
               b(3) = (  0.000000 -0.000000  1.232649 )  


     PseudoPot. # 1 for H  read from file:
     /home/cristian/Escritorio/Proyecto_Grafeno/pseudopotenciales/H.pbe-rrkjus.UPF
     MD5 check sum: 7cc9d459525c9a0585f487a71c3c9563
     Pseudo is Ultrasoft, Zval =  1.0
     Generated by new atomic code, or converted to UPF format
     Using radial grid of 1061 points,  2 beta functions with: 
                l(1) =   0
                l(2) =   0
     Q(r) pseudized with 0 coefficients 


     PseudoPot. # 2 for C  read from file:
     /home/cristian/Escritorio/Proyecto_Grafeno/pseudopotenciales/C.pbe-n-rrkjus_psl.1.0.0.UPF
     MD5 check sum: 1fdd950c42eb37d8afe3dd2f8d12311e
     Pseudo is Ultrasoft + core correction, Zval =  4.0
     Generated using "atomic" code by A. Dal Corso v.6.3MaX
     Using radial grid of 1073 points,  4 beta functions with: 
                l(1) =   0
                l(2) =   0
                l(3) =   1
                l(4) =   1
     Q(r) pseudized with 0 coefficients 


     PseudoPot. # 3 for Ni read from file:
     /home/cristian/Escritorio/Proyecto_Grafeno/pseudopotenciales/Ni.pbe-spn-rrkjus_psl.1.0.0.UPF
     MD5 check sum: 8b3fc9aac6dafe35f580d41bb18c3945
     Pseudo is Ultrasoft + core correction, Zval = 18.0
     Generated using "atomic" code by A. Dal Corso v.6.3
     Using radial grid of 1195 points,  6 beta functions with: 
                l(1) =   0
                l(2) =   0
                l(3) =   1
                l(4) =   1
                l(5) =   2
                l(6) =   2
     Q(r) pseudized with 0 coefficients 


     vdW kernel table read from file rVV10_kernel_table
     MD5 check sum: b8e2538accc0c0b3206b45ba4daaba6c

     atomic species   valence    mass     pseudopotential
        H              1.00     1.00794     H ( 1.00)
        C              4.00    12.01070     C ( 1.00)
        Ni            18.00    58.69340     Ni( 1.00)

     Starting magnetic structure 
     atomic species   magnetization
        H            0.500
        C            0.300
        Ni           0.800

     No symmetry found


                                    s                        frac. trans.

      isym =  1     identity                                     

 cryst.   s( 1) = (     1          0          0      )
                  (     0          1          0      )
                  (     0          0          1      )

 cart.    s( 1) = (  1.0000000  0.0000000  0.0000000 )
                  (  0.0000000  1.0000000  0.0000000 )
                  (  0.0000000  0.0000000  1.0000000 )


     point group C_1 (1)    
     there are  1 classes
     the character table:

       E    
A      1.00

     the symmetry operations in each class and the name of the first element:

     E        1
          identity                                               

   Cartesian axes

     site n.     atom                  positions (alat units)
         1           H   tau(   1) = (   0.2500000   0.4907477   0.2109279  )
         2           H   tau(   2) = (   0.2500000   0.4907477   0.2719406  )
         3           C   tau(   3) = (   0.0000000   0.0000000   0.0000000  )
         4           C   tau(   4) = (   0.0000000   0.1154701   0.0000000  )
         5           C   tau(   5) = (  -0.1000000   0.1732051   0.0000000  )
         6           C   tau(   6) = (  -0.1000000   0.2886751   0.0000000  )
         7           C   tau(   7) = (  -0.2000000   0.3464102   0.0000000  )
         8           C   tau(   8) = (  -0.2000000   0.4618802   0.0000000  )
         9           C   tau(   9) = (  -0.3000000   0.5196152   0.0000000  )
        10           C   tau(  10) = (  -0.3000000   0.6350853   0.0000000  )
        11           C   tau(  11) = (  -0.4000000   0.6928203   0.0000000  )
        12           C   tau(  12) = (  -0.4000000   0.8082904   0.0000000  )
        13           C   tau(  13) = (   0.2000000   0.0000000   0.0000000  )
        14           C   tau(  14) = (   0.2000000   0.1154701   0.0000000  )
        15           C   tau(  15) = (   0.1000000   0.1732051   0.0000000  )
        16           C   tau(  16) = (   0.1000000   0.2886751   0.0000000  )
        17           C   tau(  17) = (   0.0000000   0.3464102   0.0000000  )
        18           C   tau(  18) = (   0.0000000   0.4618802   0.0000000  )
        19           C   tau(  19) = (  -0.1000000   0.5196152   0.0000000  )
        20           C   tau(  20) = (  -0.1000000   0.6350853   0.0000000  )
        21           C   tau(  21) = (  -0.2000000   0.6928203   0.0000000  )
        22           C   tau(  22) = (  -0.2000000   0.8082904   0.0000000  )
        23           C   tau(  23) = (   0.4000000   0.0000000   0.0000000  )
        24           C   tau(  24) = (   0.4000000   0.1154701   0.0000000  )
        25           C   tau(  25) = (   0.3000000   0.1732051   0.0000000  )
        26           C   tau(  26) = (   0.3000000   0.2886751   0.0000000  )
        27           C   tau(  27) = (   0.2000000   0.3464102   0.0000000  )
        28           Ni  tau(  28) = (   0.2000000   0.4618802   0.0000000  )
        29           C   tau(  29) = (   0.1000000   0.5196152   0.0000000  )
        30           C   tau(  30) = (   0.1000000   0.6350853   0.0000000  )
        31           C   tau(  31) = (   0.0000000   0.6928203   0.0000000  )
        32           C   tau(  32) = (   0.0000000   0.8082904   0.0000000  )
        33           C   tau(  33) = (   0.6000000   0.0000000   0.0000000  )
        34           C   tau(  34) = (   0.6000000   0.1154701   0.0000000  )
        35           C   tau(  35) = (   0.5000000   0.1732051   0.0000000  )
        36           C   tau(  36) = (   0.5000000   0.2886751   0.0000000  )
        37           C   tau(  37) = (   0.4000000   0.3464102   0.0000000  )
        38           C   tau(  38) = (   0.4000000   0.4618802   0.0000000  )
        39           C   tau(  39) = (   0.3000000   0.5196152   0.0000000  )
        40           C   tau(  40) = (   0.3000000   0.6350853   0.0000000  )
        41           C   tau(  41) = (   0.2000000   0.6928203   0.0000000  )
        42           C   tau(  42) = (   0.2000000   0.8082904   0.0000000  )
        43           C   tau(  43) = (   0.8000000   0.0000000   0.0000000  )
        44           C   tau(  44) = (   0.8000000   0.1154701   0.0000000  )
        45           C   tau(  45) = (   0.7000000   0.1732051   0.0000000  )
        46           C   tau(  46) = (   0.7000000   0.2886751   0.0000000  )
        47           C   tau(  47) = (   0.6000000   0.3464102   0.0000000  )
        48           C   tau(  48) = (   0.6000000   0.4618802   0.0000000  )
        49           C   tau(  49) = (   0.5000000   0.5196152   0.0000000  )
        50           C   tau(  50) = (   0.5000000   0.6350853   0.0000000  )
        51           C   tau(  51) = (   0.4000000   0.6928203   0.0000000  )
        52           C   tau(  52) = (   0.4000000   0.8082904   0.0000000  )

   Crystallographic axes

     site n.     atom                  positions (cryst. coord.)
         1           H   tau(   1) = (  0.5333333  0.5666667  0.2600000  )
         2           H   tau(   2) = (  0.5333333  0.5666667  0.3352072  )
         3           C   tau(   3) = (  0.0000000  0.0000000  0.0000000  )
         4           C   tau(   4) = (  0.0666667  0.1333333  0.0000000  )
         5           C   tau(   5) = (  0.0000000  0.2000000  0.0000000  )
         6           C   tau(   6) = (  0.0666667  0.3333333  0.0000000  )
         7           C   tau(   7) = (  0.0000000  0.4000000  0.0000000  )
         8           C   tau(   8) = (  0.0666667  0.5333333  0.0000000  )
         9           C   tau(   9) = (  0.0000000  0.6000000  0.0000000  )
        10           C   tau(  10) = (  0.0666667  0.7333333  0.0000000  )
        11           C   tau(  11) = (  0.0000000  0.8000000  0.0000000  )
        12           C   tau(  12) = (  0.0666667  0.9333333  0.0000000  )
        13           C   tau(  13) = (  0.2000000  0.0000000  0.0000000  )
        14           C   tau(  14) = (  0.2666667  0.1333333  0.0000000  )
        15           C   tau(  15) = (  0.2000000  0.2000000  0.0000000  )
        16           C   tau(  16) = (  0.2666667  0.3333333  0.0000000  )
        17           C   tau(  17) = (  0.2000000  0.4000000  0.0000000  )
        18           C   tau(  18) = (  0.2666667  0.5333333  0.0000000  )
        19           C   tau(  19) = (  0.2000000  0.6000000  0.0000000  )
        20           C   tau(  20) = (  0.2666667  0.7333333  0.0000000  )
        21           C   tau(  21) = (  0.2000000  0.8000000  0.0000000  )
        22           C   tau(  22) = (  0.2666667  0.9333333  0.0000000  )
        23           C   tau(  23) = (  0.4000000  0.0000000  0.0000000  )
        24           C   tau(  24) = (  0.4666667  0.1333333  0.0000000  )
        25           C   tau(  25) = (  0.4000000  0.2000000  0.0000000  )
        26           C   tau(  26) = (  0.4666667  0.3333333  0.0000000  )
        27           C   tau(  27) = (  0.4000000  0.4000000  0.0000000  )
        28           Ni  tau(  28) = (  0.4666667  0.5333333  0.0000000  )
        29           C   tau(  29) = (  0.4000000  0.6000000  0.0000000  )
        30           C   tau(  30) = (  0.4666667  0.7333333  0.0000000  )
        31           C   tau(  31) = (  0.4000000  0.8000000  0.0000000  )
        32           C   tau(  32) = (  0.4666667  0.9333333  0.0000000  )
        33           C   tau(  33) = (  0.6000000  0.0000000  0.0000000  )
        34           C   tau(  34) = (  0.6666667  0.1333333  0.0000000  )
        35           C   tau(  35) = (  0.6000000  0.2000000  0.0000000  )
        36           C   tau(  36) = (  0.6666667  0.3333333  0.0000000  )
        37           C   tau(  37) = (  0.6000000  0.4000000  0.0000000  )
        38           C   tau(  38) = (  0.6666667  0.5333333  0.0000000  )
        39           C   tau(  39) = (  0.6000000  0.6000000  0.0000000  )
        40           C   tau(  40) = (  0.6666667  0.7333333  0.0000000  )
        41           C   tau(  41) = (  0.6000000  0.8000000  0.0000000  )
        42           C   tau(  42) = (  0.6666667  0.9333333  0.0000000  )
        43           C   tau(  43) = (  0.8000000  0.0000000  0.0000000  )
        44           C   tau(  44) = (  0.8666667  0.1333333  0.0000000  )
        45           C   tau(  45) = (  0.8000000  0.2000000  0.0000000  )
        46           C   tau(  46) = (  0.8666667  0.3333333  0.0000000  )
        47           C   tau(  47) = (  0.8000000  0.4000000  0.0000000  )
        48           C   tau(  48) = (  0.8666667  0.5333333  0.0000000  )
        49           C   tau(  49) = (  0.8000000  0.6000000  0.0000000  )
        50           C   tau(  50) = (  0.8666667  0.7333333  0.0000000  )
        51           C   tau(  51) = (  0.8000000  0.8000000  0.0000000  )
        52           C   tau(  52) = (  0.8666667  0.9333333  0.0000000  )

     number of k points=     1  Marzari-Vanderbilt smearing, width (Ry)=  0.0010
                       cart. coord. in units 2pi/alat
        k(    1) = (   0.0000000   0.0000000   0.0000000), wk =   1.0000000

                       cryst. coord.
        k(    1) = (   0.0000000   0.0000000   0.0000000), wk =   1.0000000

     Dense  grid:  1626001 G-vectors     FFT dimensions: ( 180, 180, 135)

     Smooth grid:   702581 G-vectors     FFT dimensions: ( 125, 125, 108)

     Dynamical RAM for                 wfc:      29.03 MB

     Dynamical RAM for     wfc (w. buffer):      87.10 MB

     Dynamical RAM for           str. fact:      12.41 MB

     Dynamical RAM for           local pot:       0.00 MB

     Dynamical RAM for          nlocal pot:      92.46 MB

     Dynamical RAM for                qrad:      19.73 MB

     Dynamical RAM for          rho,v,vnew:      58.92 MB

     Dynamical RAM for               rhoin:      19.64 MB

     Dynamical RAM for            rho*nmix:     132.32 MB

     Dynamical RAM for           G-vectors:      16.40 MB

     Dynamical RAM for          h,s,v(r/c):      12.38 MB

     Dynamical RAM for          <psi|beta>:       0.82 MB

     Dynamical RAM for                 psi:     116.14 MB

     Dynamical RAM for                hpsi:     116.14 MB

     Dynamical RAM for                spsi:     116.14 MB

     Dynamical RAM for      wfcinit/wfcrot:      93.90 MB

     Dynamical RAM for           addusdens:     975.89 MB

     Estimated static dynamical RAM per process >     489.64 MB

     Estimated max dynamical RAM per process >       1.43 GB

     Estimated total dynamical RAM >       8.59 GB
     Generating pointlists ...
     new r_m :   0.0252 (alat units)  0.5862 (a.u.) for type    1
     new r_m :   0.0476 (alat units)  1.1095 (a.u.) for type    2
     new r_m :   0.0476 (alat units)  1.1095 (a.u.) for type    3

     Check: negative core charge=   -0.000002

     Initial potential from superposition of free atoms

     starting charge  215.80530, renormalised to  216.00000

     negative rho (up, down):  1.446E-04 1.576E-02


---------------------------------------------------------------------------------
Carrying out rVV10 run using the following parameters:
Nqs =      20    Nr_points =    1024   r_max =   100.000
b_value =  6.30000    beta =  0.00901
     q_mesh =  0.00010000  0.00030000  0.00058939  0.00100810
               0.00161396  0.00249058  0.00375900  0.00559430
               0.00824984  0.01209221  0.01765183  0.02569619
               0.03733578  0.05417739  0.07854596  0.11380545
               0.16482331  0.23864234  0.34545298  0.50000000

Gradients computed in Reciprocal space

---------------------------------------------------------------------------------


     Starting wfcs are  208 randomized atomic wfcs

     total cpu time spent up to now is       78.7 secs

     Self-consistent Calculation

     iteration #  1     ecut=    70.00 Ry     beta= 0.70
     Davidson diagonalization with overlap
     ethr =  1.00E-02,  avg # of iterations =  5.0

     negative rho (up, down):  2.805E-04 1.383E-02

     total cpu time spent up to now is      212.9 secs

     total energy              =    -946.82271663 Ry
     Harris-Foulkes estimate   =    -949.70267358 Ry
     estimated scf accuracy    <      14.02208212 Ry

     total magnetization       =     6.00 Bohr mag/cell
     absolute magnetization    =     6.73 Bohr mag/cell

     iteration #  2     ecut=    70.00 Ry     beta= 0.70
     Davidson diagonalization with overlap
     ethr =  6.49E-03,  avg # of iterations =  3.5

     negative rho (up, down):  8.585E-03 2.543E-01

     total cpu time spent up to now is      332.6 secs

     total energy              =    -948.83031252 Ry
     Harris-Foulkes estimate   =    -956.84961494 Ry
     estimated scf accuracy    <      36.21414576 Ry

     total magnetization       =     4.00 Bohr mag/cell
     absolute magnetization    =     7.64 Bohr mag/cell

     iteration #  3     ecut=    70.00 Ry     beta= 0.70
     Davidson diagonalization with overlap
     ethr =  6.49E-03,  avg # of iterations =  3.5

     negative rho (up, down):  5.661E-02 5.287E-01

     total cpu time spent up to now is      447.7 secs

     total energy              =    -952.90171142 Ry
     Harris-Foulkes estimate   =    -961.20251001 Ry
     estimated scf accuracy    <     534.33573153 Ry

     total magnetization       =     0.20 Bohr mag/cell
     absolute magnetization    =    33.88 Bohr mag/cell

     iteration #  4     ecut=    70.00 Ry     beta= 0.70
     Davidson diagonalization with overlap
     ethr =  6.49E-03,  avg # of iterations =  2.5

     negative rho (up, down):  3.400E-02 5.107E-01

     total cpu time spent up to now is      549.6 secs

     total energy              =    -944.44161549 Ry
     Harris-Foulkes estimate   =    -954.85068407 Ry
     estimated scf accuracy    <     172.57747997 Ry

     total magnetization       =     2.00 Bohr mag/cell
     absolute magnetization    =    20.77 Bohr mag/cell

     iteration #  5     ecut=    70.00 Ry     beta= 0.70
     Davidson diagonalization with overlap
     ethr =  6.49E-03,  avg # of iterations =  4.0

     negative rho (up, down):  9.836E-02 2.011E-01

     total cpu time spent up to now is      670.6 secs

     total energy              =    -954.38694300 Ry
     Harris-Foulkes estimate   =    -952.81971143 Ry
     estimated scf accuracy    <      78.82708278 Ry

     total magnetization       =     1.98 Bohr mag/cell
     absolute magnetization    =    13.94 Bohr mag/cell

     iteration #  6     ecut=    70.00 Ry     beta= 0.70
     Davidson diagonalization with overlap
     ethr =  6.49E-03,  avg # of iterations =  3.0

     negative rho (up, down):  5.642E-02 5.130E-01

     total cpu time spent up to now is      776.6 secs

     total energy              =    -945.67385432 Ry
     Harris-Foulkes estimate   =    -961.01871700 Ry
     estimated scf accuracy    <     529.32122889 Ry

     total magnetization       =     2.00 Bohr mag/cell
     absolute magnetization    =    35.75 Bohr mag/cell

     iteration #  7     ecut=    70.00 Ry     beta= 0.70
     Davidson diagonalization with overlap
     ethr =  6.49E-03,  avg # of iterations =  3.0

     negative rho (up, down):  7.346E-02 4.257E-01

     total cpu time spent up to now is      890.1 secs

     total energy              =    -950.29855333 Ry
     Harris-Foulkes estimate   =    -952.02014486 Ry
     estimated scf accuracy    <      26.73303709 Ry

     total magnetization       =     4.00 Bohr mag/cell
     absolute magnetization    =     9.56 Bohr mag/cell

     iteration #  8     ecut=    70.00 Ry     beta= 0.70
     Davidson diagonalization with overlap
     ethr =  6.49E-03,  avg # of iterations =  1.5

     negative rho (up, down):  5.415E-02 3.426E-01

     total cpu time spent up to now is      985.0 secs

     total energy              =    -951.84389487 Ry
     Harris-Foulkes estimate   =    -951.86929357 Ry
     estimated scf accuracy    <       7.89568162 Ry

     total magnetization       =    -0.00 Bohr mag/cell
     absolute magnetization    =     4.05 Bohr mag/cell

     iteration #  9     ecut=    70.00 Ry     beta= 0.70
     Davidson diagonalization with overlap
     ethr =  3.66E-03,  avg # of iterations =  2.0

     negative rho (up, down):  4.203E-02 4.000E-01

     total cpu time spent up to now is     1087.8 secs

     total energy              =    -951.62597401 Ry
     Harris-Foulkes estimate   =    -952.81649805 Ry
     estimated scf accuracy    <      63.20604194 Ry

     total magnetization       =     0.00 Bohr mag/cell
     absolute magnetization    =    12.01 Bohr mag/cell

     iteration # 10     ecut=    70.00 Ry     beta= 0.70
     Davidson diagonalization with overlap
     ethr =  3.66E-03,  avg # of iterations =  2.0

     negative rho (up, down):  4.034E-02 3.531E-01

     total cpu time spent up to now is     1186.1 secs

     total energy              =    -951.55837315 Ry
     Harris-Foulkes estimate   =    -951.99660461 Ry
     estimated scf accuracy    <      12.12520165 Ry

     total magnetization       =     0.00 Bohr mag/cell
     absolute magnetization    =     5.16 Bohr mag/cell

     iteration # 11     ecut=    70.00 Ry     beta= 0.70
     Davidson diagonalization with overlap
     ethr =  3.66E-03,  avg # of iterations =  2.0

     negative rho (up, down):  2.552E-02 2.942E-01

     total cpu time spent up to now is     1282.8 secs

     total energy              =    -951.83338980 Ry
     Harris-Foulkes estimate   =    -951.86191870 Ry
     estimated scf accuracy    <       3.87483113 Ry

     total magnetization       =     0.00 Bohr mag/cell
     absolute magnetization    =     2.93 Bohr mag/cell

     iteration # 12     ecut=    70.00 Ry     beta= 0.70
     Davidson diagonalization with overlap
     ethr =  1.79E-03,  avg # of iterations =  2.0

     negative rho (up, down):  2.590E-02 2.935E-01

     total cpu time spent up to now is     1378.0 secs

     total energy              =    -951.77413902 Ry
     Harris-Foulkes estimate   =    -951.92624380 Ry
     estimated scf accuracy    <       4.10835019 Ry

     total magnetization       =     0.00 Bohr mag/cell
     absolute magnetization    =     2.49 Bohr mag/cell

     iteration # 13     ecut=    70.00 Ry     beta= 0.70
     Davidson diagonalization with overlap
     ethr =  1.79E-03,  avg # of iterations =  2.0

     negative rho (up, down):  2.445E-02 1.264E-01

     total cpu time spent up to now is     1473.5 secs

     total energy              =    -951.82005979 Ry
     Harris-Foulkes estimate   =    -951.89366616 Ry
     estimated scf accuracy    <       0.95095370 Ry

     total magnetization       =    -0.00 Bohr mag/cell
     absolute magnetization    =     0.43 Bohr mag/cell

     iteration # 14     ecut=    70.00 Ry     beta= 0.70
     Davidson diagonalization with overlap
     ethr =  4.40E-04,  avg # of iterations =  2.5

     negative rho (up, down):  6.476E-03 1.894E-01

     total cpu time spent up to now is     1570.7 secs

     total energy              =    -951.87250280 Ry
     Harris-Foulkes estimate   =    -951.88364428 Ry
     estimated scf accuracy    <       0.33764455 Ry

     total magnetization       =    -0.00 Bohr mag/cell
     absolute magnetization    =     0.53 Bohr mag/cell

     iteration # 15     ecut=    70.00 Ry     beta= 0.70
     Davidson diagonalization with overlap
     ethr =  1.56E-04,  avg # of iterations =  6.5

     negative rho (up, down):  1.645E-03 2.788E-01

     total cpu time spent up to now is     1670.8 secs

     total energy              =    -951.87796638 Ry
     Harris-Foulkes estimate   =    -951.89335592 Ry
     estimated scf accuracy    <       0.25617124 Ry

     total magnetization       =    -0.00 Bohr mag/cell
     absolute magnetization    =     0.75 Bohr mag/cell

     iteration # 16     ecut=    70.00 Ry     beta= 0.70
     Davidson diagonalization with overlap
     ethr =  1.19E-04,  avg # of iterations =  2.0

     negative rho (up, down):  2.144E-03 2.646E-01

     total cpu time spent up to now is     1766.6 secs

     total energy              =    -951.88584307 Ry
     Harris-Foulkes estimate   =    -951.88848340 Ry
     estimated scf accuracy    <       0.25437727 Ry

     total magnetization       =    -0.00 Bohr mag/cell
     absolute magnetization    =     0.80 Bohr mag/cell

     iteration # 17     ecut=    70.00 Ry     beta= 0.70
     Davidson diagonalization with overlap
     ethr =  1.18E-04,  avg # of iterations =  1.0

     negative rho (up, down):  2.046E-03 2.477E-01

     total cpu time spent up to now is     1860.4 secs

     total energy              =    -951.88256216 Ry
     Harris-Foulkes estimate   =    -951.88658431 Ry
     estimated scf accuracy    <       0.11697548 Ry

     total magnetization       =    -0.00 Bohr mag/cell
     absolute magnetization    =     0.55 Bohr mag/cell

     iteration # 18     ecut=    70.00 Ry     beta= 0.70
     Davidson diagonalization with overlap
     ethr =  5.42E-05,  avg # of iterations =  1.5

     negative rho (up, down):  2.383E-03 1.808E-01

     total cpu time spent up to now is     1955.1 secs

     total energy              =    -951.88463311 Ry
     Harris-Foulkes estimate   =    -951.88511351 Ry
     estimated scf accuracy    <       0.03128402 Ry

     total magnetization       =     0.00 Bohr mag/cell
     absolute magnetization    =     0.23 Bohr mag/cell

     iteration # 19     ecut=    70.00 Ry     beta= 0.70
     Davidson diagonalization with overlap
     ethr =  1.45E-05,  avg # of iterations =  6.5

     negative rho (up, down):  1.129E-03 1.477E-01

     total cpu time spent up to now is     2058.3 secs

     total energy              =    -951.88679424 Ry
     Harris-Foulkes estimate   =    -951.88598458 Ry
     estimated scf accuracy    <       0.01976849 Ry

     total magnetization       =     0.00 Bohr mag/cell
     absolute magnetization    =     0.25 Bohr mag/cell

     iteration # 20     ecut=    70.00 Ry     beta= 0.70
     Davidson diagonalization with overlap
     ethr =  9.15E-06,  avg # of iterations =  2.0

     negative rho (up, down):  1.186E-03 1.893E-01

     total cpu time spent up to now is     2153.9 secs

     total energy              =    -951.88548175 Ry
     Harris-Foulkes estimate   =    -951.88690353 Ry
     estimated scf accuracy    <       0.03755916 Ry

     total magnetization       =    -0.00 Bohr mag/cell
     absolute magnetization    =     0.33 Bohr mag/cell

     iteration # 21     ecut=    70.00 Ry     beta= 0.70
     Davidson diagonalization with overlap
     ethr =  9.15E-06,  avg # of iterations =  2.0

     negative rho (up, down):  1.199E-03 1.302E-01

     total cpu time spent up to now is     2249.7 secs

     total energy              =    -951.88642445 Ry
     Harris-Foulkes estimate   =    -951.88622041 Ry
     estimated scf accuracy    <       0.00647697 Ry

     total magnetization       =     0.00 Bohr mag/cell
     absolute magnetization    =     0.14 Bohr mag/cell

     iteration # 22     ecut=    70.00 Ry     beta= 0.70
     Davidson diagonalization with overlap
     ethr =  3.00E-06,  avg # of iterations =  2.0

     negative rho (up, down):  1.277E-03 1.594E-01

     total cpu time spent up to now is     2347.2 secs

     total energy              =    -951.88657591 Ry
     Harris-Foulkes estimate   =    -951.88681860 Ry
     estimated scf accuracy    <       0.01592565 Ry

     total magnetization       =    -0.00 Bohr mag/cell
     absolute magnetization    =     0.21 Bohr mag/cell

     iteration # 23     ecut=    70.00 Ry     beta= 0.70
     Davidson diagonalization with overlap
     ethr =  3.00E-06,  avg # of iterations =  2.5

     negative rho (up, down):  1.260E-03 1.709E-01

     total cpu time spent up to now is     2443.7 secs

     total energy              =    -951.88677534 Ry
     Harris-Foulkes estimate   =    -951.88663762 Ry
     estimated scf accuracy    <       0.01532828 Ry

     total magnetization       =     0.00 Bohr mag/cell
     absolute magnetization    =     0.21 Bohr mag/cell

     iteration # 24     ecut=    70.00 Ry     beta= 0.70
     Davidson diagonalization with overlap
     ethr =  3.00E-06,  avg # of iterations =  1.5

     negative rho (up, down):  2.429E-03 1.796E-01

     total cpu time spent up to now is     2539.1 secs

     total energy              =    -951.88632941 Ry
     Harris-Foulkes estimate   =    -951.88693512 Ry
     estimated scf accuracy    <       0.03866849 Ry

     total magnetization       =     0.00 Bohr mag/cell
     absolute magnetization    =     0.29 Bohr mag/cell

     iteration # 25     ecut=    70.00 Ry     beta= 0.70
     Davidson diagonalization with overlap
     ethr =  3.00E-06,  avg # of iterations =  3.0

     negative rho (up, down):  1.970E-03 2.056E-01

     total cpu time spent up to now is     2639.6 secs

     total energy              =    -951.88653094 Ry
     Harris-Foulkes estimate   =    -951.88654359 Ry
     estimated scf accuracy    <       0.03949910 Ry

     total magnetization       =     0.00 Bohr mag/cell
     absolute magnetization    =     0.33 Bohr mag/cell

     iteration # 26     ecut=    70.00 Ry     beta= 0.70
     Davidson diagonalization with overlap
     ethr =  3.00E-06,  avg # of iterations =  2.0

     negative rho (up, down):  1.722E-03 2.094E-01

     total cpu time spent up to now is     2745.3 secs

     total energy              =    -951.88663361 Ry
     Harris-Foulkes estimate   =    -951.88677030 Ry
     estimated scf accuracy    <       0.04236279 Ry

     total magnetization       =    -0.00 Bohr mag/cell
     absolute magnetization    =     0.33 Bohr mag/cell

     iteration # 27     ecut=    70.00 Ry     beta= 0.70
     Davidson diagonalization with overlap
     ethr =  3.00E-06,  avg # of iterations =  2.5

     negative rho (up, down):  1.415E-03 2.075E-01

     total cpu time spent up to now is     2847.0 secs

     total energy              =    -951.88761721 Ry
     Harris-Foulkes estimate   =    -951.88705943 Ry
     estimated scf accuracy    <       0.05558389 Ry

     total magnetization       =    -0.00 Bohr mag/cell
     absolute magnetization    =     0.37 Bohr mag/cell

     iteration # 28     ecut=    70.00 Ry     beta= 0.70
     Davidson diagonalization with overlap
     ethr =  3.00E-06,  avg # of iterations =  3.0

     negative rho (up, down):  1.706E-03 2.183E-01

     total cpu time spent up to now is     2953.2 secs

     total energy              =    -951.88889452 Ry
     Harris-Foulkes estimate   =    -951.88778089 Ry
     estimated scf accuracy    <       0.08142561 Ry

     total magnetization       =    -0.00 Bohr mag/cell
     absolute magnetization    =     0.42 Bohr mag/cell

     iteration # 29     ecut=    70.00 Ry     beta= 0.70
     Davidson diagonalization with overlap
     ethr =  3.00E-06,  avg # of iterations =  2.0

     negative rho (up, down):  2.313E-03 2.531E-01

     total cpu time spent up to now is     3058.5 secs

     total energy              =    -951.88896332 Ry
     Harris-Foulkes estimate   =    -951.88970705 Ry
     estimated scf accuracy    <       0.18167891 Ry

     total magnetization       =    -0.00 Bohr mag/cell
     absolute magnetization    =     0.62 Bohr mag/cell

     iteration # 30     ecut=    70.00 Ry     beta= 0.70
     Davidson diagonalization with overlap
     ethr =  3.00E-06,  avg # of iterations =  2.5

     negative rho (up, down):  2.801E-03 2.634E-01

     total cpu time spent up to now is     3166.3 secs

     total energy              =    -951.88863449 Ry
     Harris-Foulkes estimate   =    -951.88906410 Ry
     estimated scf accuracy    <       0.18918444 Ry

     total magnetization       =    -0.00 Bohr mag/cell
     absolute magnetization    =     0.63 Bohr mag/cell

     iteration # 31     ecut=    70.00 Ry     beta= 0.70
     Davidson diagonalization with overlap
     ethr =  3.00E-06,  avg # of iterations =  1.0

     negative rho (up, down):  2.722E-03 2.638E-01

     total cpu time spent up to now is     3267.9 secs

     total energy              =    -951.88457415 Ry
     Harris-Foulkes estimate   =    -951.88866813 Ry
     estimated scf accuracy    <       0.18434049 Ry

     total magnetization       =     0.00 Bohr mag/cell
     absolute magnetization    =     0.62 Bohr mag/cell

     iteration # 32     ecut=    70.00 Ry     beta= 0.70
     Davidson diagonalization with overlap
     ethr =  3.00E-06,  avg # of iterations =  3.0

     negative rho (up, down):  1.812E-03 2.305E-01

     total cpu time spent up to now is     3380.7 secs

     total energy              =    -951.88555085 Ry
     Harris-Foulkes estimate   =    -951.88613440 Ry
     estimated scf accuracy    <       0.07510171 Ry

     total magnetization       =     0.00 Bohr mag/cell
     absolute magnetization    =     0.39 Bohr mag/cell

     iteration # 33     ecut=    70.00 Ry     beta= 0.70
     Davidson diagonalization with overlap
     ethr =  3.00E-06,  avg # of iterations =  2.5

     negative rho (up, down):  2.076E-03 1.929E-01

     total cpu time spent up to now is     3500.4 secs

     total energy              =    -951.88504421 Ry
     Harris-Foulkes estimate   =    -951.88677442 Ry
     estimated scf accuracy    <       0.06308532 Ry

     total magnetization       =    -0.00 Bohr mag/cell
     absolute magnetization    =     0.32 Bohr mag/cell

     iteration # 34     ecut=    70.00 Ry     beta= 0.70
     Davidson diagonalization with overlap
     ethr =  3.00E-06,  avg # of iterations =  3.5

     negative rho (up, down):  5.279E-03 1.527E-01

     total cpu time spent up to now is     3624.6 secs

     total energy              =    -951.88261129 Ry
     Harris-Foulkes estimate   =    -951.88743653 Ry
     estimated scf accuracy    <       0.11466243 Ry

     total magnetization       =     0.00 Bohr mag/cell
     absolute magnetization    =     0.39 Bohr mag/cell

     iteration # 35     ecut=    70.00 Ry     beta= 0.70
     Davidson diagonalization with overlap
     ethr =  3.00E-06,  avg # of iterations =  4.5

     negative rho (up, down):  1.217E-03 1.347E-01

     total cpu time spent up to now is     3746.7 secs

     total energy              =    -951.88744075 Ry
     Harris-Foulkes estimate   =    -951.88508580 Ry
     estimated scf accuracy    <       0.01026645 Ry

     total magnetization       =     0.00 Bohr mag/cell
     absolute magnetization    =     0.16 Bohr mag/cell

     iteration # 36     ecut=    70.00 Ry     beta= 0.70
     Davidson diagonalization with overlap
     ethr =  3.00E-06,  avg # of iterations =  4.0

     negative rho (up, down):  5.582E-03 2.801E-01

     total cpu time spent up to now is     3884.9 secs

     total energy              =    -951.87732571 Ry
     Harris-Foulkes estimate   =    -951.89700080 Ry
     estimated scf accuracy    <       0.67706794 Ry

     total magnetization       =     0.00 Bohr mag/cell
     absolute magnetization    =     1.21 Bohr mag/cell

     iteration # 37     ecut=    70.00 Ry     beta= 0.70
     Davidson diagonalization with overlap
     ethr =  3.00E-06,  avg # of iterations =  4.5

     negative rho (up, down):  2.962E-03 2.339E-01

     total cpu time spent up to now is     4012.2 secs

     total energy              =    -951.88368778 Ry
     Harris-Foulkes estimate   =    -951.88355378 Ry
     estimated scf accuracy    <       0.04199396 Ry

     total magnetization       =    -0.00 Bohr mag/cell
     absolute magnetization    =     0.28 Bohr mag/cell

     iteration # 38     ecut=    70.00 Ry     beta= 0.70
     Davidson diagonalization with overlap
     ethr =  3.00E-06,  avg # of iterations =  4.0

     negative rho (up, down):  3.287E-03 1.642E-01

     total cpu time spent up to now is     4139.8 secs

     total energy              =    -951.88524329 Ry
     Harris-Foulkes estimate   =    -951.88798896 Ry
     estimated scf accuracy    <       0.09583976 Ry

     total magnetization       =     0.00 Bohr mag/cell
     absolute magnetization    =     0.33 Bohr mag/cell

     iteration # 39     ecut=    70.00 Ry     beta= 0.70
     Davidson diagonalization with overlap
     ethr =  3.00E-06,  avg # of iterations =  5.5

     negative rho (up, down):  1.492E-03 2.105E-01

     total cpu time spent up to now is     4267.7 secs

     total energy              =    -951.88711518 Ry
     Harris-Foulkes estimate   =    -951.88763815 Ry
     estimated scf accuracy    <       0.07920001 Ry

     total magnetization       =    -0.00 Bohr mag/cell
     absolute magnetization    =     0.41 Bohr mag/cell

     iteration # 40     ecut=    70.00 Ry     beta= 0.70
     Davidson diagonalization with overlap
     ethr =  3.00E-06,  avg # of iterations =  5.0

     negative rho (up, down):  1.568E-03 2.233E-01

     total cpu time spent up to now is     4387.8 secs

     total energy              =    -951.88730469 Ry
     Harris-Foulkes estimate   =    -951.88775527 Ry
     estimated scf accuracy    <       0.10718526 Ry

     total magnetization       =     0.00 Bohr mag/cell
     absolute magnetization    =     0.50 Bohr mag/cell

     iteration # 41     ecut=    70.00 Ry     beta= 0.70
     Davidson diagonalization with overlap
     ethr =  3.00E-06,  avg # of iterations =  3.0

     negative rho (up, down):  1.937E-03 2.492E-01

     total cpu time spent up to now is     4502.2 secs

     total energy              =    -951.88397801 Ry
     Harris-Foulkes estimate   =    -951.88844335 Ry
     estimated scf accuracy    <       0.15318772 Ry

     total magnetization       =    -0.00 Bohr mag/cell
     absolute magnetization    =     0.59 Bohr mag/cell

     iteration # 42     ecut=    70.00 Ry     beta= 0.70
     Davidson diagonalization with overlap
     ethr =  3.00E-06,  avg # of iterations =  2.5

     negative rho (up, down):  1.520E-03 2.029E-01

     total cpu time spent up to now is     4622.4 secs

     total energy              =    -951.88523046 Ry
     Harris-Foulkes estimate   =    -951.88567230 Ry
     estimated scf accuracy    <       0.03217528 Ry

     total magnetization       =    -0.00 Bohr mag/cell
     absolute magnetization    =     0.25 Bohr mag/cell

     iteration # 43     ecut=    70.00 Ry     beta= 0.70
     Davidson diagonalization with overlap
     ethr =  3.00E-06,  avg # of iterations =  2.5

     negative rho (up, down):  1.884E-03 1.243E-01

     total cpu time spent up to now is     4735.8 secs

     total energy              =    -951.88580798 Ry
     Harris-Foulkes estimate   =    -951.88623658 Ry
     estimated scf accuracy    <       0.01878831 Ry

     total magnetization       =    -0.00 Bohr mag/cell
     absolute magnetization    =     0.11 Bohr mag/cell

     iteration # 44     ecut=    70.00 Ry     beta= 0.70
     Davidson diagonalization with overlap
     ethr =  3.00E-06,  avg # of iterations =  4.0

     negative rho (up, down):  3.066E-03 1.051E-01

     total cpu time spent up to now is     4867.7 secs

     total energy              =    -951.88516911 Ry
     Harris-Foulkes estimate   =    -951.88689385 Ry
     estimated scf accuracy    <       0.03262179 Ry

     total magnetization       =     0.00 Bohr mag/cell
     absolute magnetization    =     0.18 Bohr mag/cell

     iteration # 45     ecut=    70.00 Ry     beta= 0.70
     Davidson diagonalization with overlap
     ethr =  3.00E-06,  avg # of iterations =  4.0

     negative rho (up, down):  1.147E-03 4.542E-02

     total cpu time spent up to now is     4993.6 secs

     total energy              =    -951.88678332 Ry
     Harris-Foulkes estimate   =    -951.88641199 Ry
     estimated scf accuracy    <       0.00828780 Ry

     total magnetization       =    -0.00 Bohr mag/cell
     absolute magnetization    =     0.12 Bohr mag/cell

     iteration # 46     ecut=    70.00 Ry     beta= 0.70
     Davidson diagonalization with overlap
     ethr =  3.00E-06,  avg # of iterations =  3.5

     negative rho (up, down):  1.452E-03 1.511E-01

     total cpu time spent up to now is     5112.9 secs

     total energy              =    -951.88644137 Ry
     Harris-Foulkes estimate   =    -951.88714183 Ry
     estimated scf accuracy    <       0.01979145 Ry

     total magnetization       =    -0.00 Bohr mag/cell
     absolute magnetization    =     0.21 Bohr mag/cell

     iteration # 47     ecut=    70.00 Ry     beta= 0.70
     Davidson diagonalization with overlap
     ethr =  3.00E-06,  avg # of iterations =  3.0

     negative rho (up, down):  1.373E-03 1.300E-01

     total cpu time spent up to now is     5229.3 secs

     total energy              =    -951.88640405 Ry
     Harris-Foulkes estimate   =    -951.88653406 Ry
     estimated scf accuracy    <       0.00558036 Ry

     total magnetization       =    -0.00 Bohr mag/cell
     absolute magnetization    =     0.11 Bohr mag/cell

     iteration # 48     ecut=    70.00 Ry     beta= 0.70
     Davidson diagonalization with overlap
     ethr =  2.58E-06,  avg # of iterations =  2.0

     negative rho (up, down):  1.293E-03 6.988E-02

     total cpu time spent up to now is     5347.0 secs

     total energy              =    -951.88671795 Ry
     Harris-Foulkes estimate   =    -951.88661866 Ry
     estimated scf accuracy    <       0.00274718 Ry

     total magnetization       =     0.00 Bohr mag/cell
     absolute magnetization    =     0.05 Bohr mag/cell

     iteration # 49     ecut=    70.00 Ry     beta= 0.70
     Davidson diagonalization with overlap
     ethr =  1.27E-06,  avg # of iterations =  3.0

     negative rho (up, down):  1.200E-03 9.542E-02

     total cpu time spent up to now is     5470.8 secs

     total energy              =    -951.88669424 Ry
     Harris-Foulkes estimate   =    -951.88701017 Ry
     estimated scf accuracy    <       0.00870614 Ry

     total magnetization       =     0.00 Bohr mag/cell
     absolute magnetization    =     0.13 Bohr mag/cell

     iteration # 50     ecut=    70.00 Ry     beta= 0.70
     Davidson diagonalization with overlap
     ethr =  1.27E-06,  avg # of iterations =  2.5

     negative rho (up, down):  1.177E-03 1.289E-01

     total cpu time spent up to now is     5587.6 secs

     total energy              =    -951.88650954 Ry
     Harris-Foulkes estimate   =    -951.88688081 Ry
     estimated scf accuracy    <       0.01074534 Ry

     total magnetization       =     0.00 Bohr mag/cell
     absolute magnetization    =     0.16 Bohr mag/cell

     iteration # 51     ecut=    70.00 Ry     beta= 0.70
     Davidson diagonalization with overlap
     ethr =  1.27E-06,  avg # of iterations =  2.0

     negative rho (up, down):  1.154E-03 1.029E-01

     total cpu time spent up to now is     5702.2 secs

     total energy              =    -951.88674551 Ry
     Harris-Foulkes estimate   =    -951.88665624 Ry
     estimated scf accuracy    <       0.00424151 Ry

     total magnetization       =    -0.00 Bohr mag/cell
     absolute magnetization    =     0.10 Bohr mag/cell

     iteration # 52     ecut=    70.00 Ry     beta= 0.70
     Davidson diagonalization with overlap
     ethr =  1.27E-06,  avg # of iterations =  1.0

     negative rho (up, down):  1.147E-03 9.095E-02

     total cpu time spent up to now is     5812.5 secs

     total energy              =    -951.88676067 Ry
     Harris-Foulkes estimate   =    -951.88675406 Ry
     estimated scf accuracy    <       0.00263071 Ry

     total magnetization       =     0.00 Bohr mag/cell
     absolute magnetization    =     0.08 Bohr mag/cell

     iteration # 53     ecut=    70.00 Ry     beta= 0.70
     Davidson diagonalization with overlap
     ethr =  1.22E-06,  avg # of iterations =  2.0

     negative rho (up, down):  1.326E-03 7.089E-02

     total cpu time spent up to now is     5924.1 secs

     total energy              =    -951.88667758 Ry
     Harris-Foulkes estimate   =    -951.88682821 Ry
     estimated scf accuracy    <       0.00384181 Ry

     total magnetization       =    -0.00 Bohr mag/cell
     absolute magnetization    =     0.07 Bohr mag/cell

     iteration # 54     ecut=    70.00 Ry     beta= 0.70
     Davidson diagonalization with overlap
     ethr =  1.22E-06,  avg # of iterations =  2.5

     negative rho (up, down):  2.044E-03 8.544E-02

     total cpu time spent up to now is     6031.8 secs

     total energy              =    -951.88614417 Ry
     Harris-Foulkes estimate   =    -951.88694813 Ry
     estimated scf accuracy    <       0.01275745 Ry

     total magnetization       =    -0.00 Bohr mag/cell
     absolute magnetization    =     0.12 Bohr mag/cell

     iteration # 55     ecut=    70.00 Ry     beta= 0.70
     Davidson diagonalization with overlap
     ethr =  1.22E-06,  avg # of iterations =  3.0

     negative rho (up, down):  1.153E-03 1.376E-02

     total cpu time spent up to now is     6144.8 secs

     total energy              =    -951.88689753 Ry
     Harris-Foulkes estimate   =    -951.88648840 Ry
     estimated scf accuracy    <       0.00118658 Ry

     total magnetization       =    -0.00 Bohr mag/cell
     absolute magnetization    =     0.04 Bohr mag/cell

     iteration # 56     ecut=    70.00 Ry     beta= 0.70
     Davidson diagonalization with overlap
     ethr =  5.49E-07,  avg # of iterations =  3.0

     negative rho (up, down):  1.425E-03 1.679E-01

     total cpu time spent up to now is     6275.8 secs

     total energy              =    -951.88622906 Ry
     Harris-Foulkes estimate   =    -951.88731848 Ry
     estimated scf accuracy    <       0.02771134 Ry

     total magnetization       =     0.00 Bohr mag/cell
     absolute magnetization    =     0.25 Bohr mag/cell

     iteration # 57     ecut=    70.00 Ry     beta= 0.70
     Davidson diagonalization with overlap
     ethr =  5.49E-07,  avg # of iterations =  4.0

     negative rho (up, down):  1.278E-03 1.236E-01

     total cpu time spent up to now is     6397.6 secs

     total energy              =    -951.88651224 Ry
     Harris-Foulkes estimate   =    -951.88642358 Ry
     estimated scf accuracy    <       0.00336544 Ry

     total magnetization       =     0.00 Bohr mag/cell
     absolute magnetization    =     0.08 Bohr mag/cell

     iteration # 58     ecut=    70.00 Ry     beta= 0.70
     Davidson diagonalization with overlap
     ethr =  5.49E-07,  avg # of iterations =  2.5

     negative rho (up, down):  1.201E-03 6.826E-02

     total cpu time spent up to now is     6514.1 secs

     total energy              =    -951.88675714 Ry
     Harris-Foulkes estimate   =    -951.88672589 Ry
     estimated scf accuracy    <       0.00332833 Ry

     total magnetization       =     0.00 Bohr mag/cell
     absolute magnetization    =     0.07 Bohr mag/cell

     iteration # 59     ecut=    70.00 Ry     beta= 0.70
     Davidson diagonalization with overlap
     ethr =  5.49E-07,  avg # of iterations =  3.0

     negative rho (up, down):  1.167E-03 6.327E-02

     total cpu time spent up to now is     6629.9 secs

     total energy              =    -951.88687131 Ry
     Harris-Foulkes estimate   =    -951.88682904 Ry
     estimated scf accuracy    <       0.00182069 Ry

     total magnetization       =    -0.00 Bohr mag/cell
     absolute magnetization    =     0.06 Bohr mag/cell

     iteration # 60     ecut=    70.00 Ry     beta= 0.70
     Davidson diagonalization with overlap
     ethr =  5.49E-07,  avg # of iterations =  2.0

     negative rho (up, down):  1.156E-03 1.627E-01

     total cpu time spent up to now is     6755.0 secs

     total energy              =    -951.88613504 Ry
     Harris-Foulkes estimate   =    -951.88723175 Ry
     estimated scf accuracy    <       0.02588917 Ry

     total magnetization       =     0.00 Bohr mag/cell
     absolute magnetization    =     0.25 Bohr mag/cell

     iteration # 61     ecut=    70.00 Ry     beta= 0.70
     Davidson diagonalization with overlap
     ethr =  5.49E-07,  avg # of iterations =  2.0

     negative rho (up, down):  1.244E-03 1.343E-01

     total cpu time spent up to now is     6877.4 secs

     total energy              =    -951.88662887 Ry
     Harris-Foulkes estimate   =    -951.88658292 Ry
     estimated scf accuracy    <       0.01107242 Ry

     total magnetization       =    -0.00 Bohr mag/cell
     absolute magnetization    =     0.16 Bohr mag/cell

     iteration # 62     ecut=    70.00 Ry     beta= 0.70
     Davidson diagonalization with overlap
     ethr =  5.49E-07,  avg # of iterations =  2.0

     negative rho (up, down):  1.241E-03 1.206E-01

     total cpu time spent up to now is     6988.5 secs

     total energy              =    -951.88653434 Ry
     Harris-Foulkes estimate   =    -951.88665969 Ry
     estimated scf accuracy    <       0.00549524 Ry

     total magnetization       =    -0.00 Bohr mag/cell
     absolute magnetization    =     0.11 Bohr mag/cell

     iteration # 63     ecut=    70.00 Ry     beta= 0.70
     Davidson diagonalization with overlap
     ethr =  5.49E-07,  avg # of iterations =  2.0

     negative rho (up, down):  1.360E-03 6.987E-02

     total cpu time spent up to now is     7103.7 secs

     total energy              =    -951.88666233 Ry
     Harris-Foulkes estimate   =    -951.88665683 Ry
     estimated scf accuracy    <       0.00307978 Ry

     total magnetization       =    -0.00 Bohr mag/cell
     absolute magnetization    =     0.04 Bohr mag/cell

     iteration # 64     ecut=    70.00 Ry     beta= 0.70
     Davidson diagonalization with overlap
     ethr =  5.49E-07,  avg # of iterations =  2.5

     negative rho (up, down):  1.428E-03 6.202E-02

     total cpu time spent up to now is     7221.4 secs

     total energy              =    -951.88661931 Ry
     Harris-Foulkes estimate   =    -951.88677294 Ry
     estimated scf accuracy    <       0.00301128 Ry

     total magnetization       =     0.00 Bohr mag/cell
     absolute magnetization    =     0.05 Bohr mag/cell

     iteration # 65     ecut=    70.00 Ry     beta= 0.70
     Davidson diagonalization with overlap
     ethr =  5.49E-07,  avg # of iterations =  2.0

     negative rho (up, down):  1.155E-03 1.798E-02

     total cpu time spent up to now is     7334.3 secs

     total energy              =    -951.88685307 Ry
     Harris-Foulkes estimate   =    -951.88674327 Ry
     estimated scf accuracy    <       0.00115685 Ry

     total magnetization       =    -0.00 Bohr mag/cell
     absolute magnetization    =     0.04 Bohr mag/cell

     iteration # 66     ecut=    70.00 Ry     beta= 0.70
     Davidson diagonalization with overlap
     ethr =  5.36E-07,  avg # of iterations =  2.0

     negative rho (up, down):  1.182E-03 6.361E-02

     total cpu time spent up to now is     7449.5 secs

     total energy              =    -951.88681656 Ry
     Harris-Foulkes estimate   =    -951.88689713 Ry
     estimated scf accuracy    <       0.00187357 Ry

     total magnetization       =    -0.00 Bohr mag/cell
     absolute magnetization    =     0.07 Bohr mag/cell

     iteration # 67     ecut=    70.00 Ry     beta= 0.70
     Davidson diagonalization with overlap
     ethr =  5.36E-07,  avg # of iterations =  2.0

     negative rho (up, down):  1.172E-03 5.427E-02

     total cpu time spent up to now is     7559.4 secs

     total energy              =    -951.88680913 Ry
     Harris-Foulkes estimate   =    -951.88682372 Ry
     estimated scf accuracy    <       0.00062814 Ry

     total magnetization       =     0.00 Bohr mag/cell
     absolute magnetization    =     0.04 Bohr mag/cell

     iteration # 68     ecut=    70.00 Ry     beta= 0.70
     Davidson diagonalization with overlap
     ethr =  2.91E-07,  avg # of iterations =  2.0

     negative rho (up, down):  1.169E-03 2.404E-02

     total cpu time spent up to now is     7673.5 secs

     total energy              =    -951.88685462 Ry
     Harris-Foulkes estimate   =    -951.88684612 Ry
     estimated scf accuracy    <       0.00053306 Ry

     total magnetization       =    -0.00 Bohr mag/cell
     absolute magnetization    =     0.02 Bohr mag/cell

     iteration # 69     ecut=    70.00 Ry     beta= 0.70
     Davidson diagonalization with overlap
     ethr =  2.47E-07,  avg # of iterations =  2.0

     negative rho (up, down):  1.170E-03 3.239E-02

     total cpu time spent up to now is     7791.9 secs

     total energy              =    -951.88683516 Ry
     Harris-Foulkes estimate   =    -951.88689740 Ry
     estimated scf accuracy    <       0.00095768 Ry

     total magnetization       =    -0.00 Bohr mag/cell
     absolute magnetization    =     0.03 Bohr mag/cell

     iteration # 70     ecut=    70.00 Ry     beta= 0.70
     Davidson diagonalization with overlap
     ethr =  2.47E-07,  avg # of iterations =  2.0

     negative rho (up, down):  1.153E-03 5.029E-02

     total cpu time spent up to now is     7905.9 secs

     total energy              =    -951.88682986 Ry
     Harris-Foulkes estimate   =    -951.88686828 Ry
     estimated scf accuracy    <       0.00111536 Ry

     total magnetization       =    -0.00 Bohr mag/cell
     absolute magnetization    =     0.05 Bohr mag/cell

     iteration # 71     ecut=    70.00 Ry     beta= 0.70
     Davidson diagonalization with overlap
     ethr =  2.47E-07,  avg # of iterations =  2.0

     negative rho (up, down):  1.152E-03 3.854E-02

     total cpu time spent up to now is     8022.9 secs

     total energy              =    -951.88686213 Ry
     Harris-Foulkes estimate   =    -951.88684633 Ry
     estimated scf accuracy    <       0.00050666 Ry

     total magnetization       =     0.00 Bohr mag/cell
     absolute magnetization    =     0.03 Bohr mag/cell

     iteration # 72     ecut=    70.00 Ry     beta= 0.70
     Davidson diagonalization with overlap
     ethr =  2.35E-07,  avg # of iterations =  1.0

     negative rho (up, down):  1.157E-03 4.056E-02

     total cpu time spent up to now is     8135.9 secs

     total energy              =    -951.88685962 Ry
     Harris-Foulkes estimate   =    -951.88686224 Ry
     estimated scf accuracy    <       0.00051458 Ry

     total magnetization       =     0.00 Bohr mag/cell
     absolute magnetization    =     0.03 Bohr mag/cell

     iteration # 73     ecut=    70.00 Ry     beta= 0.70
     Davidson diagonalization with overlap
     ethr =  2.35E-07,  avg # of iterations =  2.0

     negative rho (up, down):  1.182E-03 4.115E-02

     total cpu time spent up to now is     8247.2 secs

     total energy              =    -951.88686559 Ry
     Harris-Foulkes estimate   =    -951.88686624 Ry
     estimated scf accuracy    <       0.00082912 Ry

     total magnetization       =    -0.00 Bohr mag/cell
     absolute magnetization    =     0.04 Bohr mag/cell

     iteration # 74     ecut=    70.00 Ry     beta= 0.70
     Davidson diagonalization with overlap
     ethr =  2.35E-07,  avg # of iterations =  1.5

     negative rho (up, down):  1.377E-03 7.656E-02

     total cpu time spent up to now is     8360.2 secs

     total energy              =    -951.88669014 Ry
     Harris-Foulkes estimate   =    -951.88690445 Ry
     estimated scf accuracy    <       0.00391897 Ry

     total magnetization       =     0.00 Bohr mag/cell
     absolute magnetization    =     0.08 Bohr mag/cell

     iteration # 75     ecut=    70.00 Ry     beta= 0.70
     Davidson diagonalization with overlap
     ethr =  2.35E-07,  avg # of iterations =  2.0

     negative rho (up, down):  1.268E-03 5.965E-02

     total cpu time spent up to now is     8473.5 secs

     total energy              =    -951.88683576 Ry
     Harris-Foulkes estimate   =    -951.88671934 Ry
     estimated scf accuracy    <       0.00094463 Ry

     total magnetization       =    -0.00 Bohr mag/cell
     absolute magnetization    =     0.04 Bohr mag/cell

     iteration # 76     ecut=    70.00 Ry     beta= 0.70
     Davidson diagonalization with overlap
     ethr =  2.35E-07,  avg # of iterations =  3.0

     negative rho (up, down):  1.323E-03 1.880E-01

     total cpu time spent up to now is     8605.1 secs

     total energy              =    -951.88578715 Ry
     Harris-Foulkes estimate   =    -951.88750386 Ry
     estimated scf accuracy    <       0.04443506 Ry

     total magnetization       =     0.00 Bohr mag/cell
     absolute magnetization    =     0.32 Bohr mag/cell

     iteration # 77     ecut=    70.00 Ry     beta= 0.70
     Davidson diagonalization with overlap
     ethr =  2.35E-07,  avg # of iterations =  3.5

     negative rho (up, down):  1.597E-03 1.233E-01

     total cpu time spent up to now is     8743.5 secs

     total energy              =    -951.88680227 Ry
     Harris-Foulkes estimate   =    -951.88637213 Ry
     estimated scf accuracy    <       0.01086365 Ry

     total magnetization       =     0.00 Bohr mag/cell
     absolute magnetization    =     0.14 Bohr mag/cell

     iteration # 78     ecut=    70.00 Ry     beta= 0.70
     Davidson diagonalization with overlap
     ethr =  2.35E-07,  avg # of iterations =  3.0

     negative rho (up, down):  2.113E-03 1.514E-01

     total cpu time spent up to now is     8868.9 secs

     total energy              =    -951.88634685 Ry
     Harris-Foulkes estimate   =    -951.88692937 Ry
     estimated scf accuracy    <       0.02791886 Ry

     total magnetization       =    -0.00 Bohr mag/cell
     absolute magnetization    =     0.23 Bohr mag/cell

     iteration # 79     ecut=    70.00 Ry     beta= 0.70
     Davidson diagonalization with overlap
     ethr =  2.35E-07,  avg # of iterations =  2.5

     negative rho (up, down):  1.916E-03 1.448E-01

     total cpu time spent up to now is     8988.1 secs

     total energy              =    -951.88622778 Ry
     Harris-Foulkes estimate   =    -951.88642440 Ry
     estimated scf accuracy    <       0.01461300 Ry

     total magnetization       =     0.00 Bohr mag/cell
     absolute magnetization    =     0.16 Bohr mag/cell

     iteration # 80     ecut=    70.00 Ry     beta= 0.70
     Davidson diagonalization with overlap
     ethr =  2.35E-07,  avg # of iterations =  2.0

     negative rho (up, down):  1.691E-03 1.232E-01

     total cpu time spent up to now is     9112.6 secs

     total energy              =    -951.88638814 Ry
     Harris-Foulkes estimate   =    -951.88635128 Ry
     estimated scf accuracy    <       0.00720289 Ry

     total magnetization       =    -0.00 Bohr mag/cell
     absolute magnetization    =     0.11 Bohr mag/cell

     iteration # 81     ecut=    70.00 Ry     beta= 0.70
     Davidson diagonalization with overlap
     ethr =  2.35E-07,  avg # of iterations =  2.0

     negative rho (up, down):  1.365E-03 9.906E-02

     total cpu time spent up to now is     9229.6 secs

     total energy              =    -951.88666657 Ry
     Harris-Foulkes estimate   =    -951.88645721 Ry
     estimated scf accuracy    <       0.00287721 Ry

     total magnetization       =     0.00 Bohr mag/cell
     absolute magnetization    =     0.08 Bohr mag/cell

     iteration # 82     ecut=    70.00 Ry     beta= 0.70
     Davidson diagonalization with overlap
     ethr =  2.35E-07,  avg # of iterations =  1.5

     negative rho (up, down):  1.247E-03 8.298E-02

     total cpu time spent up to now is     9340.0 secs

     total energy              =    -951.88673558 Ry
     Harris-Foulkes estimate   =    -951.88667079 Ry
     estimated scf accuracy    <       0.00174385 Ry

     total magnetization       =    -0.00 Bohr mag/cell
     absolute magnetization    =     0.06 Bohr mag/cell

     iteration # 83     ecut=    70.00 Ry     beta= 0.70
     Davidson diagonalization with overlap
     ethr =  2.35E-07,  avg # of iterations =  2.0

     negative rho (up, down):  1.238E-03 6.210E-02

     total cpu time spent up to now is     9451.4 secs

     total energy              =    -951.88678521 Ry
     Harris-Foulkes estimate   =    -951.88675391 Ry
     estimated scf accuracy    <       0.00121066 Ry

     total magnetization       =     0.00 Bohr mag/cell
     absolute magnetization    =     0.04 Bohr mag/cell

     iteration # 84     ecut=    70.00 Ry     beta= 0.70
     Davidson diagonalization with overlap
     ethr =  2.35E-07,  avg # of iterations =  2.0

     negative rho (up, down):  1.227E-03 5.810E-02

     total cpu time spent up to now is     9562.3 secs

     total energy              =    -951.88673761 Ry
     Harris-Foulkes estimate   =    -951.88679871 Ry
     estimated scf accuracy    <       0.00109962 Ry

     total magnetization       =     0.00 Bohr mag/cell
     absolute magnetization    =     0.04 Bohr mag/cell

     iteration # 85     ecut=    70.00 Ry     beta= 0.70
     Davidson diagonalization with overlap
     ethr =  2.35E-07,  avg # of iterations =  2.0

     negative rho (up, down):  1.178E-03 2.432E-02

     total cpu time spent up to now is     9679.2 secs

     total energy              =    -951.88682077 Ry
     Harris-Foulkes estimate   =    -951.88682112 Ry
     estimated scf accuracy    <       0.00130324 Ry

     total magnetization       =    -0.00 Bohr mag/cell
     absolute magnetization    =     0.04 Bohr mag/cell

     iteration # 86     ecut=    70.00 Ry     beta= 0.70
     Davidson diagonalization with overlap
     ethr =  2.35E-07,  avg # of iterations =  2.5

     negative rho (up, down):  1.155E-03 4.441E-02

     total cpu time spent up to now is     9798.1 secs

     total energy              =    -951.88684296 Ry
     Harris-Foulkes estimate   =    -951.88686749 Ry
     estimated scf accuracy    <       0.00086321 Ry

     total magnetization       =     0.00 Bohr mag/cell
     absolute magnetization    =     0.05 Bohr mag/cell

     iteration # 87     ecut=    70.00 Ry     beta= 0.70
     Davidson diagonalization with overlap
     ethr =  2.35E-07,  avg # of iterations =  2.0

     negative rho (up, down):  1.151E-03 2.518E-02

     total cpu time spent up to now is     9914.8 secs

     total energy              =    -951.88686541 Ry
     Harris-Foulkes estimate   =    -951.88685118 Ry
     estimated scf accuracy    <       0.00013328 Ry

     total magnetization       =    -0.00 Bohr mag/cell
     absolute magnetization    =     0.02 Bohr mag/cell

     iteration # 88     ecut=    70.00 Ry     beta= 0.70
     Davidson diagonalization with overlap
     ethr =  6.17E-08,  avg # of iterations =  2.0

     negative rho (up, down):  1.163E-03 2.954E-02

     total cpu time spent up to now is    10034.1 secs

     total energy              =    -951.88687263 Ry
     Harris-Foulkes estimate   =    -951.88687716 Ry
     estimated scf accuracy    <       0.00051466 Ry

     total magnetization       =     0.00 Bohr mag/cell
     absolute magnetization    =     0.03 Bohr mag/cell

     iteration # 89     ecut=    70.00 Ry     beta= 0.70
     Davidson diagonalization with overlap
     ethr =  6.17E-08,  avg # of iterations =  2.0

     negative rho (up, down):  1.216E-03 5.526E-02

     total cpu time spent up to now is    10152.4 secs

     total energy              =    -951.88682401 Ry
     Harris-Foulkes estimate   =    -951.88688027 Ry
     estimated scf accuracy    <       0.00147117 Ry

     total magnetization       =    -0.00 Bohr mag/cell
     absolute magnetization    =     0.05 Bohr mag/cell

     iteration # 90     ecut=    70.00 Ry     beta= 0.70
     Davidson diagonalization with overlap
     ethr =  6.17E-08,  avg # of iterations =  1.0

     negative rho (up, down):  1.230E-03 6.095E-02

     total cpu time spent up to now is    10260.4 secs

     total energy              =    -951.88677732 Ry
     Harris-Foulkes estimate   =    -951.88682440 Ry
     estimated scf accuracy    <       0.00131761 Ry

     total magnetization       =    -0.00 Bohr mag/cell
     absolute magnetization    =     0.05 Bohr mag/cell

     iteration # 91     ecut=    70.00 Ry     beta= 0.70
     Davidson diagonalization with overlap
     ethr =  6.17E-08,  avg # of iterations =  2.0

     negative rho (up, down):  1.167E-03 3.880E-02

     total cpu time spent up to now is    10370.8 secs

     total energy              =    -951.88685427 Ry
     Harris-Foulkes estimate   =    -951.88679363 Ry
     estimated scf accuracy    <       0.00029646 Ry

     total magnetization       =     0.00 Bohr mag/cell
     absolute magnetization    =     0.03 Bohr mag/cell

     iteration # 92     ecut=    70.00 Ry     beta= 0.70
     Davidson diagonalization with overlap
     ethr =  6.17E-08,  avg # of iterations =  1.0

     negative rho (up, down):  1.160E-03 3.899E-02

     total cpu time spent up to now is    10472.4 secs

     total energy              =    -951.88684906 Ry
     Harris-Foulkes estimate   =    -951.88685452 Ry
     estimated scf accuracy    <       0.00039409 Ry

     total magnetization       =     0.00 Bohr mag/cell
     absolute magnetization    =     0.03 Bohr mag/cell

     iteration # 93     ecut=    70.00 Ry     beta= 0.70
     Davidson diagonalization with overlap
     ethr =  6.17E-08,  avg # of iterations =  2.0

     negative rho (up, down):  1.180E-03 2.902E-02

     total cpu time spent up to now is    10575.3 secs

     total energy              =    -951.88685202 Ry
     Harris-Foulkes estimate   =    -951.88685659 Ry
     estimated scf accuracy    <       0.00038524 Ry

     total magnetization       =    -0.00 Bohr mag/cell
     absolute magnetization    =     0.02 Bohr mag/cell

     iteration # 94     ecut=    70.00 Ry     beta= 0.70
     Davidson diagonalization with overlap
     ethr =  6.17E-08,  avg # of iterations =  2.0

     negative rho (up, down):  1.231E-03 4.011E-02

     total cpu time spent up to now is    10679.8 secs

     total energy              =    -951.88679449 Ry
     Harris-Foulkes estimate   =    -951.88687072 Ry
     estimated scf accuracy    <       0.00099742 Ry

     total magnetization       =    -0.00 Bohr mag/cell
     absolute magnetization    =     0.03 Bohr mag/cell

     iteration # 95     ecut=    70.00 Ry     beta= 0.70
     Davidson diagonalization with overlap
     ethr =  6.17E-08,  avg # of iterations =  2.5

     negative rho (up, down):  1.151E-03 3.952E-03

     total cpu time spent up to now is    10781.6 secs

     total energy              =    -951.88686982 Ry
     Harris-Foulkes estimate   =    -951.88682045 Ry
     estimated scf accuracy    <       0.00007212 Ry

     total magnetization       =    -0.00 Bohr mag/cell
     absolute magnetization    =     0.01 Bohr mag/cell

     iteration # 96     ecut=    70.00 Ry     beta= 0.70
     Davidson diagonalization with overlap
     ethr =  3.34E-08,  avg # of iterations =  2.5

     negative rho (up, down):  1.151E-03 3.764E-02

     total cpu time spent up to now is    10889.4 secs

     total energy              =    -951.88685139 Ry
     Harris-Foulkes estimate   =    -951.88688467 Ry
     estimated scf accuracy    <       0.00066813 Ry

     total magnetization       =     0.00 Bohr mag/cell
     absolute magnetization    =     0.04 Bohr mag/cell

     iteration # 97     ecut=    70.00 Ry     beta= 0.70
     Davidson diagonalization with overlap
     ethr =  3.34E-08,  avg # of iterations =  2.0

     negative rho (up, down):  1.152E-03 2.068E-02

     total cpu time spent up to now is    10994.5 secs

     total energy              =    -951.88686644 Ry
     Harris-Foulkes estimate   =    -951.88685773 Ry
     estimated scf accuracy    <       0.00006064 Ry

     total magnetization       =    -0.00 Bohr mag/cell
     absolute magnetization    =     0.01 Bohr mag/cell

     iteration # 98     ecut=    70.00 Ry     beta= 0.70
     Davidson diagonalization with overlap
     ethr =  2.81E-08,  avg # of iterations =  2.0

     negative rho (up, down):  1.154E-03 1.338E-02

     total cpu time spent up to now is    11093.4 secs

     total energy              =    -951.88687095 Ry
     Harris-Foulkes estimate   =    -951.88687094 Ry
     estimated scf accuracy    <       0.00010345 Ry

     total magnetization       =    -0.00 Bohr mag/cell
     absolute magnetization    =     0.01 Bohr mag/cell

     iteration # 99     ecut=    70.00 Ry     beta= 0.70
     Davidson diagonalization with overlap
     ethr =  2.81E-08,  avg # of iterations =  1.0

     negative rho (up, down):  1.159E-03 1.829E-02

     total cpu time spent up to now is    11189.8 secs

     total energy              =    -951.88686920 Ry
     Harris-Foulkes estimate   =    -951.88687236 Ry
     estimated scf accuracy    <       0.00013799 Ry

     total magnetization       =    -0.00 Bohr mag/cell
     absolute magnetization    =     0.02 Bohr mag/cell

     iteration #100     ecut=    70.00 Ry     beta= 0.70
     Davidson diagonalization with overlap
     ethr =  2.81E-08,  avg # of iterations =  1.0

     negative rho (up, down):  1.161E-03 2.441E-02

     Magnetic moment per site:
     atom:    1    charge:    0.2110    magn:    0.0000    constr:    0.0000
     atom:    2    charge:    0.2122    magn:    0.0000    constr:    0.0000
     atom:    3    charge:    1.7155    magn:    0.0000    constr:    0.0000
     atom:    4    charge:    1.7152    magn:   -0.0000    constr:    0.0000
     atom:    5    charge:    1.7168    magn:    0.0000    constr:    0.0000
     atom:    6    charge:    1.7146    magn:   -0.0000    constr:    0.0000
     atom:    7    charge:    1.7168    magn:    0.0000    constr:    0.0000
     atom:    8    charge:    1.7152    magn:   -0.0000    constr:    0.0000
     atom:    9    charge:    1.7155    magn:    0.0000    constr:    0.0000
     atom:   10    charge:    1.7176    magn:   -0.0000    constr:    0.0000
     atom:   11    charge:    1.7155    magn:    0.0000    constr:    0.0000
     atom:   12    charge:    1.7176    magn:   -0.0000    constr:    0.0000
     atom:   13    charge:    1.7156    magn:    0.0000    constr:    0.0000
     atom:   14    charge:    1.7175    magn:   -0.0000    constr:    0.0000
     atom:   15    charge:    1.7118    magn:    0.0000    constr:    0.0000
     atom:   16    charge:    1.7114    magn:   -0.0000    constr:    0.0000
     atom:   17    charge:    1.7206    magn:    0.0000    constr:    0.0000
     atom:   18    charge:    1.7114    magn:   -0.0000    constr:    0.0000
     atom:   19    charge:    1.7118    magn:    0.0000    constr:    0.0000
     atom:   20    charge:    1.7175    magn:   -0.0000    constr:    0.0000
     atom:   21    charge:    1.7155    magn:    0.0000    constr:    0.0000
     atom:   22    charge:    1.7176    magn:   -0.0000    constr:    0.0000
     atom:   23    charge:    1.7155    magn:    0.0000    constr:    0.0000
     atom:   24    charge:    1.7152    magn:   -0.0000    constr:    0.0000
     atom:   25    charge:    1.7118    magn:    0.0000    constr:    0.0000
     atom:   26    charge:    1.7113    magn:   -0.0000    constr:    0.0000
     atom:   27    charge:    1.8185    magn:   -0.0000    constr:    0.0000
     atom:   28    charge:   13.4052    magn:    0.0000    constr:    0.0000
     atom:   29    charge:    1.8185    magn:   -0.0000    constr:    0.0000
     atom:   30    charge:    1.7113    magn:   -0.0000    constr:    0.0000
     atom:   31    charge:    1.7118    magn:    0.0000    constr:    0.0000
     atom:   32    charge:    1.7152    magn:   -0.0000    constr:    0.0000
     atom:   33    charge:    1.7168    magn:    0.0000    constr:    0.0000
     atom:   34    charge:    1.7154    magn:   -0.0000    constr:    0.0000
     atom:   35    charge:    1.7168    magn:    0.0000    constr:    0.0000
     atom:   36    charge:    1.7146    magn:   -0.0000    constr:    0.0000
     atom:   37    charge:    1.7205    magn:    0.0000    constr:    0.0000
     atom:   38    charge:    1.7114    magn:   -0.0000    constr:    0.0000
     atom:   39    charge:    1.8188    magn:    0.0000    constr:    0.0000
     atom:   40    charge:    1.7114    magn:   -0.0000    constr:    0.0000
     atom:   41    charge:    1.7205    magn:    0.0000    constr:    0.0000
     atom:   42    charge:    1.7146    magn:   -0.0000    constr:    0.0000
     atom:   43    charge:    1.7168    magn:    0.0000    constr:    0.0000
     atom:   44    charge:    1.7154    magn:   -0.0000    constr:    0.0000
     atom:   45    charge:    1.7212    magn:    0.0000    constr:    0.0000
     atom:   46    charge:    1.7154    magn:   -0.0000    constr:    0.0000
     atom:   47    charge:    1.7168    magn:    0.0000    constr:    0.0000
     atom:   48    charge:    1.7152    magn:   -0.0000    constr:    0.0000
     atom:   49    charge:    1.7117    magn:    0.0000    constr:    0.0000
     atom:   50    charge:    1.7175    magn:   -0.0000    constr:    0.0000
     atom:   51    charge:    1.7117    magn:    0.0000    constr:    0.0000
     atom:   52    charge:    1.7152    magn:   -0.0000    constr:    0.0000

     total cpu time spent up to now is    11286.1 secs

     total energy              =    -951.88686093 Ry
     Harris-Foulkes estimate   =    -951.88686944 Ry
     estimated scf accuracy    <       0.00020994 Ry

     total magnetization       =     0.00 Bohr mag/cell
     absolute magnetization    =     0.02 Bohr mag/cell

     iteration #101     ecut=    70.00 Ry     beta= 0.70
     Davidson diagonalization with overlap
     ethr =  2.81E-08,  avg # of iterations =  2.0

     negative rho (up, down):  1.155E-03 1.990E-02

     total cpu time spent up to now is    11387.0 secs

     total energy              =    -951.88686945 Ry
     Harris-Foulkes estimate   =    -951.88686402 Ry
     estimated scf accuracy    <       0.00011031 Ry

     total magnetization       =    -0.00 Bohr mag/cell
     absolute magnetization    =     0.01 Bohr mag/cell

     iteration #102     ecut=    70.00 Ry     beta= 0.70
     Davidson diagonalization with overlap
     ethr =  2.81E-08,  avg # of iterations =  1.0

     negative rho (up, down):  1.155E-03 2.411E-02

     total cpu time spent up to now is    11492.2 secs

     total energy              =    -951.88686408 Ry
     Harris-Foulkes estimate   =    -951.88686981 Ry
     estimated scf accuracy    <       0.00016793 Ry

     total magnetization       =     0.00 Bohr mag/cell
     absolute magnetization    =     0.02 Bohr mag/cell

     iteration #103     ecut=    70.00 Ry     beta= 0.70
     Davidson diagonalization with overlap
     ethr =  2.81E-08,  avg # of iterations =  2.0

     negative rho (up, down):  1.155E-03 1.685E-02

     total cpu time spent up to now is    11590.4 secs

     total energy              =    -951.88686789 Ry
     Harris-Foulkes estimate   =    -951.88686532 Ry
     estimated scf accuracy    <       0.00007072 Ry

     total magnetization       =    -0.00 Bohr mag/cell
     absolute magnetization    =     0.01 Bohr mag/cell

     iteration #104     ecut=    70.00 Ry     beta= 0.70
     Davidson diagonalization with overlap
     ethr =  2.81E-08,  avg # of iterations =  2.0

     negative rho (up, down):  1.153E-03 1.260E-02

     total cpu time spent up to now is    11688.5 secs

     total energy              =    -951.88686802 Ry
     Harris-Foulkes estimate   =    -951.88686894 Ry
     estimated scf accuracy    <       0.00004394 Ry

     total magnetization       =     0.00 Bohr mag/cell
     absolute magnetization    =     0.01 Bohr mag/cell

     iteration #105     ecut=    70.00 Ry     beta= 0.70
     Davidson diagonalization with overlap
     ethr =  2.03E-08,  avg # of iterations =  2.0

     negative rho (up, down):  1.153E-03 8.761E-03

     total cpu time spent up to now is    11789.0 secs

     total energy              =    -951.88686819 Ry
     Harris-Foulkes estimate   =    -951.88687310 Ry
     estimated scf accuracy    <       0.00012422 Ry

     total magnetization       =    -0.00 Bohr mag/cell
     absolute magnetization    =     0.01 Bohr mag/cell

     iteration #106     ecut=    70.00 Ry     beta= 0.70
     Davidson diagonalization with overlap
     ethr =  2.03E-08,  avg # of iterations =  2.0

     negative rho (up, down):  1.149E-03 1.400E-02

     total cpu time spent up to now is    11891.8 secs

     total energy              =    -951.88687161 Ry
     Harris-Foulkes estimate   =    -951.88687255 Ry
     estimated scf accuracy    <       0.00008335 Ry

     total magnetization       =    -0.00 Bohr mag/cell
     absolute magnetization    =     0.01 Bohr mag/cell

     iteration #107     ecut=    70.00 Ry     beta= 0.70
     Davidson diagonalization with overlap
     ethr =  2.03E-08,  avg # of iterations =  1.5

     negative rho (up, down):  1.149E-03 1.073E-02

     total cpu time spent up to now is    11988.5 secs

     total energy              =    -951.88687181 Ry
     Harris-Foulkes estimate   =    -951.88687209 Ry
     estimated scf accuracy    <       0.00002429 Ry

     total magnetization       =     0.00 Bohr mag/cell
     absolute magnetization    =     0.01 Bohr mag/cell

     iteration #108     ecut=    70.00 Ry     beta= 0.70
     Davidson diagonalization with overlap
     ethr =  1.12E-08,  avg # of iterations =  2.0

     negative rho (up, down):  1.148E-03 5.954E-03

     total cpu time spent up to now is    12087.5 secs

     total energy              =    -951.88687374 Ry
     Harris-Foulkes estimate   =    -951.88687333 Ry
     estimated scf accuracy    <       0.00002361 Ry

     total magnetization       =    -0.00 Bohr mag/cell
     absolute magnetization    =     0.01 Bohr mag/cell

     iteration #109     ecut=    70.00 Ry     beta= 0.70
     Davidson diagonalization with overlap
     ethr =  1.09E-08,  avg # of iterations =  2.0

     negative rho (up, down):  1.151E-03 1.179E-02

     total cpu time spent up to now is    12184.9 secs

     total energy              =    -951.88687295 Ry
     Harris-Foulkes estimate   =    -951.88687494 Ry
     estimated scf accuracy    <       0.00006894 Ry

     total magnetization       =    -0.00 Bohr mag/cell
     absolute magnetization    =     0.01 Bohr mag/cell

     iteration #110     ecut=    70.00 Ry     beta= 0.70
     Davidson diagonalization with overlap
     ethr =  1.09E-08,  avg # of iterations =  2.0

     negative rho (up, down):  1.153E-03 1.860E-02

     total cpu time spent up to now is    12281.6 secs

     total energy              =    -951.88686623 Ry
     Harris-Foulkes estimate   =    -951.88687325 Ry
     estimated scf accuracy    <       0.00012476 Ry

     total magnetization       =    -0.00 Bohr mag/cell
     absolute magnetization    =     0.02 Bohr mag/cell

     iteration #111     ecut=    70.00 Ry     beta= 0.70
     Davidson diagonalization with overlap
     ethr =  1.09E-08,  avg # of iterations =  2.0

     negative rho (up, down):  1.149E-03 8.794E-03

     total cpu time spent up to now is    12381.7 secs

     total energy              =    -951.88687371 Ry
     Harris-Foulkes estimate   =    -951.88686780 Ry
     estimated scf accuracy    <       0.00001002 Ry

     total magnetization       =    -0.00 Bohr mag/cell
     absolute magnetization    =     0.00 Bohr mag/cell

[...]
     ethr =  3.61E-09,  avg # of iterations =  2.0

     negative rho (up, down):  1.148E-03 2.989E-03

     total cpu time spent up to now is    13089.3 secs

     total energy              =    -951.88687385 Ry
     Harris-Foulkes estimate   =    -951.88687384 Ry
     estimated scf accuracy    <       0.00000589 Ry

     total magnetization       =    -0.00 Bohr mag/cell
     absolute magnetization    =     0.00 Bohr mag/cell

     iteration #119     ecut=    70.00 Ry     beta= 0.70
     Davidson diagonalization with overlap
     ethr =  2.73E-09,  avg # of iterations =  1.0

     negative rho (up, down):  1.148E-03 3.185E-03

     total cpu time spent up to now is    13185.5 secs

     total energy              =    -951.88687401 Ry
     Harris-Foulkes estimate   =    -951.88687404 Ry
     estimated scf accuracy    <       0.00000487 Ry

     total magnetization       =    -0.00 Bohr mag/cell
     absolute magnetization    =     0.00 Bohr mag/cell

     iteration #120     ecut=    70.00 Ry     beta= 0.70
     Davidson diagonalization with overlap
     ethr =  2.25E-09,  avg # of iterations =  2.0

     negative rho (up, down):  1.148E-03 6.059E-03

     total cpu time spent up to now is    13282.8 secs

     total energy              =    -951.88687357 Ry
     Harris-Foulkes estimate   =    -951.88687410 Ry
     estimated scf accuracy    <       0.00001481 Ry

     total magnetization       =    -0.00 Bohr mag/cell
     absolute magnetization    =     0.01 Bohr mag/cell

     iteration #121     ecut=    70.00 Ry     beta= 0.70
     Davidson diagonalization with overlap
     ethr =  2.25E-09,  avg # of iterations =  2.0

     negative rho (up, down):  1.148E-03 6.140E-03

     total cpu time spent up to now is    13380.7 secs

     total energy              =    -951.88687350 Ry
     Harris-Foulkes estimate   =    -951.88687379 Ry
     estimated scf accuracy    <       0.00001346 Ry

     total magnetization       =     0.00 Bohr mag/cell
     absolute magnetization    =     0.00 Bohr mag/cell

     iteration #122     ecut=    70.00 Ry     beta= 0.70
     Davidson diagonalization with overlap
     ethr =  2.25E-09,  avg # of iterations =  2.0

     negative rho (up, down):  1.148E-03 7.380E-03

     total cpu time spent up to now is    13478.4 secs

     total energy              =    -951.88687323 Ry
     Harris-Foulkes estimate   =    -951.88687365 Ry
     estimated scf accuracy    <       0.00001596 Ry

     total magnetization       =    -0.00 Bohr mag/cell
     absolute magnetization    =     0.01 Bohr mag/cell

     iteration #123     ecut=    70.00 Ry     beta= 0.70
     Davidson diagonalization with overlap
     ethr =  2.25E-09,  avg # of iterations =  2.0

     negative rho (up, down):  1.148E-03 4.953E-03

     total cpu time spent up to now is    13575.3 secs

     total energy              =    -951.88687363 Ry
     Harris-Foulkes estimate   =    -951.88687333 Ry
     estimated scf accuracy    <       0.00000528 Ry

     total magnetization       =     0.00 Bohr mag/cell
     absolute magnetization    =     0.00 Bohr mag/cell

     iteration #124     ecut=    70.00 Ry     beta= 0.70
     Davidson diagonalization with overlap
     ethr =  2.25E-09,  avg # of iterations =  2.0

     negative rho (up, down):  1.147E-03 2.861E-03

     total cpu time spent up to now is    13673.0 secs

     total energy              =    -951.88687382 Ry
     Harris-Foulkes estimate   =    -951.88687372 Ry
     estimated scf accuracy    <       0.00000198 Ry

     total magnetization       =     0.00 Bohr mag/cell
     absolute magnetization    =     0.00 Bohr mag/cell

     iteration #125     ecut=    70.00 Ry     beta= 0.70
     Davidson diagonalization with overlap
     ethr =  9.18E-10,  avg # of iterations =  2.5

     negative rho (up, down):  1.148E-03 3.005E-03

     total cpu time spent up to now is    13776.2 secs

     total energy              =    -951.88687342 Ry
     Harris-Foulkes estimate   =    -951.88687423 Ry
     estimated scf accuracy    <       0.00001339 Ry

     total magnetization       =    -0.00 Bohr mag/cell
     absolute magnetization    =     0.00 Bohr mag/cell

     iteration #126     ecut=    70.00 Ry     beta= 0.70
     Davidson diagonalization with overlap
     ethr =  9.18E-10,  avg # of iterations =  2.0

     negative rho (up, down):  1.147E-03 3.699E-03

     total cpu time spent up to now is    13881.5 secs

     total energy              =    -951.88687403 Ry
     Harris-Foulkes estimate   =    -951.88687386 Ry
     estimated scf accuracy    <       0.00000616 Ry

     total magnetization       =    -0.00 Bohr mag/cell
     absolute magnetization    =     0.00 Bohr mag/cell

     iteration #127     ecut=    70.00 Ry     beta= 0.70
     Davidson diagonalization with overlap
     ethr =  9.18E-10,  avg # of iterations =  1.0

     negative rho (up, down):  1.147E-03 3.755E-03

     total cpu time spent up to now is    13977.5 secs

     total energy              =    -951.88687390 Ry
     Harris-Foulkes estimate   =    -951.88687404 Ry
     estimated scf accuracy    <       0.00000368 Ry

     total magnetization       =    -0.00 Bohr mag/cell
     absolute magnetization    =     0.00 Bohr mag/cell

     iteration #128     ecut=    70.00 Ry     beta= 0.70
     Davidson diagonalization with overlap
     ethr =  9.18E-10,  avg # of iterations =  2.0

     negative rho (up, down):  1.147E-03 1.746E-03

     total cpu time spent up to now is    14075.8 secs

     total energy              =    -951.88687409 Ry
     Harris-Foulkes estimate   =    -951.88687403 Ry
     estimated scf accuracy    <       0.00000159 Ry

     total magnetization       =     0.00 Bohr mag/cell
     absolute magnetization    =     0.00 Bohr mag/cell

     iteration #129     ecut=    70.00 Ry     beta= 0.70
     Davidson diagonalization with overlap
     ethr =  7.35E-10,  avg # of iterations =  2.0

     negative rho (up, down):  1.147E-03 2.362E-03

     total cpu time spent up to now is    14172.4 secs

     total energy              =    -951.88687415 Ry
     Harris-Foulkes estimate   =    -951.88687418 Ry
     estimated scf accuracy    <       0.00000276 Ry

     total magnetization       =    -0.00 Bohr mag/cell
     absolute magnetization    =     0.00 Bohr mag/cell

     iteration #130     ecut=    70.00 Ry     beta= 0.70
     Davidson diagonalization with overlap
     ethr =  7.35E-10,  avg # of iterations =  2.0

     negative rho (up, down):  1.147E-03 5.519E-03

     total cpu time spent up to now is    14272.1 secs

     total energy              =    -951.88687352 Ry
     Harris-Foulkes estimate   =    -951.88687424 Ry
     estimated scf accuracy    <       0.00001236 Ry

     total magnetization       =    -0.00 Bohr mag/cell
     absolute magnetization    =     0.01 Bohr mag/cell

     iteration #131     ecut=    70.00 Ry     beta= 0.70
     Davidson diagonalization with overlap
     ethr =  7.35E-10,  avg # of iterations =  2.0

     negative rho (up, down):  1.147E-03 7.042E-05

     Magnetic moment per site:
     atom:    1    charge:    0.2110    magn:    0.0000    constr:    0.0000
     atom:    2    charge:    0.2122    magn:   -0.0000    constr:    0.0000
     atom:    3    charge:    1.7155    magn:    0.0000    constr:    0.0000
     atom:    4    charge:    1.7152    magn:   -0.0000    constr:    0.0000
     atom:    5    charge:    1.7168    magn:    0.0000    constr:    0.0000
     atom:    6    charge:    1.7146    magn:   -0.0000    constr:    0.0000
     atom:    7    charge:    1.7168    magn:    0.0000    constr:    0.0000
     atom:    8    charge:    1.7152    magn:   -0.0000    constr:    0.0000
     atom:    9    charge:    1.7155    magn:    0.0000    constr:    0.0000
     atom:   10    charge:    1.7176    magn:   -0.0000    constr:    0.0000
     atom:   11    charge:    1.7155    magn:    0.0000    constr:    0.0000
     atom:   12    charge:    1.7176    magn:   -0.0000    constr:    0.0000
     atom:   13    charge:    1.7156    magn:    0.0000    constr:    0.0000
     atom:   14    charge:    1.7175    magn:   -0.0000    constr:    0.0000
     atom:   15    charge:    1.7117    magn:    0.0000    constr:    0.0000
     atom:   16    charge:    1.7113    magn:    0.0000    constr:    0.0000
     atom:   17    charge:    1.7206    magn:    0.0000    constr:    0.0000
     atom:   18    charge:    1.7113    magn:   -0.0000    constr:    0.0000
     atom:   19    charge:    1.7117    magn:    0.0000    constr:    0.0000
     atom:   20    charge:    1.7175    magn:   -0.0000    constr:    0.0000
     atom:   21    charge:    1.7156    magn:    0.0000    constr:    0.0000
     atom:   22    charge:    1.7176    magn:   -0.0000    constr:    0.0000
     atom:   23    charge:    1.7155    magn:    0.0000    constr:    0.0000
     atom:   24    charge:    1.7152    magn:   -0.0000    constr:    0.0000
     atom:   25    charge:    1.7117    magn:    0.0000    constr:    0.0000
     atom:   26    charge:    1.7113    magn:    0.0000    constr:    0.0000
     atom:   27    charge:    1.8184    magn:   -0.0000    constr:    0.0000
     atom:   28    charge:   13.4057    magn:   -0.0000    constr:    0.0000
     atom:   29    charge:    1.8184    magn:    0.0000    constr:    0.0000
     atom:   30    charge:    1.7113    magn:    0.0000    constr:    0.0000
     atom:   31    charge:    1.7117    magn:    0.0000    constr:    0.0000
     atom:   32    charge:    1.7152    magn:   -0.0000    constr:    0.0000
     atom:   33    charge:    1.7168    magn:    0.0000    constr:    0.0000
     atom:   34    charge:    1.7154    magn:   -0.0000    constr:    0.0000
     atom:   35    charge:    1.7168    magn:    0.0000    constr:    0.0000
     atom:   36    charge:    1.7146    magn:   -0.0000    constr:    0.0000
     atom:   37    charge:    1.7205    magn:    0.0000    constr:    0.0000
     atom:   38    charge:    1.7114    magn:   -0.0000    constr:    0.0000
     atom:   39    charge:    1.8189    magn:    0.0000    constr:    0.0000
     atom:   40    charge:    1.7114    magn:   -0.0000    constr:    0.0000
     atom:   41    charge:    1.7205    magn:    0.0000    constr:    0.0000
     atom:   42    charge:    1.7146    magn:   -0.0000    constr:    0.0000
     atom:   43    charge:    1.7168    magn:    0.0000    constr:    0.0000
     atom:   44    charge:    1.7154    magn:   -0.0000    constr:    0.0000
     atom:   45    charge:    1.7212    magn:    0.0000    constr:    0.0000
     atom:   46    charge:    1.7154    magn:   -0.0000    constr:    0.0000
     atom:   47    charge:    1.7168    magn:    0.0000    constr:    0.0000
     atom:   48    charge:    1.7152    magn:   -0.0000    constr:    0.0000
     atom:   49    charge:    1.7117    magn:    0.0000    constr:    0.0000
     atom:   50    charge:    1.7175    magn:   -0.0000    constr:    0.0000
     atom:   51    charge:    1.7117    magn:    0.0000    constr:    0.0000
     atom:   52    charge:    1.7152    magn:   -0.0000    constr:    0.0000

     total cpu time spent up to now is    14373.4 secs

     End of self-consistent calculation

 ------ SPIN UP ------------


          k = 0.0000 0.0000 0.0000 ( 87777 PWs)   bands (ev):

  -107.9236 -69.0918 -69.0916 -67.0093 -19.8289 -19.0095 -19.0093 -18.8906
   -18.8906 -18.8058 -18.7393 -17.1660 -17.1650 -17.1303 -17.0819 -17.0815
   -16.7559 -16.3148 -16.3142 -16.1681 -16.1681 -16.1545 -15.6731 -14.3139
   -14.3127 -14.1522 -14.0185 -14.0183 -13.5171 -13.1308 -13.1307 -13.0790
   -12.9034 -12.9034 -12.5032 -12.0784 -12.0782 -11.7146 -11.5708 -11.5705
   -10.9374 -10.4350 -10.4348  -9.5795  -9.3679  -9.3677  -9.2285  -9.2137
    -9.2136  -9.1989  -8.9553  -8.9550  -8.5955  -8.5954  -8.4598  -7.9619
    -7.9041  -7.8710  -7.8516  -7.6667  -7.5440  -7.5439  -7.4508  -7.4505
    -6.8899  -6.8483  -6.8234  -6.8233  -6.7489  -6.6216  -6.6212  -6.5575
    -6.5523  -6.5523  -6.5208  -6.4397  -6.4282  -6.4235  -6.3047  -6.2917
    -6.2905  -5.5490  -5.5487  -5.0328  -4.9517  -4.8449  -4.8447  -4.7593
    -4.7187  -4.7179  -4.4215  -4.4009  -4.4003  -3.8386  -3.8380  -3.7663
    -3.7611  -3.7611  -3.6999  -3.4218  -3.4217  -3.3410  -1.8937  -1.8080
    -1.8078  -1.5947  -1.5919  -1.1585   0.0987   0.1010   0.9022   0.9603
     0.9611   1.2072   1.2102   1.5453   2.5042   2.7992   2.8013   2.8511
     3.0314   3.0356   3.4417   3.6150   3.6210   3.7397   3.7426   3.7657
     3.9081   4.2827

     occupation numbers 
     1.0000   1.0000   1.0000   1.0000   1.0000   1.0000   1.0000   1.0000
     1.0000   1.0000   1.0000   1.0000   1.0000   1.0000   1.0000   1.0000
     1.0000   1.0000   1.0000   1.0000   1.0000   1.0000   1.0000   1.0000
     1.0000   1.0000   1.0000   1.0000   1.0000   1.0000   1.0000   1.0000
     1.0000   1.0000   1.0000   1.0000   1.0000   1.0000   1.0000   1.0000
     1.0000   1.0000   1.0000   1.0000   1.0000   1.0000   1.0000   1.0000
     1.0000   1.0000   1.0000   1.0000   1.0000   1.0000   1.0000   1.0000
     1.0000   1.0000   1.0000   1.0000   1.0000   1.0000   1.0000   1.0000
     1.0000   1.0000   1.0000   1.0000   1.0000   1.0000   1.0000   1.0000
     1.0000   1.0000   1.0000   1.0000   1.0000   1.0000   1.0000   1.0000
     1.0000   1.0000   1.0000   1.0000   1.0000   1.0000   1.0000   1.0000
     1.0000   1.0000   1.0000   1.0000   1.0000   1.0000   1.0000   1.0000
     1.0000   1.0000   1.0000   1.0000   1.0000   1.0000   1.0000   1.0000
     1.0000   1.0000   1.0000   1.0000   0.0000   0.0000   0.0000   0.0000
     0.0000   0.0000   0.0000   0.0000   0.0000   0.0000   0.0000   0.0000
     0.0000   0.0000   0.0000   0.0000   0.0000   0.0000   0.0000   0.0000
     0.0000   0.0000

 ------ SPIN DOWN ----------


          k = 0.0000 0.0000 0.0000 ( 87777 PWs)   bands (ev):

  -107.9236 -69.0918 -69.0917 -67.0093 -19.8289 -19.0095 -19.0093 -18.8906
   -18.8906 -18.8058 -18.7393 -17.1660 -17.1650 -17.1303 -17.0819 -17.0815
   -16.7559 -16.3148 -16.3142 -16.1681 -16.1681 -16.1545 -15.6731 -14.3139
   -14.3126 -14.1522 -14.0185 -14.0183 -13.5171 -13.1308 -13.1307 -13.0790
   -12.9034 -12.9034 -12.5032 -12.0784 -12.0782 -11.7146 -11.5708 -11.5705
   -10.9374 -10.4351 -10.4347  -9.5795  -9.3679  -9.3677  -9.2285  -9.2137
    -9.2136  -9.1989  -8.9553  -8.9549  -8.5955  -8.5954  -8.4598  -7.9619
    -7.9041  -7.8710  -7.8516  -7.6667  -7.5440  -7.5439  -7.4508  -7.4505
    -6.8899  -6.8483  -6.8234  -6.8233  -6.7489  -6.6216  -6.6212  -6.5575
    -6.5523  -6.5523  -6.5208  -6.4397  -6.4282  -6.4236  -6.3047  -6.2917
    -6.2905  -5.5490  -5.5487  -5.0328  -4.9517  -4.8449  -4.8447  -4.7593
    -4.7187  -4.7179  -4.4215  -4.4009  -4.4003  -3.8386  -3.8380  -3.7663
    -3.7611  -3.7611  -3.6999  -3.4218  -3.4217  -3.3410  -1.8937  -1.8080
    -1.8078  -1.5947  -1.5919  -1.1585   0.0988   0.1009   0.9022   0.9603
     0.9611   1.2072   1.2102   1.5453   2.5041   2.7992   2.8013   2.8511
     3.0314   3.0356   3.4417   3.6149   3.6210   3.7396   3.7424   3.7657
     3.9079   4.2827

     occupation numbers 
     1.0000   1.0000   1.0000   1.0000   1.0000   1.0000   1.0000   1.0000
     1.0000   1.0000   1.0000   1.0000   1.0000   1.0000   1.0000   1.0000
     1.0000   1.0000   1.0000   1.0000   1.0000   1.0000   1.0000   1.0000
     1.0000   1.0000   1.0000   1.0000   1.0000   1.0000   1.0000   1.0000
     1.0000   1.0000   1.0000   1.0000   1.0000   1.0000   1.0000   1.0000
     1.0000   1.0000   1.0000   1.0000   1.0000   1.0000   1.0000   1.0000
     1.0000   1.0000   1.0000   1.0000   1.0000   1.0000   1.0000   1.0000
     1.0000   1.0000   1.0000   1.0000   1.0000   1.0000   1.0000   1.0000
     1.0000   1.0000   1.0000   1.0000   1.0000   1.0000   1.0000   1.0000
     1.0000   1.0000   1.0000   1.0000   1.0000   1.0000   1.0000   1.0000
     1.0000   1.0000   1.0000   1.0000   1.0000   1.0000   1.0000   1.0000
     1.0000   1.0000   1.0000   1.0000   1.0000   1.0000   1.0000   1.0000
     1.0000   1.0000   1.0000   1.0000   1.0000   1.0000   1.0000   1.0000
     1.0000   1.0000   1.0000   1.0000   0.0000   0.0000   0.0000   0.0000
     0.0000   0.0000   0.0000   0.0000   0.0000   0.0000   0.0000   0.0000
     0.0000   0.0000   0.0000   0.0000   0.0000   0.0000   0.0000   0.0000
     0.0000   0.0000

     the Fermi energy is    -0.9523 ev

!    total energy              =    -951.88687426 Ry
     Harris-Foulkes estimate   =    -951.88687367 Ry
     estimated scf accuracy    <       0.00000066 Ry

     The total energy is the sum of the following terms:

     one-electron contribution =   -2981.83394933 Ry
     hartree contribution      =    1533.55176493 Ry
     xc contribution           =    -265.73203746 Ry
     ewald contribution        =     762.12734760 Ry
     smearing contrib. (-TS)   =       0.00000000 Ry

     total magnetization       =    -0.00 Bohr mag/cell
     absolute magnetization    =     0.00 Bohr mag/cell

     convergence has been achieved in 131 iterations

     Writing output data file distance-2.6.save/

     init_run     :     76.28s CPU     77.57s WALL (       1 calls)
     electrons    :  14047.72s CPU  14294.85s WALL (       1 calls)

     Called by init_run:
     wfcinit      :     42.47s CPU     42.75s WALL (       1 calls)
     wfcinit:atom :      0.07s CPU      0.11s WALL (       2 calls)
     wfcinit:wfcr :     42.05s CPU     42.24s WALL (       2 calls)
     potinit      :     13.90s CPU     14.32s WALL (       1 calls)
     hinit0       :     11.25s CPU     11.27s WALL (       1 calls)

     Called by electrons:
     c_bands      :   8807.37s CPU   8856.33s WALL (     131 calls)
     sum_band     :   3080.36s CPU   3163.84s WALL (     131 calls)
     v_of_rho     :   1016.09s CPU   1060.00s WALL (     132 calls)
     v_h          :     10.71s CPU     11.04s WALL (     132 calls)
     v_xc         :   1005.38s CPU   1048.96s WALL (     132 calls)
     newd         :   1056.45s CPU   1126.22s WALL (     132 calls)
     mix_rho      :     69.58s CPU     70.69s WALL (     131 calls)

     Called by c_bands:
     init_us_2    :     26.31s CPU     26.40s WALL (     526 calls)
     cegterg      :   8737.58s CPU   8786.23s WALL (     262 calls)

     Called by sum_band:
     sum_band:bec :      0.23s CPU      0.23s WALL (     262 calls)
     addusdens    :   1912.28s CPU   1988.42s WALL (     131 calls)

     Called by *egterg:
     h_psi        :   4587.63s CPU   4619.71s WALL (     890 calls)
     s_psi        :   1525.73s CPU   1527.00s WALL (     890 calls)
     g_psi        :      4.69s CPU      4.70s WALL (     626 calls)
     cdiaghg      :     56.08s CPU     56.12s WALL (     888 calls)
     cegterg:over :   1037.30s CPU   1038.19s WALL (     626 calls)
     cegterg:upda :    604.68s CPU    608.61s WALL (     626 calls)
     cegterg:last :    469.96s CPU    470.32s WALL (     262 calls)

     Called by h_psi:
     h_psi:pot    :   4582.14s CPU   4608.76s WALL (     890 calls)
     h_psi:calbec :   1534.17s CPU   1535.37s WALL (     890 calls)
     vloc_psi     :   1523.43s CPU   1547.72s WALL (     890 calls)
     add_vuspsi   :   1524.53s CPU   1525.66s WALL (     890 calls)

     General routines
     calbec       :   2232.68s CPU   2234.41s WALL (    1152 calls)
     fft          :    610.72s CPU    628.73s WALL (    9894 calls)
     ffts         :     10.61s CPU     11.06s WALL (     526 calls)
     fftw         :   1639.50s CPU   1666.68s WALL (  183420 calls)
     interpolate  :     24.14s CPU     24.80s WALL (     264 calls)

     Parallel routines
     fft_scatt_xy :    416.97s CPU    421.32s WALL (  193840 calls)
     fft_scatt_yz :    751.87s CPU    786.01s WALL (  193840 calls)

     PWSCF        :      3h55m CPU      3h59m WALL


   This run was terminated on:  16:11:35  23Dec2022            

=------------------------------------------------------------------------------=
   JOB DONE.
=------------------------------------------------------------------------------=
