
     Program PWSCF v.6.4.1 starts on 22Dec2022 at 23: 3: 4 

     This program is part of the open-source Quantum ESPRESSO suite
     for quantum simulation of materials; please cite
         "P. Giannozzi et al., J. Phys.:Condens. Matter 21 395502 (2009);
         "P. Giannozzi et al., J. Phys.:Condens. Matter 29 465901 (2017);
          URL http://www.quantum-espresso.org", 
     in publications or presentations arising from this work. More details at
     http://www.quantum-espresso.org/quote

     Parallel version (MPI), running on     6 processors

     MPI processes distributed on     1 nodes
     R & G space division:  proc/nbgrp/npool/nimage =       6
     Reading input from distance-4.5.in

     Current dimensions of program PWSCF are:
     Max number of different atomic species (ntypx) = 10
     Max number of k-points (npk) =  40000
     Max angular momentum in pseudopotentials (lmaxx) =  3

     IMPORTANT: XC functional enforced from input :
     Exchange-correlation      = RVV10 ( 1  4 13  4 3 0)
     Any further DFT definition will be discarded
     Please, verify this is what you really want

               file H.pbe-rrkjus.UPF: wavefunction(s)  1S renormalized

     Subspace diagonalization in iterative solution of the eigenvalue problem:
     a serial algorithm will be used


     Parallelization info
     --------------------
     sticks:   dense  smooth     PW     G-vecs:    dense   smooth      PW
     Min        3051    1746    432               270999   117096   14629
     Max        3053    1747    437               271001   117099   14630
     Sum       18313   10477   2611              1626001   702581   87777



     bravais-lattice index     =            4
     lattice parameter (alat)  =      23.2937  a.u.
     unit-cell volume          =    8879.8548 (a.u.)^3
     number of atoms/cell      =           52
     number of atomic types    =            3
     number of electrons       =       216.00
     number of Kohn-Sham states=          130
     kinetic-energy cutoff     =      70.0000  Ry
     charge density cutoff     =     490.0000  Ry
     convergence threshold     =      1.0E-06
     mixing beta               =       0.7000
     number of iterations used =            8  plain     mixing
     Exchange-correlation      = RVV10 ( 1  4 13  4 3 0)

     celldm(1)=  23.293684  celldm(2)=   0.000000  celldm(3)=   0.811261
     celldm(4)=   0.000000  celldm(5)=   0.000000  celldm(6)=   0.000000

     crystal axes: (cart. coord. in units of alat)
               a(1) = (   1.000000   0.000000   0.000000 )  
               a(2) = (  -0.500000   0.866025   0.000000 )  
               a(3) = (   0.000000   0.000000   0.811261 )  

     reciprocal axes: (cart. coord. in units 2 pi/alat)
               b(1) = (  1.000000  0.577350 -0.000000 )  
               b(2) = (  0.000000  1.154701  0.000000 )  
               b(3) = (  0.000000 -0.000000  1.232649 )  


     PseudoPot. # 1 for H  read from file:
     /home/cristian/Escritorio/Proyecto_Grafeno/pseudopotenciales/H.pbe-rrkjus.UPF
     MD5 check sum: 7cc9d459525c9a0585f487a71c3c9563
     Pseudo is Ultrasoft, Zval =  1.0
     Generated by new atomic code, or converted to UPF format
     Using radial grid of 1061 points,  2 beta functions with: 
                l(1) =   0
                l(2) =   0
     Q(r) pseudized with 0 coefficients 


     PseudoPot. # 2 for C  read from file:
     /home/cristian/Escritorio/Proyecto_Grafeno/pseudopotenciales/C.pbe-n-rrkjus_psl.1.0.0.UPF
     MD5 check sum: 1fdd950c42eb37d8afe3dd2f8d12311e
     Pseudo is Ultrasoft + core correction, Zval =  4.0
     Generated using "atomic" code by A. Dal Corso v.6.3MaX
     Using radial grid of 1073 points,  4 beta functions with: 
                l(1) =   0
                l(2) =   0
                l(3) =   1
                l(4) =   1
     Q(r) pseudized with 0 coefficients 


     PseudoPot. # 3 for Ni read from file:
     /home/cristian/Escritorio/Proyecto_Grafeno/pseudopotenciales/Ni.pbe-spn-rrkjus_psl.1.0.0.UPF
     MD5 check sum: 8b3fc9aac6dafe35f580d41bb18c3945
     Pseudo is Ultrasoft + core correction, Zval = 18.0
     Generated using "atomic" code by A. Dal Corso v.6.3
     Using radial grid of 1195 points,  6 beta functions with: 
                l(1) =   0
                l(2) =   0
                l(3) =   1
                l(4) =   1
                l(5) =   2
                l(6) =   2
     Q(r) pseudized with 0 coefficients 


     vdW kernel table read from file rVV10_kernel_table
     MD5 check sum: b8e2538accc0c0b3206b45ba4daaba6c

     atomic species   valence    mass     pseudopotential
        H              1.00     1.00794     H ( 1.00)
        C              4.00    12.01070     C ( 1.00)
        Ni            18.00    58.69340     Ni( 1.00)

     Starting magnetic structure 
     atomic species   magnetization
        H            0.500
        C            0.300
        Ni           0.800

     No symmetry found


                                    s                        frac. trans.

      isym =  1     identity                                     

 cryst.   s( 1) = (     1          0          0      )
                  (     0          1          0      )
                  (     0          0          1      )

 cart.    s( 1) = (  1.0000000  0.0000000  0.0000000 )
                  (  0.0000000  1.0000000  0.0000000 )
                  (  0.0000000  0.0000000  1.0000000 )


     point group C_1 (1)    
     there are  1 classes
     the character table:

       E    
A      1.00

     the symmetry operations in each class and the name of the first element:

     E        1
          identity                                               

   Cartesian axes

     site n.     atom                  positions (alat units)
         1           H   tau(   1) = (   0.2500000   0.4907477   0.3650675  )
         2           H   tau(   2) = (   0.2500000   0.4907477   0.4260802  )
         3           C   tau(   3) = (   0.0000000   0.0000000   0.0000000  )
         4           C   tau(   4) = (   0.0000000   0.1154701   0.0000000  )
         5           C   tau(   5) = (  -0.1000000   0.1732051   0.0000000  )
         6           C   tau(   6) = (  -0.1000000   0.2886751   0.0000000  )
         7           C   tau(   7) = (  -0.2000000   0.3464102   0.0000000  )
         8           C   tau(   8) = (  -0.2000000   0.4618802   0.0000000  )
         9           C   tau(   9) = (  -0.3000000   0.5196152   0.0000000  )
        10           C   tau(  10) = (  -0.3000000   0.6350853   0.0000000  )
        11           C   tau(  11) = (  -0.4000000   0.6928203   0.0000000  )
        12           C   tau(  12) = (  -0.4000000   0.8082904   0.0000000  )
        13           C   tau(  13) = (   0.2000000   0.0000000   0.0000000  )
        14           C   tau(  14) = (   0.2000000   0.1154701   0.0000000  )
        15           C   tau(  15) = (   0.1000000   0.1732051   0.0000000  )
        16           C   tau(  16) = (   0.1000000   0.2886751   0.0000000  )
        17           C   tau(  17) = (   0.0000000   0.3464102   0.0000000  )
        18           C   tau(  18) = (   0.0000000   0.4618802   0.0000000  )
        19           C   tau(  19) = (  -0.1000000   0.5196152   0.0000000  )
        20           C   tau(  20) = (  -0.1000000   0.6350853   0.0000000  )
        21           C   tau(  21) = (  -0.2000000   0.6928203   0.0000000  )
        22           C   tau(  22) = (  -0.2000000   0.8082904   0.0000000  )
        23           C   tau(  23) = (   0.4000000   0.0000000   0.0000000  )
        24           C   tau(  24) = (   0.4000000   0.1154701   0.0000000  )
        25           C   tau(  25) = (   0.3000000   0.1732051   0.0000000  )
        26           C   tau(  26) = (   0.3000000   0.2886751   0.0000000  )
        27           C   tau(  27) = (   0.2000000   0.3464102   0.0000000  )
        28           Ni  tau(  28) = (   0.2000000   0.4618802   0.0000000  )
        29           C   tau(  29) = (   0.1000000   0.5196152   0.0000000  )
        30           C   tau(  30) = (   0.1000000   0.6350853   0.0000000  )
        31           C   tau(  31) = (   0.0000000   0.6928203   0.0000000  )
        32           C   tau(  32) = (   0.0000000   0.8082904   0.0000000  )
        33           C   tau(  33) = (   0.6000000   0.0000000   0.0000000  )
        34           C   tau(  34) = (   0.6000000   0.1154701   0.0000000  )
        35           C   tau(  35) = (   0.5000000   0.1732051   0.0000000  )
        36           C   tau(  36) = (   0.5000000   0.2886751   0.0000000  )
        37           C   tau(  37) = (   0.4000000   0.3464102   0.0000000  )
        38           C   tau(  38) = (   0.4000000   0.4618802   0.0000000  )
        39           C   tau(  39) = (   0.3000000   0.5196152   0.0000000  )
        40           C   tau(  40) = (   0.3000000   0.6350853   0.0000000  )
        41           C   tau(  41) = (   0.2000000   0.6928203   0.0000000  )
        42           C   tau(  42) = (   0.2000000   0.8082904   0.0000000  )
        43           C   tau(  43) = (   0.8000000   0.0000000   0.0000000  )
        44           C   tau(  44) = (   0.8000000   0.1154701   0.0000000  )
        45           C   tau(  45) = (   0.7000000   0.1732051   0.0000000  )
        46           C   tau(  46) = (   0.7000000   0.2886751   0.0000000  )
        47           C   tau(  47) = (   0.6000000   0.3464102   0.0000000  )
        48           C   tau(  48) = (   0.6000000   0.4618802   0.0000000  )
        49           C   tau(  49) = (   0.5000000   0.5196152   0.0000000  )
        50           C   tau(  50) = (   0.5000000   0.6350853   0.0000000  )
        51           C   tau(  51) = (   0.4000000   0.6928203   0.0000000  )
        52           C   tau(  52) = (   0.4000000   0.8082904   0.0000000  )

   Crystallographic axes

     site n.     atom                  positions (cryst. coord.)
         1           H   tau(   1) = (  0.5333333  0.5666667  0.4500000  )
         2           H   tau(   2) = (  0.5333333  0.5666667  0.5252072  )
         3           C   tau(   3) = (  0.0000000  0.0000000  0.0000000  )
         4           C   tau(   4) = (  0.0666667  0.1333333  0.0000000  )
         5           C   tau(   5) = (  0.0000000  0.2000000  0.0000000  )
         6           C   tau(   6) = (  0.0666667  0.3333333  0.0000000  )
         7           C   tau(   7) = (  0.0000000  0.4000000  0.0000000  )
         8           C   tau(   8) = (  0.0666667  0.5333333  0.0000000  )
         9           C   tau(   9) = (  0.0000000  0.6000000  0.0000000  )
        10           C   tau(  10) = (  0.0666667  0.7333333  0.0000000  )
        11           C   tau(  11) = (  0.0000000  0.8000000  0.0000000  )
        12           C   tau(  12) = (  0.0666667  0.9333333  0.0000000  )
        13           C   tau(  13) = (  0.2000000  0.0000000  0.0000000  )
        14           C   tau(  14) = (  0.2666667  0.1333333  0.0000000  )
        15           C   tau(  15) = (  0.2000000  0.2000000  0.0000000  )
        16           C   tau(  16) = (  0.2666667  0.3333333  0.0000000  )
        17           C   tau(  17) = (  0.2000000  0.4000000  0.0000000  )
        18           C   tau(  18) = (  0.2666667  0.5333333  0.0000000  )
        19           C   tau(  19) = (  0.2000000  0.6000000  0.0000000  )
        20           C   tau(  20) = (  0.2666667  0.7333333  0.0000000  )
        21           C   tau(  21) = (  0.2000000  0.8000000  0.0000000  )
        22           C   tau(  22) = (  0.2666667  0.9333333  0.0000000  )
        23           C   tau(  23) = (  0.4000000  0.0000000  0.0000000  )
        24           C   tau(  24) = (  0.4666667  0.1333333  0.0000000  )
        25           C   tau(  25) = (  0.4000000  0.2000000  0.0000000  )
        26           C   tau(  26) = (  0.4666667  0.3333333  0.0000000  )
        27           C   tau(  27) = (  0.4000000  0.4000000  0.0000000  )
        28           Ni  tau(  28) = (  0.4666667  0.5333333  0.0000000  )
        29           C   tau(  29) = (  0.4000000  0.6000000  0.0000000  )
        30           C   tau(  30) = (  0.4666667  0.7333333  0.0000000  )
        31           C   tau(  31) = (  0.4000000  0.8000000  0.0000000  )
        32           C   tau(  32) = (  0.4666667  0.9333333  0.0000000  )
        33           C   tau(  33) = (  0.6000000  0.0000000  0.0000000  )
        34           C   tau(  34) = (  0.6666667  0.1333333  0.0000000  )
        35           C   tau(  35) = (  0.6000000  0.2000000  0.0000000  )
        36           C   tau(  36) = (  0.6666667  0.3333333  0.0000000  )
        37           C   tau(  37) = (  0.6000000  0.4000000  0.0000000  )
        38           C   tau(  38) = (  0.6666667  0.5333333  0.0000000  )
        39           C   tau(  39) = (  0.6000000  0.6000000  0.0000000  )
        40           C   tau(  40) = (  0.6666667  0.7333333  0.0000000  )
        41           C   tau(  41) = (  0.6000000  0.8000000  0.0000000  )
        42           C   tau(  42) = (  0.6666667  0.9333333  0.0000000  )
        43           C   tau(  43) = (  0.8000000  0.0000000  0.0000000  )
        44           C   tau(  44) = (  0.8666667  0.1333333  0.0000000  )
        45           C   tau(  45) = (  0.8000000  0.2000000  0.0000000  )
        46           C   tau(  46) = (  0.8666667  0.3333333  0.0000000  )
        47           C   tau(  47) = (  0.8000000  0.4000000  0.0000000  )
        48           C   tau(  48) = (  0.8666667  0.5333333  0.0000000  )
        49           C   tau(  49) = (  0.8000000  0.6000000  0.0000000  )
        50           C   tau(  50) = (  0.8666667  0.7333333  0.0000000  )
        51           C   tau(  51) = (  0.8000000  0.8000000  0.0000000  )
        52           C   tau(  52) = (  0.8666667  0.9333333  0.0000000  )

     number of k points=     1  Marzari-Vanderbilt smearing, width (Ry)=  0.0010
                       cart. coord. in units 2pi/alat
        k(    1) = (   0.0000000   0.0000000   0.0000000), wk =   1.0000000

                       cryst. coord.
        k(    1) = (   0.0000000   0.0000000   0.0000000), wk =   1.0000000

     Dense  grid:  1626001 G-vectors     FFT dimensions: ( 180, 180, 135)

     Smooth grid:   702581 G-vectors     FFT dimensions: ( 125, 125, 108)

     Dynamical RAM for                 wfc:      29.03 MB

     Dynamical RAM for     wfc (w. buffer):      87.10 MB

     Dynamical RAM for           str. fact:      12.41 MB

     Dynamical RAM for           local pot:       0.00 MB

     Dynamical RAM for          nlocal pot:      92.46 MB

     Dynamical RAM for                qrad:      19.73 MB

     Dynamical RAM for          rho,v,vnew:      58.92 MB

     Dynamical RAM for               rhoin:      19.64 MB

     Dynamical RAM for            rho*nmix:     132.32 MB

     Dynamical RAM for           G-vectors:      16.40 MB

     Dynamical RAM for          h,s,v(r/c):      12.38 MB

     Dynamical RAM for          <psi|beta>:       0.82 MB

     Dynamical RAM for                 psi:     116.14 MB

     Dynamical RAM for                hpsi:     116.14 MB

     Dynamical RAM for                spsi:     116.14 MB

     Dynamical RAM for      wfcinit/wfcrot:      93.90 MB

     Dynamical RAM for           addusdens:     975.89 MB

     Estimated static dynamical RAM per process >     489.64 MB

     Estimated max dynamical RAM per process >       1.43 GB

     Estimated total dynamical RAM >       8.59 GB
     Generating pointlists ...
     new r_m :   0.0252 (alat units)  0.5862 (a.u.) for type    1
     new r_m :   0.0476 (alat units)  1.1095 (a.u.) for type    2
     new r_m :   0.0476 (alat units)  1.1095 (a.u.) for type    3

     Check: negative core charge=   -0.000002

     Initial potential from superposition of free atoms

     starting charge  215.80530, renormalised to  216.00000

     negative rho (up, down):  1.347E-04 1.281E-02


---------------------------------------------------------------------------------
Carrying out rVV10 run using the following parameters:
Nqs =      20    Nr_points =    1024   r_max =   100.000
b_value =  6.30000    beta =  0.00901
     q_mesh =  0.00010000  0.00030000  0.00058939  0.00100810
               0.00161396  0.00249058  0.00375900  0.00559430
               0.00824984  0.01209221  0.01765183  0.02569619
               0.03733578  0.05417739  0.07854596  0.11380545
               0.16482331  0.23864234  0.34545298  0.50000000

Gradients computed in Reciprocal space

---------------------------------------------------------------------------------


     Starting wfcs are  208 randomized atomic wfcs

     total cpu time spent up to now is       75.2 secs

     Self-consistent Calculation

     iteration #  1     ecut=    70.00 Ry     beta= 0.70
     Davidson diagonalization with overlap
     ethr =  1.00E-02,  avg # of iterations =  4.5

     negative rho (up, down):  2.326E-04 1.138E-02

     total cpu time spent up to now is      209.6 secs

     total energy              =    -946.55344793 Ry
     Harris-Foulkes estimate   =    -949.78069375 Ry
     estimated scf accuracy    <      14.37834753 Ry

     total magnetization       =     6.00 Bohr mag/cell
     absolute magnetization    =     6.78 Bohr mag/cell

     iteration #  2     ecut=    70.00 Ry     beta= 0.70
     Davidson diagonalization with overlap
     ethr =  6.66E-03,  avg # of iterations =  4.0

     negative rho (up, down):  4.447E-04 3.853E-02

     total cpu time spent up to now is      332.4 secs

     total energy              =    -945.85473823 Ry
     Harris-Foulkes estimate   =    -957.78652874 Ry
     estimated scf accuracy    <      33.10325893 Ry

     total magnetization       =     4.00 Bohr mag/cell
     absolute magnetization    =     4.46 Bohr mag/cell

     iteration #  3     ecut=    70.00 Ry     beta= 0.70
     Davidson diagonalization with overlap
     ethr =  6.66E-03,  avg # of iterations =  5.0

     negative rho (up, down):  5.531E-04 1.155E-01

     total cpu time spent up to now is      437.9 secs

     total energy              =    -948.34056645 Ry
     Harris-Foulkes estimate   =    -952.81557154 Ry
     estimated scf accuracy    <      15.91605853 Ry

     total magnetization       =     4.00 Bohr mag/cell
     absolute magnetization    =     5.46 Bohr mag/cell

     iteration #  4     ecut=    70.00 Ry     beta= 0.70
     Davidson diagonalization with overlap
     ethr =  6.66E-03,  avg # of iterations =  3.0

     negative rho (up, down):  1.072E-01 4.556E-01

     total cpu time spent up to now is      554.3 secs

     total energy              =    -953.85986061 Ry
     Harris-Foulkes estimate   =    -955.39651178 Ry
     estimated scf accuracy    <     173.52360346 Ry

     total magnetization       =     4.00 Bohr mag/cell
     absolute magnetization    =    21.57 Bohr mag/cell

     iteration #  5     ecut=    70.00 Ry     beta= 0.70
     Davidson diagonalization with overlap
     ethr =  6.66E-03,  avg # of iterations =  1.5

     negative rho (up, down):  1.207E-01 4.586E-01

     total cpu time spent up to now is      649.2 secs

     total energy              =    -949.37961346 Ry
     Harris-Foulkes estimate   =    -954.07326920 Ry
     estimated scf accuracy    <     101.96653884 Ry

     total magnetization       =     3.34 Bohr mag/cell
     absolute magnetization    =    16.44 Bohr mag/cell

     iteration #  6     ecut=    70.00 Ry     beta= 0.70
     Davidson diagonalization with overlap
     ethr =  6.66E-03,  avg # of iterations =  2.0

     negative rho (up, down):  5.415E-02 4.098E-01

     total cpu time spent up to now is      754.2 secs

     total energy              =    -951.51202042 Ry
     Harris-Foulkes estimate   =    -952.74566317 Ry
     estimated scf accuracy    <      74.11378094 Ry

     total magnetization       =    -0.00 Bohr mag/cell
     absolute magnetization    =    12.90 Bohr mag/cell

     iteration #  7     ecut=    70.00 Ry     beta= 0.70
     Davidson diagonalization with overlap
     ethr =  6.66E-03,  avg # of iterations =  2.0

     negative rho (up, down):  5.754E-02 3.383E-01

     total cpu time spent up to now is      850.6 secs

     total energy              =    -951.59530635 Ry
     Harris-Foulkes estimate   =    -951.94465189 Ry
     estimated scf accuracy    <      14.51813290 Ry

     total magnetization       =    -0.00 Bohr mag/cell
     absolute magnetization    =     5.57 Bohr mag/cell

     iteration #  8     ecut=    70.00 Ry     beta= 0.70
     Davidson diagonalization with overlap
     ethr =  6.66E-03,  avg # of iterations =  2.0

     negative rho (up, down):  3.546E-02 2.728E-01

     total cpu time spent up to now is      946.9 secs

     total energy              =    -951.73871439 Ry
     Harris-Foulkes estimate   =    -951.90164711 Ry
     estimated scf accuracy    <       5.83413852 Ry

     total magnetization       =     0.00 Bohr mag/cell
     absolute magnetization    =     2.79 Bohr mag/cell

     iteration #  9     ecut=    70.00 Ry     beta= 0.70
     Davidson diagonalization with overlap
     ethr =  2.70E-03,  avg # of iterations =  2.0

     negative rho (up, down):  2.614E-02 2.418E-01

     total cpu time spent up to now is     1042.2 secs

     total energy              =    -952.03557595 Ry
     Harris-Foulkes estimate   =    -951.91347908 Ry
     estimated scf accuracy    <       2.81182130 Ry

     total magnetization       =     0.00 Bohr mag/cell
     absolute magnetization    =     2.60 Bohr mag/cell

     iteration # 10     ecut=    70.00 Ry     beta= 0.70
     Davidson diagonalization with overlap
     ethr =  1.30E-03,  avg # of iterations =  2.0

     negative rho (up, down):  1.897E-02 3.645E-01

     total cpu time spent up to now is     1141.7 secs

     total energy              =    -951.56930524 Ry
     Harris-Foulkes estimate   =    -952.21426767 Ry
     estimated scf accuracy    <      21.23188890 Ry

     total magnetization       =     0.00 Bohr mag/cell
     absolute magnetization    =     7.14 Bohr mag/cell

     iteration # 11     ecut=    70.00 Ry     beta= 0.70
     Davidson diagonalization with overlap
     ethr =  1.30E-03,  avg # of iterations =  2.5

     negative rho (up, down):  3.399E-02 2.312E-01

     total cpu time spent up to now is     1242.3 secs

     total energy              =    -951.80942594 Ry
     Harris-Foulkes estimate   =    -951.85542472 Ry
     estimated scf accuracy    <       2.09359979 Ry

     total magnetization       =     0.00 Bohr mag/cell
     absolute magnetization    =     1.31 Bohr mag/cell

     iteration # 12     ecut=    70.00 Ry     beta= 0.70
     Davidson diagonalization with overlap
     ethr =  9.69E-04,  avg # of iterations =  2.0

     negative rho (up, down):  1.038E-02 1.912E-01

     total cpu time spent up to now is     1338.0 secs

     total energy              =    -951.86180006 Ry
     Harris-Foulkes estimate   =    -951.87004321 Ry
     estimated scf accuracy    <       0.31237362 Ry

     total magnetization       =    -0.00 Bohr mag/cell
     absolute magnetization    =     0.75 Bohr mag/cell

     iteration # 13     ecut=    70.00 Ry     beta= 0.70
     Davidson diagonalization with overlap
     ethr =  1.45E-04,  avg # of iterations =  9.0

     negative rho (up, down):  5.011E-03 1.610E-01

     total cpu time spent up to now is     1441.9 secs

     total energy              =    -951.87384244 Ry
     Harris-Foulkes estimate   =    -951.89136807 Ry
     estimated scf accuracy    <       0.19875293 Ry

     total magnetization       =     0.00 Bohr mag/cell
     absolute magnetization    =     0.45 Bohr mag/cell

     iteration # 14     ecut=    70.00 Ry     beta= 0.70
     Davidson diagonalization with overlap
     ethr =  9.20E-05,  avg # of iterations =  2.5

     negative rho (up, down):  1.077E-02 9.014E-02

     total cpu time spent up to now is     1544.1 secs

     total energy              =    -951.87023584 Ry
     Harris-Foulkes estimate   =    -951.89612834 Ry
     estimated scf accuracy    <       0.45897621 Ry

     total magnetization       =     0.00 Bohr mag/cell
     absolute magnetization    =     0.43 Bohr mag/cell

     iteration # 15     ecut=    70.00 Ry     beta= 0.70
     Davidson diagonalization with overlap
     ethr =  9.20E-05,  avg # of iterations =  2.5

     negative rho (up, down):  3.163E-03 7.960E-02

     total cpu time spent up to now is     1642.8 secs

     total energy              =    -951.88967807 Ry
     Harris-Foulkes estimate   =    -951.88348658 Ry
     estimated scf accuracy    <       0.03129096 Ry

     total magnetization       =    -0.00 Bohr mag/cell
     absolute magnetization    =     0.31 Bohr mag/cell

     iteration # 16     ecut=    70.00 Ry     beta= 0.70
     Davidson diagonalization with overlap
     ethr =  1.45E-05,  avg # of iterations = 12.0

     negative rho (up, down):  4.770E-03 3.453E-01

     total cpu time spent up to now is     1766.8 secs

     total energy              =    -951.82854598 Ry
     Harris-Foulkes estimate   =    -951.92738902 Ry
     estimated scf accuracy    <       2.99041813 Ry

     total magnetization       =     0.00 Bohr mag/cell
     absolute magnetization    =     2.58 Bohr mag/cell

     iteration # 17     ecut=    70.00 Ry     beta= 0.70
     Davidson diagonalization with overlap
     ethr =  1.45E-05,  avg # of iterations =  4.0

     negative rho (up, down):  2.148E-03 2.697E-01

     total cpu time spent up to now is     1885.5 secs

     total energy              =    -951.87969188 Ry
     Harris-Foulkes estimate   =    -951.88021973 Ry
     estimated scf accuracy    <       0.43417112 Ry

     total magnetization       =    -0.00 Bohr mag/cell
     absolute magnetization    =     1.00 Bohr mag/cell

     iteration # 18     ecut=    70.00 Ry     beta= 0.70
     Davidson diagonalization with overlap
     ethr =  1.45E-05,  avg # of iterations =  3.5

     negative rho (up, down):  1.419E-03 2.245E-01

     total cpu time spent up to now is     1990.9 secs

     total energy              =    -951.88245380 Ry
     Harris-Foulkes estimate   =    -951.88347971 Ry
     estimated scf accuracy    <       0.05803382 Ry

     total magnetization       =     0.00 Bohr mag/cell
     absolute magnetization    =     0.41 Bohr mag/cell

     iteration # 19     ecut=    70.00 Ry     beta= 0.70
     Davidson diagonalization with overlap
     ethr =  1.45E-05,  avg # of iterations =  2.0

     negative rho (up, down):  2.665E-03 1.331E-01

     total cpu time spent up to now is     2088.1 secs

     total energy              =    -951.88417476 Ry
     Harris-Foulkes estimate   =    -951.88440462 Ry
     estimated scf accuracy    <       0.02943348 Ry

     total magnetization       =     0.00 Bohr mag/cell
     absolute magnetization    =     0.23 Bohr mag/cell

     iteration # 20     ecut=    70.00 Ry     beta= 0.70
     Davidson diagonalization with overlap
     ethr =  1.36E-05,  avg # of iterations =  2.5

     negative rho (up, down):  1.174E-03 9.182E-02

     total cpu time spent up to now is     2185.1 secs

     total energy              =    -951.88590412 Ry
     Harris-Foulkes estimate   =    -951.88500743 Ry
     estimated scf accuracy    <       0.00218510 Ry

     total magnetization       =     0.00 Bohr mag/cell
     absolute magnetization    =     0.10 Bohr mag/cell

     iteration # 21     ecut=    70.00 Ry     beta= 0.70
     Davidson diagonalization with overlap
     ethr =  1.01E-06,  avg # of iterations =  4.0

     negative rho (up, down):  1.349E-03 2.047E-01

     total cpu time spent up to now is     2299.8 secs

     total energy              =    -951.88321091 Ry
     Harris-Foulkes estimate   =    -951.88781299 Ry
     estimated scf accuracy    <       0.12751116 Ry

     total magnetization       =    -0.00 Bohr mag/cell
     absolute magnetization    =     0.57 Bohr mag/cell

     iteration # 22     ecut=    70.00 Ry     beta= 0.70
     Davidson diagonalization with overlap
     ethr =  1.01E-06,  avg # of iterations =  5.0

     negative rho (up, down):  1.829E-03 1.239E-01

     total cpu time spent up to now is     2414.1 secs

     total energy              =    -951.88508405 Ry
     Harris-Foulkes estimate   =    -951.88474194 Ry
     estimated scf accuracy    <       0.01217604 Ry

     total magnetization       =    -0.00 Bohr mag/cell
     absolute magnetization    =     0.14 Bohr mag/cell

     iteration # 23     ecut=    70.00 Ry     beta= 0.70
     Davidson diagonalization with overlap
     ethr =  1.01E-06,  avg # of iterations =  3.0

     negative rho (up, down):  1.039E-03 6.383E-02

     total cpu time spent up to now is     2518.7 secs

     total energy              =    -951.88593751 Ry
     Harris-Foulkes estimate   =    -951.88537735 Ry
     estimated scf accuracy    <       0.00052135 Ry

     total magnetization       =     0.00 Bohr mag/cell
     absolute magnetization    =     0.05 Bohr mag/cell

     iteration # 24     ecut=    70.00 Ry     beta= 0.70
     Davidson diagonalization with overlap
     ethr =  2.41E-07,  avg # of iterations =  3.5

     negative rho (up, down):  1.084E-03 3.855E-02

     total cpu time spent up to now is     2623.7 secs

     total energy              =    -951.88601395 Ry
     Harris-Foulkes estimate   =    -951.88604213 Ry
     estimated scf accuracy    <       0.00160604 Ry

     total magnetization       =    -0.00 Bohr mag/cell
     absolute magnetization    =     0.06 Bohr mag/cell

     iteration # 25     ecut=    70.00 Ry     beta= 0.70
     Davidson diagonalization with overlap
     ethr =  2.41E-07,  avg # of iterations =  2.0

     negative rho (up, down):  1.057E-03 1.572E-02

     total cpu time spent up to now is     2723.9 secs

     total energy              =    -951.88605762 Ry
     Harris-Foulkes estimate   =    -951.88608124 Ry
     estimated scf accuracy    <       0.00081551 Ry

     total magnetization       =    -0.00 Bohr mag/cell
     absolute magnetization    =     0.04 Bohr mag/cell

     iteration # 26     ecut=    70.00 Ry     beta= 0.70
     Davidson diagonalization with overlap
     ethr =  2.41E-07,  avg # of iterations =  3.0

     negative rho (up, down):  1.034E-03 7.615E-02

     total cpu time spent up to now is     2824.8 secs

     total energy              =    -951.88598953 Ry
     Harris-Foulkes estimate   =    -951.88612935 Ry
     estimated scf accuracy    <       0.00314119 Ry

     total magnetization       =     0.00 Bohr mag/cell
     absolute magnetization    =     0.10 Bohr mag/cell

     iteration # 27     ecut=    70.00 Ry     beta= 0.70
     Davidson diagonalization with overlap
     ethr =  2.41E-07,  avg # of iterations =  3.0

     negative rho (up, down):  1.038E-03 6.070E-02

     total cpu time spent up to now is     2924.6 secs

     total energy              =    -951.88613034 Ry
     Harris-Foulkes estimate   =    -951.88602092 Ry
     estimated scf accuracy    <       0.00138456 Ry

     total magnetization       =     0.00 Bohr mag/cell
     absolute magnetization    =     0.07 Bohr mag/cell

     iteration # 28     ecut=    70.00 Ry     beta= 0.70
     Davidson diagonalization with overlap
     ethr =  2.41E-07,  avg # of iterations =  2.0

     negative rho (up, down):  1.110E-03 1.099E-01

     total cpu time spent up to now is     3024.3 secs

     total energy              =    -951.88569536 Ry
     Harris-Foulkes estimate   =    -951.88619437 Ry
     estimated scf accuracy    <       0.00902351 Ry

     total magnetization       =    -0.00 Bohr mag/cell
     absolute magnetization    =     0.16 Bohr mag/cell

     iteration # 29     ecut=    70.00 Ry     beta= 0.70
     Davidson diagonalization with overlap
     ethr =  2.41E-07,  avg # of iterations =  2.5

     negative rho (up, down):  1.026E-03 5.641E-02

     total cpu time spent up to now is     3127.5 secs

     total energy              =    -951.88603909 Ry
     Harris-Foulkes estimate   =    -951.88582851 Ry
     estimated scf accuracy    <       0.00031829 Ry

     total magnetization       =     0.00 Bohr mag/cell
     absolute magnetization    =     0.04 Bohr mag/cell

     iteration # 30     ecut=    70.00 Ry     beta= 0.70
     Davidson diagonalization with overlap
     ethr =  1.47E-07,  avg # of iterations =  2.0

     negative rho (up, down):  1.032E-03 2.839E-02

     total cpu time spent up to now is     3223.8 secs

     total energy              =    -951.88608922 Ry
     Harris-Foulkes estimate   =    -951.88605926 Ry
     estimated scf accuracy    <       0.00017872 Ry

     total magnetization       =    -0.00 Bohr mag/cell
     absolute magnetization    =     0.03 Bohr mag/cell

     iteration # 31     ecut=    70.00 Ry     beta= 0.70
     Davidson diagonalization with overlap
     ethr =  8.27E-08,  avg # of iterations =  2.0

     negative rho (up, down):  1.022E-03 2.121E-02

     total cpu time spent up to now is     3323.9 secs

     total energy              =    -951.88611821 Ry
     Harris-Foulkes estimate   =    -951.88610738 Ry
     estimated scf accuracy    <       0.00043482 Ry

     total magnetization       =    -0.00 Bohr mag/cell
     absolute magnetization    =     0.04 Bohr mag/cell

     iteration # 32     ecut=    70.00 Ry     beta= 0.70
     Davidson diagonalization with overlap
     ethr =  8.27E-08,  avg # of iterations =  1.0

     negative rho (up, down):  1.031E-03 3.024E-02

     total cpu time spent up to now is     3417.9 secs

     total energy              =    -951.88610618 Ry
     Harris-Foulkes estimate   =    -951.88611882 Ry
     estimated scf accuracy    <       0.00047711 Ry

     total magnetization       =     0.00 Bohr mag/cell
     absolute magnetization    =     0.04 Bohr mag/cell

     iteration # 33     ecut=    70.00 Ry     beta= 0.70
     Davidson diagonalization with overlap
     ethr =  8.27E-08,  avg # of iterations =  1.0

     negative rho (up, down):  1.036E-03 3.342E-02

     total cpu time spent up to now is     3511.8 secs

     total energy              =    -951.88610043 Ry
     Harris-Foulkes estimate   =    -951.88610663 Ry
     estimated scf accuracy    <       0.00050676 Ry

     total magnetization       =    -0.00 Bohr mag/cell
     absolute magnetization    =     0.04 Bohr mag/cell

     iteration # 34     ecut=    70.00 Ry     beta= 0.70
     Davidson diagonalization with overlap
     ethr =  8.27E-08,  avg # of iterations =  2.0

     negative rho (up, down):  1.039E-03 3.446E-02

     total cpu time spent up to now is     3606.6 secs

     total energy              =    -951.88610047 Ry
     Harris-Foulkes estimate   =    -951.88610548 Ry
     estimated scf accuracy    <       0.00058526 Ry

     total magnetization       =     0.00 Bohr mag/cell
     absolute magnetization    =     0.04 Bohr mag/cell

     iteration # 35     ecut=    70.00 Ry     beta= 0.70
     Davidson diagonalization with overlap
     ethr =  8.27E-08,  avg # of iterations =  2.0

     negative rho (up, down):  1.044E-03 3.665E-02

     total cpu time spent up to now is     3704.3 secs

     total energy              =    -951.88614160 Ry
     Harris-Foulkes estimate   =    -951.88610977 Ry
     estimated scf accuracy    <       0.00080484 Ry

     total magnetization       =    -0.00 Bohr mag/cell
     absolute magnetization    =     0.04 Bohr mag/cell

     iteration # 36     ecut=    70.00 Ry     beta= 0.70
     Davidson diagonalization with overlap
     ethr =  8.27E-08,  avg # of iterations =  3.0

     negative rho (up, down):  1.154E-03 1.467E-01

     total cpu time spent up to now is     3813.4 secs

     total energy              =    -951.88526212 Ry
     Harris-Foulkes estimate   =    -951.88642406 Ry
     estimated scf accuracy    <       0.02291381 Ry

     total magnetization       =     0.00 Bohr mag/cell
     absolute magnetization    =     0.23 Bohr mag/cell

     iteration # 37     ecut=    70.00 Ry     beta= 0.70
     Davidson diagonalization with overlap
     ethr =  8.27E-08,  avg # of iterations =  3.5

     negative rho (up, down):  1.072E-03 6.736E-02

     total cpu time spent up to now is     3930.3 secs

     total energy              =    -951.88601431 Ry
     Harris-Foulkes estimate   =    -951.88558427 Ry
     estimated scf accuracy    <       0.00068722 Ry

     total magnetization       =    -0.00 Bohr mag/cell
     absolute magnetization    =     0.04 Bohr mag/cell

     iteration # 38     ecut=    70.00 Ry     beta= 0.70
     Davidson diagonalization with overlap
     ethr =  8.27E-08,  avg # of iterations =  2.5

     negative rho (up, down):  1.053E-03 5.530E-02

     total cpu time spent up to now is     4032.7 secs

     total energy              =    -951.88607303 Ry
     Harris-Foulkes estimate   =    -951.88603276 Ry
     estimated scf accuracy    <       0.00159584 Ry

     total magnetization       =    -0.00 Bohr mag/cell
     absolute magnetization    =     0.06 Bohr mag/cell

     iteration # 39     ecut=    70.00 Ry     beta= 0.70
     Davidson diagonalization with overlap
     ethr =  8.27E-08,  avg # of iterations =  3.0

     negative rho (up, down):  1.303E-03 8.578E-02

     total cpu time spent up to now is     4139.9 secs

     total energy              =    -951.88597452 Ry
     Harris-Foulkes estimate   =    -951.88618698 Ry
     estimated scf accuracy    <       0.00783298 Ry

     total magnetization       =    -0.00 Bohr mag/cell
     absolute magnetization    =     0.12 Bohr mag/cell

     iteration # 40     ecut=    70.00 Ry     beta= 0.70
     Davidson diagonalization with overlap
     ethr =  8.27E-08,  avg # of iterations =  2.0

     negative rho (up, down):  1.276E-03 1.042E-01

     total cpu time spent up to now is     4237.0 secs

     total energy              =    -951.88591991 Ry
     Harris-Foulkes estimate   =    -951.88599016 Ry
     estimated scf accuracy    <       0.00787740 Ry

     total magnetization       =    -0.00 Bohr mag/cell
     absolute magnetization    =     0.13 Bohr mag/cell

     iteration # 41     ecut=    70.00 Ry     beta= 0.70
     Davidson diagonalization with overlap
     ethr =  8.27E-08,  avg # of iterations =  1.0

     negative rho (up, down):  1.241E-03 1.090E-01

     total cpu time spent up to now is     4330.9 secs

     total energy              =    -951.88581169 Ry
     Harris-Foulkes estimate   =    -951.88592073 Ry
     estimated scf accuracy    <       0.00743840 Ry

     total magnetization       =     0.00 Bohr mag/cell
     absolute magnetization    =     0.13 Bohr mag/cell

     iteration # 42     ecut=    70.00 Ry     beta= 0.70
     Davidson diagonalization with overlap
     ethr =  8.27E-08,  avg # of iterations =  2.5

     negative rho (up, down):  1.259E-03 9.204E-02

     total cpu time spent up to now is     4434.5 secs

     total energy              =    -951.88581379 Ry
     Harris-Foulkes estimate   =    -951.88587077 Ry
     estimated scf accuracy    <       0.00531239 Ry

     total magnetization       =     0.00 Bohr mag/cell
     absolute magnetization    =     0.09 Bohr mag/cell

     iteration # 43     ecut=    70.00 Ry     beta= 0.70
     Davidson diagonalization with overlap
     ethr =  8.27E-08,  avg # of iterations =  3.0

     negative rho (up, down):  1.097E-03 7.854E-02

     total cpu time spent up to now is     4540.5 secs

     total energy              =    -951.88591336 Ry
     Harris-Foulkes estimate   =    -951.88590058 Ry
     estimated scf accuracy    <       0.00271960 Ry

     total magnetization       =     0.00 Bohr mag/cell
     absolute magnetization    =     0.07 Bohr mag/cell

     iteration # 44     ecut=    70.00 Ry     beta= 0.70
     Davidson diagonalization with overlap
     ethr =  8.27E-08,  avg # of iterations =  3.0

     negative rho (up, down):  1.078E-03 5.585E-02

     total cpu time spent up to now is     4646.7 secs

     total energy              =    -951.88601470 Ry
     Harris-Foulkes estimate   =    -951.88599609 Ry
     estimated scf accuracy    <       0.00153812 Ry

     total magnetization       =     0.00 Bohr mag/cell
     absolute magnetization    =     0.04 Bohr mag/cell

     iteration # 45     ecut=    70.00 Ry     beta= 0.70
     Davidson diagonalization with overlap
     ethr =  8.27E-08,  avg # of iterations =  3.0

     negative rho (up, down):  1.045E-03 3.777E-02

     total cpu time spent up to now is     4750.8 secs

     total energy              =    -951.88606177 Ry
     Harris-Foulkes estimate   =    -951.88607669 Ry
     estimated scf accuracy    <       0.00116754 Ry

     total magnetization       =     0.00 Bohr mag/cell
     absolute magnetization    =     0.03 Bohr mag/cell

     iteration # 46     ecut=    70.00 Ry     beta= 0.70
     Davidson diagonalization with overlap
     ethr =  8.27E-08,  avg # of iterations =  2.5

     negative rho (up, down):  1.032E-03 5.332E-02

     total cpu time spent up to now is     4852.7 secs

     total energy              =    -951.88608804 Ry
     Harris-Foulkes estimate   =    -951.88610620 Ry
     estimated scf accuracy    <       0.00154280 Ry

     total magnetization       =    -0.00 Bohr mag/cell
     absolute magnetization    =     0.06 Bohr mag/cell

     iteration # 47     ecut=    70.00 Ry     beta= 0.70
     Davidson diagonalization with overlap
     ethr =  8.27E-08,  avg # of iterations =  3.0

     negative rho (up, down):  1.030E-03 1.120E-01

     total cpu time spent up to now is     4965.3 secs

     total energy              =    -951.88590811 Ry
     Harris-Foulkes estimate   =    -951.88624212 Ry
     estimated scf accuracy    <       0.00924618 Ry

     total magnetization       =     0.00 Bohr mag/cell
     absolute magnetization    =     0.14 Bohr mag/cell

     iteration # 48     ecut=    70.00 Ry     beta= 0.70
     Davidson diagonalization with overlap
     ethr =  8.27E-08,  avg # of iterations =  3.0

     negative rho (up, down):  1.038E-03 1.000E-01

     total cpu time spent up to now is     5070.4 secs

     total energy              =    -951.88600079 Ry
     Harris-Foulkes estimate   =    -951.88594459 Ry
     estimated scf accuracy    <       0.00351524 Ry

     total magnetization       =     0.00 Bohr mag/cell
     absolute magnetization    =     0.09 Bohr mag/cell

     iteration # 49     ecut=    70.00 Ry     beta= 0.70
     Davidson diagonalization with overlap
     ethr =  8.27E-08,  avg # of iterations =  3.0

     negative rho (up, down):  2.335E-03 1.251E-01

     total cpu time spent up to now is     5190.5 secs

     total energy              =    -951.88584093 Ry
     Harris-Foulkes estimate   =    -951.88664570 Ry
     estimated scf accuracy    <       0.04323553 Ry

     total magnetization       =    -0.00 Bohr mag/cell
     absolute magnetization    =     0.27 Bohr mag/cell

     iteration # 50     ecut=    70.00 Ry     beta= 0.70
     Davidson diagonalization with overlap
     ethr =  8.27E-08,  avg # of iterations =  3.0

     negative rho (up, down):  2.813E-03 1.341E-01

     total cpu time spent up to now is     5291.4 secs

     total energy              =    -951.88560497 Ry
     Harris-Foulkes estimate   =    -951.88585454 Ry
     estimated scf accuracy    <       0.04001977 Ry

     total magnetization       =     0.00 Bohr mag/cell
     absolute magnetization    =     0.26 Bohr mag/cell

     iteration # 51     ecut=    70.00 Ry     beta= 0.70
     Davidson diagonalization with overlap
     ethr =  8.27E-08,  avg # of iterations =  2.0

     negative rho (up, down):  2.975E-03 1.364E-01

     total cpu time spent up to now is     5386.0 secs

     total energy              =    -951.88548888 Ry
     Harris-Foulkes estimate   =    -951.88561152 Ry
     estimated scf accuracy    <       0.04031233 Ry

     total magnetization       =     0.00 Bohr mag/cell
     absolute magnetization    =     0.26 Bohr mag/cell

     iteration # 52     ecut=    70.00 Ry     beta= 0.70
     Davidson diagonalization with overlap
     ethr =  8.27E-08,  avg # of iterations =  3.0

     negative rho (up, down):  3.056E-03 1.378E-01

     total cpu time spent up to now is     5490.9 secs

     total energy              =    -951.88555417 Ry
     Harris-Foulkes estimate   =    -951.88556244 Ry
     estimated scf accuracy    <       0.04159742 Ry

     total magnetization       =     0.00 Bohr mag/cell
     absolute magnetization    =     0.27 Bohr mag/cell

     iteration # 53     ecut=    70.00 Ry     beta= 0.70
     Davidson diagonalization with overlap
     ethr =  8.27E-08,  avg # of iterations =  3.0

     negative rho (up, down):  2.878E-03 1.507E-01

     total cpu time spent up to now is     5598.1 secs

     total energy              =    -951.88555977 Ry
     Harris-Foulkes estimate   =    -951.88564778 Ry
     estimated scf accuracy    <       0.04576987 Ry

     total magnetization       =     0.00 Bohr mag/cell
     absolute magnetization    =     0.29 Bohr mag/cell

     iteration # 54     ecut=    70.00 Ry     beta= 0.70
     Davidson diagonalization with overlap
     ethr =  8.27E-08,  avg # of iterations =  2.5

     negative rho (up, down):  2.809E-03 1.485E-01

     total cpu time spent up to now is     5697.9 secs

     total energy              =    -951.88542775 Ry
     Harris-Foulkes estimate   =    -951.88557128 Ry
     estimated scf accuracy    <       0.04022073 Ry

     total magnetization       =     0.00 Bohr mag/cell
     absolute magnetization    =     0.27 Bohr mag/cell

     iteration # 55     ecut=    70.00 Ry     beta= 0.70
     Davidson diagonalization with overlap
     ethr =  8.27E-08,  avg # of iterations =  3.0

     negative rho (up, down):  3.083E-03 1.345E-01

     total cpu time spent up to now is     5805.1 secs

     total energy              =    -951.88576408 Ry
     Harris-Foulkes estimate   =    -951.88554920 Ry
     estimated scf accuracy    <       0.04001300 Ry

     total magnetization       =    -0.00 Bohr mag/cell
     absolute magnetization    =     0.26 Bohr mag/cell

     iteration # 56     ecut=    70.00 Ry     beta= 0.70
     Davidson diagonalization with overlap
     ethr =  8.27E-08,  avg # of iterations =  3.0

     negative rho (up, down):  3.335E-03 1.518E-01

     total cpu time spent up to now is     5942.0 secs

     total energy              =    -951.88623329 Ry
     Harris-Foulkes estimate   =    -951.88626163 Ry
     estimated scf accuracy    <       0.07006327 Ry

     total magnetization       =    -0.00 Bohr mag/cell
     absolute magnetization    =     0.36 Bohr mag/cell

     iteration # 57     ecut=    70.00 Ry     beta= 0.70
     Davidson diagonalization with overlap
     ethr =  8.27E-08,  avg # of iterations =  4.0

     negative rho (up, down):  2.354E-03 2.325E-01

     total cpu time spent up to now is     6089.4 secs

     total energy              =    -951.88508521 Ry
     Harris-Foulkes estimate   =    -951.89001904 Ry
     estimated scf accuracy    <       0.30700916 Ry

     total magnetization       =    -0.00 Bohr mag/cell
     absolute magnetization    =     0.83 Bohr mag/cell

     iteration # 58     ecut=    70.00 Ry     beta= 0.70
     Davidson diagonalization with overlap
     ethr =  8.27E-08,  avg # of iterations =  5.0

     negative rho (up, down):  3.312E-03 2.776E-01

     total cpu time spent up to now is     6287.3 secs

     total energy              =    -951.90896570 Ry
     Harris-Foulkes estimate   =    -951.90615225 Ry
     estimated scf accuracy    <       0.97490395 Ry

     total magnetization       =    -0.00 Bohr mag/cell
     absolute magnetization    =     1.46 Bohr mag/cell

     iteration # 59     ecut=    70.00 Ry     beta= 0.70
     Davidson diagonalization with overlap
     ethr =  8.27E-08,  avg # of iterations =  4.5

     negative rho (up, down):  1.882E-02 2.275E-01

     total cpu time spent up to now is     6475.8 secs

     total energy              =    -951.87338297 Ry
     Harris-Foulkes estimate   =    -951.91694026 Ry
     estimated scf accuracy    <       1.59520185 Ry

     total magnetization       =     0.00 Bohr mag/cell
     absolute magnetization    =     1.61 Bohr mag/cell

     iteration # 60     ecut=    70.00 Ry     beta= 0.70
     Davidson diagonalization with overlap
     ethr =  8.27E-08,  avg # of iterations =  5.0

     negative rho (up, down):  6.865E-03 2.510E-01

     total cpu time spent up to now is     6673.0 secs

     total energy              =    -951.87080953 Ry
     Harris-Foulkes estimate   =    -951.88748756 Ry
     estimated scf accuracy    <       0.40302797 Ry

     total magnetization       =     0.00 Bohr mag/cell
     absolute magnetization    =     0.92 Bohr mag/cell

     iteration # 61     ecut=    70.00 Ry     beta= 0.70
     Davidson diagonalization with overlap
     ethr =  8.27E-08,  avg # of iterations =  5.0

     negative rho (up, down):  2.306E-03 1.988E-01

     total cpu time spent up to now is     6867.7 secs

     total energy              =    -951.88326518 Ry
     Harris-Foulkes estimate   =    -951.88058792 Ry
     estimated scf accuracy    <       0.01620946 Ry

     total magnetization       =     0.00 Bohr mag/cell
     absolute magnetization    =     0.14 Bohr mag/cell

     iteration # 62     ecut=    70.00 Ry     beta= 0.70
     Davidson diagonalization with overlap
     ethr =  8.27E-08,  avg # of iterations =  4.5

     negative rho (up, down):  1.284E-03 1.179E-01

     total cpu time spent up to now is     7027.7 secs

     total energy              =    -951.88552797 Ry
     Harris-Foulkes estimate   =    -951.88434043 Ry
     estimated scf accuracy    <       0.00158955 Ry

     total magnetization       =    -0.00 Bohr mag/cell
     absolute magnetization    =     0.03 Bohr mag/cell

     iteration # 63     ecut=    70.00 Ry     beta= 0.70
     Davidson diagonalization with overlap
     ethr =  8.27E-08,  avg # of iterations =  4.5

     negative rho (up, down):  1.511E-03 1.284E-01

     total cpu time spent up to now is     7162.7 secs

     total energy              =    -951.88613775 Ry
     Harris-Foulkes estimate   =    -951.88620086 Ry
     estimated scf accuracy    <       0.02798802 Ry

     total magnetization       =     0.00 Bohr mag/cell
     absolute magnetization    =     0.23 Bohr mag/cell

     iteration # 64     ecut=    70.00 Ry     beta= 0.70
     Davidson diagonalization with overlap
     ethr =  8.27E-08,  avg # of iterations =  4.0

     negative rho (up, down):  1.689E-03 1.645E-01

     total cpu time spent up to now is     7268.2 secs

     total energy              =    -951.88544259 Ry
     Harris-Foulkes estimate   =    -951.88615143 Ry
     estimated scf accuracy    <       0.03288685 Ry

     total magnetization       =     0.00 Bohr mag/cell
     absolute magnetization    =     0.26 Bohr mag/cell

     iteration # 65     ecut=    70.00 Ry     beta= 0.70
     Davidson diagonalization with overlap
     ethr =  8.27E-08,  avg # of iterations =  3.0

     negative rho (up, down):  1.819E-03 1.412E-01

     total cpu time spent up to now is     7384.1 secs

     total energy              =    -951.88471003 Ry
     Harris-Foulkes estimate   =    -951.88575258 Ry
     estimated scf accuracy    <       0.02165398 Ry

     total magnetization       =    -0.00 Bohr mag/cell
     absolute magnetization    =     0.17 Bohr mag/cell

     iteration # 66     ecut=    70.00 Ry     beta= 0.70
     Davidson diagonalization with overlap
     ethr =  8.27E-08,  avg # of iterations =  4.0

     negative rho (up, down):  1.191E-03 8.010E-02

     total cpu time spent up to now is     7528.6 secs

     total energy              =    -951.88587894 Ry
     Harris-Foulkes estimate   =    -951.88554250 Ry
     estimated scf accuracy    <       0.00421841 Ry

     total magnetization       =     0.00 Bohr mag/cell
     absolute magnetization    =     0.08 Bohr mag/cell

     iteration # 67     ecut=    70.00 Ry     beta= 0.70
     Davidson diagonalization with overlap
     ethr =  8.27E-08,  avg # of iterations =  3.5

     negative rho (up, down):  1.052E-03 9.933E-02

     total cpu time spent up to now is     7648.0 secs

     total energy              =    -951.88584442 Ry
     Harris-Foulkes estimate   =    -951.88600708 Ry
     estimated scf accuracy    <       0.00565116 Ry

     total magnetization       =     0.00 Bohr mag/cell
     absolute magnetization    =     0.11 Bohr mag/cell

     iteration # 68     ecut=    70.00 Ry     beta= 0.70
     Davidson diagonalization with overlap
     ethr =  8.27E-08,  avg # of iterations =  3.0

     negative rho (up, down):  1.033E-03 6.228E-02

     total cpu time spent up to now is     7755.2 secs

     total energy              =    -951.88605925 Ry
     Harris-Foulkes estimate   =    -951.88593291 Ry
     estimated scf accuracy    <       0.00179313 Ry

     total magnetization       =    -0.00 Bohr mag/cell
     absolute magnetization    =     0.06 Bohr mag/cell

     iteration # 69     ecut=    70.00 Ry     beta= 0.70
     Davidson diagonalization with overlap
     ethr =  8.27E-08,  avg # of iterations =  2.5

     negative rho (up, down):  1.049E-03 6.207E-02

     total cpu time spent up to now is     7856.6 secs

     total energy              =    -951.88608651 Ry
     Harris-Foulkes estimate   =    -951.88609561 Ry
     estimated scf accuracy    <       0.00226805 Ry

     total magnetization       =    -0.00 Bohr mag/cell
     absolute magnetization    =     0.06 Bohr mag/cell

     iteration # 70     ecut=    70.00 Ry     beta= 0.70
     Davidson diagonalization with overlap
     ethr =  8.27E-08,  avg # of iterations =  2.0

     negative rho (up, down):  1.069E-03 9.520E-02

     total cpu time spent up to now is     7960.1 secs

     total energy              =    -951.88601884 Ry
     Harris-Foulkes estimate   =    -951.88613354 Ry
     estimated scf accuracy    <       0.00548877 Ry

     total magnetization       =    -0.00 Bohr mag/cell
     absolute magnetization    =     0.11 Bohr mag/cell

     iteration # 71     ecut=    70.00 Ry     beta= 0.70
     Davidson diagonalization with overlap
     ethr =  8.27E-08,  avg # of iterations =  3.0

     negative rho (up, down):  1.227E-03 1.024E-01

     total cpu time spent up to now is     8065.6 secs

     total energy              =    -951.88572710 Ry
     Harris-Foulkes estimate   =    -951.88606929 Ry
     estimated scf accuracy    <       0.00723808 Ry

     total magnetization       =     0.00 Bohr mag/cell
     absolute magnetization    =     0.11 Bohr mag/cell

     iteration # 72     ecut=    70.00 Ry     beta= 0.70
     Davidson diagonalization with overlap
     ethr =  8.27E-08,  avg # of iterations =  3.0

     negative rho (up, down):  1.151E-03 7.475E-02

     total cpu time spent up to now is     8180.6 secs

     total energy              =    -951.88585815 Ry
     Harris-Foulkes estimate   =    -951.88590299 Ry
     estimated scf accuracy    <       0.00245265 Ry

     total magnetization       =     0.00 Bohr mag/cell
     absolute magnetization    =     0.06 Bohr mag/cell

     iteration # 73     ecut=    70.00 Ry     beta= 0.70
     Davidson diagonalization with overlap
     ethr =  8.27E-08,  avg # of iterations =  3.0

     negative rho (up, down):  1.018E-03 4.074E-02

     total cpu time spent up to now is     8291.9 secs

     total energy              =    -951.88614156 Ry
     Harris-Foulkes estimate   =    -951.88597829 Ry
     estimated scf accuracy    <       0.00109446 Ry

     total magnetization       =    -0.00 Bohr mag/cell
     absolute magnetization    =     0.04 Bohr mag/cell

     iteration # 74     ecut=    70.00 Ry     beta= 0.70
     Davidson diagonalization with overlap
     ethr =  8.27E-08,  avg # of iterations =  2.0

     negative rho (up, down):  1.038E-03 8.350E-02

     total cpu time spent up to now is     8392.2 secs

     total energy              =    -951.88596457 Ry
     Harris-Foulkes estimate   =    -951.88615901 Ry
     estimated scf accuracy    <       0.00380531 Ry

     total magnetization       =    -0.00 Bohr mag/cell
     absolute magnetization    =     0.09 Bohr mag/cell

     iteration # 75     ecut=    70.00 Ry     beta= 0.70
     Davidson diagonalization with overlap
     ethr =  8.27E-08,  avg # of iterations =  2.0

     negative rho (up, down):  1.070E-03 5.507E-02

     total cpu time spent up to now is     8494.4 secs

     total energy              =    -951.88602299 Ry
     Harris-Foulkes estimate   =    -951.88599505 Ry
     estimated scf accuracy    <       0.00098487 Ry

     total magnetization       =    -0.00 Bohr mag/cell
     absolute magnetization    =     0.04 Bohr mag/cell

     iteration # 76     ecut=    70.00 Ry     beta= 0.70
     Davidson diagonalization with overlap
     ethr =  8.27E-08,  avg # of iterations =  2.0

     negative rho (up, down):  1.025E-03 1.962E-02

     total cpu time spent up to now is     8593.9 secs

     total energy              =    -951.88611841 Ry
     Harris-Foulkes estimate   =    -951.88604268 Ry
     estimated scf accuracy    <       0.00003818 Ry

     total magnetization       =    -0.00 Bohr mag/cell
     absolute magnetization    =     0.01 Bohr mag/cell

     iteration # 77     ecut=    70.00 Ry     beta= 0.70
     Davidson diagonalization with overlap
     ethr =  1.77E-08,  avg # of iterations =  3.0

     negative rho (up, down):  1.045E-03 1.033E-01

     total cpu time spent up to now is     8713.3 secs

     total energy              =    -951.88579596 Ry
     Harris-Foulkes estimate   =    -951.88624961 Ry
     estimated scf accuracy    <       0.00865852 Ry

     total magnetization       =    -0.00 Bohr mag/cell
     absolute magnetization    =     0.14 Bohr mag/cell

     iteration # 78     ecut=    70.00 Ry     beta= 0.70
     Davidson diagonalization with overlap
     ethr =  1.77E-08,  avg # of iterations =  3.5

     negative rho (up, down):  1.080E-03 4.979E-02

     total cpu time spent up to now is     8840.3 secs

     total energy              =    -951.88601715 Ry
     Harris-Foulkes estimate   =    -951.88591598 Ry
     estimated scf accuracy    <       0.00089246 Ry

     total magnetization       =     0.00 Bohr mag/cell
     absolute magnetization    =     0.03 Bohr mag/cell

     iteration # 79     ecut=    70.00 Ry     beta= 0.70
     Davidson diagonalization with overlap
     ethr =  1.77E-08,  avg # of iterations =  3.0

     negative rho (up, down):  1.026E-03 1.653E-02

     total cpu time spent up to now is     8954.7 secs

     total energy              =    -951.88611360 Ry
     Harris-Foulkes estimate   =    -951.88604411 Ry
     estimated scf accuracy    <       0.00000269 Ry

     total magnetization       =    -0.00 Bohr mag/cell
     absolute magnetization    =     0.00 Bohr mag/cell

     iteration # 80     ecut=    70.00 Ry     beta= 0.70
     Davidson diagonalization with overlap
     ethr =  1.24E-09,  avg # of iterations =  3.0

     negative rho (up, down):  1.026E-03 1.398E-02

     total cpu time spent up to now is     9077.5 secs

     total energy              =    -951.88611383 Ry
     Harris-Foulkes estimate   =    -951.88611719 Ry
     estimated scf accuracy    <       0.00014334 Ry

     total magnetization       =    -0.00 Bohr mag/cell
     absolute magnetization    =     0.01 Bohr mag/cell

     iteration # 81     ecut=    70.00 Ry     beta= 0.70
     Davidson diagonalization with overlap
     ethr =  1.24E-09,  avg # of iterations =  3.0

     negative rho (up, down):  1.021E-03 9.474E-03

     total cpu time spent up to now is     9190.6 secs

     total energy              =    -951.88612033 Ry
     Harris-Foulkes estimate   =    -951.88611622 Ry
     estimated scf accuracy    <       0.00002252 Ry

     total magnetization       =    -0.00 Bohr mag/cell
     absolute magnetization    =     0.01 Bohr mag/cell

     iteration # 82     ecut=    70.00 Ry     beta= 0.70
     Davidson diagonalization with overlap
     ethr =  1.24E-09,  avg # of iterations =  2.0

     negative rho (up, down):  1.020E-03 1.073E-02

     total cpu time spent up to now is     9294.2 secs

     total energy              =    -951.88612148 Ry
     Harris-Foulkes estimate   =    -951.88612097 Ry
     estimated scf accuracy    <       0.00003905 Ry

     total magnetization       =    -0.00 Bohr mag/cell
     absolute magnetization    =     0.01 Bohr mag/cell

     iteration # 83     ecut=    70.00 Ry     beta= 0.70
     Davidson diagonalization with overlap
     ethr =  1.24E-09,  avg # of iterations =  2.0

     negative rho (up, down):  1.020E-03 1.437E-02

     total cpu time spent up to now is     9390.9 secs

     total energy              =    -951.88611973 Ry
     Harris-Foulkes estimate   =    -951.88612167 Ry
     estimated scf accuracy    <       0.00007347 Ry

     total magnetization       =     0.00 Bohr mag/cell
     absolute magnetization    =     0.01 Bohr mag/cell

     iteration # 84     ecut=    70.00 Ry     beta= 0.70
     Davidson diagonalization with overlap
     ethr =  1.24E-09,  avg # of iterations =  2.0

     negative rho (up, down):  1.020E-03 1.379E-02

     total cpu time spent up to now is     9488.0 secs

     total energy              =    -951.88612027 Ry
     Harris-Foulkes estimate   =    -951.88611987 Ry
     estimated scf accuracy    <       0.00006392 Ry

     total magnetization       =    -0.00 Bohr mag/cell
     absolute magnetization    =     0.01 Bohr mag/cell

     iteration # 85     ecut=    70.00 Ry     beta= 0.70
     Davidson diagonalization with overlap
     ethr =  1.24E-09,  avg # of iterations =  2.0

     negative rho (up, down):  1.020E-03 1.494E-02

     total cpu time spent up to now is     9583.7 secs

     total energy              =    -951.88611988 Ry
     Harris-Foulkes estimate   =    -951.88612040 Ry
     estimated scf accuracy    <       0.00007879 Ry

     total magnetization       =     0.00 Bohr mag/cell
     absolute magnetization    =     0.01 Bohr mag/cell

     iteration # 86     ecut=    70.00 Ry     beta= 0.70
     Davidson diagonalization with overlap
     ethr =  1.24E-09,  avg # of iterations =  1.0

     negative rho (up, down):  1.020E-03 1.499E-02

     total cpu time spent up to now is     9678.3 secs

     total energy              =    -951.88611979 Ry
     Harris-Foulkes estimate   =    -951.88611991 Ry
     estimated scf accuracy    <       0.00007484 Ry

     total magnetization       =    -0.00 Bohr mag/cell
     absolute magnetization    =     0.01 Bohr mag/cell

     iteration # 87     ecut=    70.00 Ry     beta= 0.70
     Davidson diagonalization with overlap
     ethr =  1.24E-09,  avg # of iterations =  2.5

     negative rho (up, down):  1.020E-03 1.680E-02

     total cpu time spent up to now is     9782.4 secs

     total energy              =    -951.88611782 Ry
     Harris-Foulkes estimate   =    -951.88612063 Ry
     estimated scf accuracy    <       0.00011902 Ry

     total magnetization       =    -0.00 Bohr mag/cell
     absolute magnetization    =     0.02 Bohr mag/cell

     iteration # 88     ecut=    70.00 Ry     beta= 0.70
     Davidson diagonalization with overlap
     ethr =  1.24E-09,  avg # of iterations =  2.5

     negative rho (up, down):  1.019E-03 1.460E-02

     total cpu time spent up to now is     9886.1 secs

     total energy              =    -951.88612289 Ry
     Harris-Foulkes estimate   =    -951.88611862 Ry
     estimated scf accuracy    <       0.00007677 Ry

     total magnetization       =    -0.00 Bohr mag/cell
     absolute magnetization    =     0.01 Bohr mag/cell

     iteration # 89     ecut=    70.00 Ry     beta= 0.70
     Davidson diagonalization with overlap
     ethr =  1.24E-09,  avg # of iterations =  3.0

     negative rho (up, down):  1.026E-03 2.915E-02

     total cpu time spent up to now is    10011.8 secs

     total energy              =    -951.88611321 Ry
     Harris-Foulkes estimate   =    -951.88612930 Ry
     estimated scf accuracy    <       0.00048365 Ry

     total magnetization       =    -0.00 Bohr mag/cell
     absolute magnetization    =     0.03 Bohr mag/cell

     iteration # 90     ecut=    70.00 Ry     beta= 0.70
     Davidson diagonalization with overlap
     ethr =  1.24E-09,  avg # of iterations =  3.0

     negative rho (up, down):  1.024E-03 3.605E-02

     total cpu time spent up to now is    10122.5 secs

     total energy              =    -951.88609097 Ry
     Harris-Foulkes estimate   =    -951.88611444 Ry
     estimated scf accuracy    <       0.00050353 Ry

     total magnetization       =     0.00 Bohr mag/cell
     absolute magnetization    =     0.03 Bohr mag/cell

     iteration # 91     ecut=    70.00 Ry     beta= 0.70
     Davidson diagonalization with overlap
     ethr =  1.24E-09,  avg # of iterations =  3.0

     negative rho (up, down):  1.021E-03 1.744E-02

     total cpu time spent up to now is    10245.5 secs

     total energy              =    -951.88611340 Ry
     Harris-Foulkes estimate   =    -951.88609815 Ry
     estimated scf accuracy    <       0.00007177 Ry

     total magnetization       =    -0.00 Bohr mag/cell
     absolute magnetization    =     0.01 Bohr mag/cell

     iteration # 92     ecut=    70.00 Ry     beta= 0.70
     Davidson diagonalization with overlap
     ethr =  1.24E-09,  avg # of iterations =  3.0

     negative rho (up, down):  1.018E-03 1.076E-02

     total cpu time spent up to now is    10355.2 secs

     total energy              =    -951.88611905 Ry
     Harris-Foulkes estimate   =    -951.88611539 Ry
     estimated scf accuracy    <       0.00002265 Ry

     total magnetization       =    -0.00 Bohr mag/cell
     absolute magnetization    =     0.01 Bohr mag/cell

     iteration # 93     ecut=    70.00 Ry     beta= 0.70
     Davidson diagonalization with overlap
     ethr =  1.24E-09,  avg # of iterations =  3.0

     negative rho (up, down):  1.021E-03 2.639E-02

     total cpu time spent up to now is    10473.1 secs

     total energy              =    -951.88610776 Ry
     Harris-Foulkes estimate   =    -951.88612616 Ry
     estimated scf accuracy    <       0.00038835 Ry

     total magnetization       =    -0.00 Bohr mag/cell
     absolute magnetization    =     0.03 Bohr mag/cell

     iteration # 94     ecut=    70.00 Ry     beta= 0.70
     Davidson diagonalization with overlap
     ethr =  1.24E-09,  avg # of iterations =  3.0

     negative rho (up, down):  1.023E-03 1.634E-02

     total cpu time spent up to now is    10583.2 secs

     total energy              =    -951.88611385 Ry
     Harris-Foulkes estimate   =    -951.88611045 Ry
     estimated scf accuracy    <       0.00007214 Ry

     total magnetization       =    -0.00 Bohr mag/cell
     absolute magnetization    =     0.01 Bohr mag/cell

     iteration # 95     ecut=    70.00 Ry     beta= 0.70
     Davidson diagonalization with overlap
     ethr =  1.24E-09,  avg # of iterations =  3.0

     negative rho (up, down):  1.019E-03 5.959E-03

     total cpu time spent up to now is    10692.9 secs

     total energy              =    -951.88612069 Ry
     Harris-Foulkes estimate   =    -951.88611601 Ry
     estimated scf accuracy    <       0.00001682 Ry

     total magnetization       =     0.00 Bohr mag/cell
     absolute magnetization    =     0.00 Bohr mag/cell

     iteration # 96     ecut=    70.00 Ry     beta= 0.70
     Davidson diagonalization with overlap
     ethr =  1.24E-09,  avg # of iterations =  2.5

     negative rho (up, down):  1.018E-03 2.872E-03

     total cpu time spent up to now is    10795.9 secs

     total energy              =    -951.88612200 Ry
     Harris-Foulkes estimate   =    -951.88612137 Ry
     estimated scf accuracy    <       0.00000290 Ry

     total magnetization       =     0.00 Bohr mag/cell
     absolute magnetization    =     0.00 Bohr mag/cell

     iteration # 97     ecut=    70.00 Ry     beta= 0.70
     Davidson diagonalization with overlap
     ethr =  1.24E-09,  avg # of iterations =  2.5

     negative rho (up, down):  1.018E-03 8.064E-03

     total cpu time spent up to now is    10899.0 secs

     total energy              =    -951.88612050 Ry
     Harris-Foulkes estimate   =    -951.88612265 Ry
     estimated scf accuracy    <       0.00003629 Ry

     total magnetization       =     0.00 Bohr mag/cell
     absolute magnetization    =     0.01 Bohr mag/cell

     iteration # 98     ecut=    70.00 Ry     beta= 0.70
     Davidson diagonalization with overlap
     ethr =  1.24E-09,  avg # of iterations =  2.5

     negative rho (up, down):  1.018E-03 3.310E-03

     total cpu time spent up to now is    11003.6 secs

     total energy              =    -951.88612173 Ry
     Harris-Foulkes estimate   =    -951.88612153 Ry
     estimated scf accuracy    <       0.00000745 Ry

     total magnetization       =    -0.00 Bohr mag/cell
     absolute magnetization    =     0.00 Bohr mag/cell

     iteration # 99     ecut=    70.00 Ry     beta= 0.70
     Davidson diagonalization with overlap
     ethr =  1.24E-09,  avg # of iterations =  2.0

     negative rho (up, down):  1.017E-03 1.898E-05

     Magnetic moment per site:
     atom:    1    charge:    0.2114    magn:   -0.0000    constr:    0.0000
     atom:    2    charge:    0.2112    magn:    0.0000    constr:    0.0000
     atom:    3    charge:    1.7155    magn:    0.0000    constr:    0.0000
     atom:    4    charge:    1.7152    magn:   -0.0000    constr:    0.0000
     atom:    5    charge:    1.7168    magn:    0.0000    constr:    0.0000
     atom:    6    charge:    1.7146    magn:   -0.0000    constr:    0.0000
     atom:    7    charge:    1.7168    magn:    0.0000    constr:    0.0000
     atom:    8    charge:    1.7152    magn:   -0.0000    constr:    0.0000
     atom:    9    charge:    1.7155    magn:    0.0000    constr:    0.0000
     atom:   10    charge:    1.7176    magn:   -0.0000    constr:    0.0000
     atom:   11    charge:    1.7156    magn:    0.0000    constr:    0.0000
     atom:   12    charge:    1.7176    magn:   -0.0000    constr:    0.0000
     atom:   13    charge:    1.7155    magn:    0.0000    constr:    0.0000
     atom:   14    charge:    1.7175    magn:   -0.0000    constr:    0.0000
     atom:   15    charge:    1.7117    magn:    0.0000    constr:    0.0000
     atom:   16    charge:    1.7114    magn:   -0.0000    constr:    0.0000
     atom:   17    charge:    1.7206    magn:    0.0000    constr:    0.0000
     atom:   18    charge:    1.7114    magn:   -0.0000    constr:    0.0000
     atom:   19    charge:    1.7117    magn:    0.0000    constr:    0.0000
     atom:   20    charge:    1.7175    magn:   -0.0000    constr:    0.0000
     atom:   21    charge:    1.7155    magn:    0.0000    constr:    0.0000
     atom:   22    charge:    1.7176    magn:   -0.0000    constr:    0.0000
     atom:   23    charge:    1.7155    magn:    0.0000    constr:    0.0000
     atom:   24    charge:    1.7152    magn:   -0.0000    constr:    0.0000
     atom:   25    charge:    1.7117    magn:    0.0000    constr:    0.0000
     atom:   26    charge:    1.7114    magn:   -0.0000    constr:    0.0000
     atom:   27    charge:    1.8182    magn:    0.0000    constr:    0.0000
     atom:   28    charge:   13.4052    magn:   -0.0000    constr:    0.0000
     atom:   29    charge:    1.8182    magn:    0.0000    constr:    0.0000
     atom:   30    charge:    1.7114    magn:   -0.0000    constr:    0.0000
     atom:   31    charge:    1.7117    magn:    0.0000    constr:    0.0000
     atom:   32    charge:    1.7152    magn:   -0.0000    constr:    0.0000
     atom:   33    charge:    1.7168    magn:    0.0000    constr:    0.0000
     atom:   34    charge:    1.7154    magn:   -0.0000    constr:    0.0000
     atom:   35    charge:    1.7168    magn:    0.0000    constr:    0.0000
     atom:   36    charge:    1.7146    magn:   -0.0000    constr:    0.0000
     atom:   37    charge:    1.7207    magn:    0.0000    constr:    0.0000
     atom:   38    charge:    1.7114    magn:   -0.0000    constr:    0.0000
     atom:   39    charge:    1.8182    magn:    0.0000    constr:    0.0000
     atom:   40    charge:    1.7114    magn:   -0.0000    constr:    0.0000
     atom:   41    charge:    1.7206    magn:    0.0000    constr:    0.0000
     atom:   42    charge:    1.7146    magn:   -0.0000    constr:    0.0000
     atom:   43    charge:    1.7168    magn:    0.0000    constr:    0.0000
     atom:   44    charge:    1.7154    magn:   -0.0000    constr:    0.0000
     atom:   45    charge:    1.7212    magn:    0.0000    constr:    0.0000
     atom:   46    charge:    1.7154    magn:   -0.0000    constr:    0.0000
     atom:   47    charge:    1.7168    magn:    0.0000    constr:    0.0000
     atom:   48    charge:    1.7152    magn:   -0.0000    constr:    0.0000
     atom:   49    charge:    1.7118    magn:    0.0000    constr:    0.0000
     atom:   50    charge:    1.7175    magn:   -0.0000    constr:    0.0000
     atom:   51    charge:    1.7118    magn:    0.0000    constr:    0.0000
     atom:   52    charge:    1.7152    magn:   -0.0000    constr:    0.0000

     total cpu time spent up to now is    11103.4 secs

     End of self-consistent calculation

 ------ SPIN UP ------------


          k = 0.0000 0.0000 0.0000 ( 87777 PWs)   bands (ev):

  -107.9190 -69.0875 -69.0874 -67.0031 -19.8260 -19.0068 -19.0064 -18.8880
   -18.8877 -18.8028 -18.7355 -17.1628 -17.1625 -17.1278 -17.0787 -17.0786
   -16.7526 -16.3117 -16.3117 -16.1651 -16.1651 -16.1518 -15.6694 -14.3101
   -14.3099 -14.1496 -14.0157 -14.0156 -13.5137 -13.1279 -13.1279 -13.0763
   -12.9002 -12.9002 -12.4999 -12.0752 -12.0752 -11.7117 -11.5676 -11.5676
   -10.9338 -10.4316 -10.4315  -9.5766  -9.3650  -9.3649  -9.2259  -9.2108
    -9.2108  -9.1961  -8.9521  -8.9521  -8.5925  -8.5924  -8.4567  -7.9419
    -7.9012  -7.8456  -7.8449  -7.6633  -7.5409  -7.5408  -7.4477  -7.4477
    -6.8456  -6.8211  -6.8208  -6.7515  -6.6933  -6.6186  -6.6184  -6.5546
    -6.5497  -6.5496  -6.5160  -6.4920  -6.4248  -6.4246  -6.3777  -6.2886
    -6.2885  -5.5460  -5.5459  -5.0300  -4.9490  -4.8419  -4.8418  -4.7573
    -4.7158  -4.7156  -4.4274  -4.3981  -4.3980  -3.8357  -3.8355  -3.7639
    -3.7582  -3.7581  -3.7300  -3.4192  -3.4188  -3.3505  -1.8912  -1.8056
    -1.8055  -1.5896  -1.5891  -1.1569   0.1078   0.1081   0.9049   0.9635
     0.9637   1.2133   1.2136   1.5504   2.4941   2.8037   2.8038   2.8530
     3.0409   3.0413   3.4169   3.6094   3.6105   3.7385   3.7415   3.7657
     3.7760   3.9524

     occupation numbers 
     1.0000   1.0000   1.0000   1.0000   1.0000   1.0000   1.0000   1.0000
     1.0000   1.0000   1.0000   1.0000   1.0000   1.0000   1.0000   1.0000
     1.0000   1.0000   1.0000   1.0000   1.0000   1.0000   1.0000   1.0000
     1.0000   1.0000   1.0000   1.0000   1.0000   1.0000   1.0000   1.0000
     1.0000   1.0000   1.0000   1.0000   1.0000   1.0000   1.0000   1.0000
     1.0000   1.0000   1.0000   1.0000   1.0000   1.0000   1.0000   1.0000
     1.0000   1.0000   1.0000   1.0000   1.0000   1.0000   1.0000   1.0000
     1.0000   1.0000   1.0000   1.0000   1.0000   1.0000   1.0000   1.0000
     1.0000   1.0000   1.0000   1.0000   1.0000   1.0000   1.0000   1.0000
     1.0000   1.0000   1.0000   1.0000   1.0000   1.0000   1.0000   1.0000
     1.0000   1.0000   1.0000   1.0000   1.0000   1.0000   1.0000   1.0000
     1.0000   1.0000   1.0000   1.0000   1.0000   1.0000   1.0000   1.0000
     1.0000   1.0000   1.0000   1.0000   1.0000   1.0000   1.0000   1.0000
     1.0000   1.0000   1.0000   1.0000   0.0000   0.0000   0.0000   0.0000
     0.0000   0.0000   0.0000   0.0000   0.0000   0.0000   0.0000   0.0000
     0.0000   0.0000   0.0000   0.0000   0.0000   0.0000   0.0000   0.0000
     0.0000   0.0000

 ------ SPIN DOWN ----------


          k = 0.0000 0.0000 0.0000 ( 87777 PWs)   bands (ev):

  -107.9190 -69.0875 -69.0874 -67.0031 -19.8260 -19.0068 -19.0064 -18.8880
   -18.8877 -18.8028 -18.7355 -17.1628 -17.1625 -17.1278 -17.0787 -17.0786
   -16.7526 -16.3117 -16.3117 -16.1651 -16.1651 -16.1518 -15.6694 -14.3101
   -14.3099 -14.1496 -14.0158 -14.0156 -13.5137 -13.1279 -13.1279 -13.0763
   -12.9002 -12.9002 -12.4999 -12.0752 -12.0752 -11.7117 -11.5676 -11.5676
   -10.9338 -10.4316 -10.4315  -9.5766  -9.3650  -9.3649  -9.2259  -9.2108
    -9.2108  -9.1961  -8.9521  -8.9521  -8.5925  -8.5924  -8.4567  -7.9419
    -7.9012  -7.8456  -7.8449  -7.6633  -7.5409  -7.5408  -7.4477  -7.4477
    -6.8456  -6.8211  -6.8208  -6.7515  -6.6933  -6.6186  -6.6184  -6.5546
    -6.5497  -6.5496  -6.5160  -6.4920  -6.4248  -6.4246  -6.3777  -6.2886
    -6.2885  -5.5460  -5.5459  -5.0300  -4.9490  -4.8419  -4.8418  -4.7573
    -4.7158  -4.7156  -4.4274  -4.3981  -4.3980  -3.8357  -3.8355  -3.7639
    -3.7582  -3.7581  -3.7300  -3.4192  -3.4188  -3.3505  -1.8912  -1.8056
    -1.8055  -1.5896  -1.5891  -1.1569   0.1078   0.1081   0.9049   0.9635
     0.9637   1.2133   1.2136   1.5504   2.4941   2.8037   2.8038   2.8530
     3.0409   3.0413   3.4169   3.6094   3.6105   3.7386   3.7415   3.7654
     3.7760   3.9523

     occupation numbers 
     1.0000   1.0000   1.0000   1.0000   1.0000   1.0000   1.0000   1.0000
     1.0000   1.0000   1.0000   1.0000   1.0000   1.0000   1.0000   1.0000
     1.0000   1.0000   1.0000   1.0000   1.0000   1.0000   1.0000   1.0000
     1.0000   1.0000   1.0000   1.0000   1.0000   1.0000   1.0000   1.0000
     1.0000   1.0000   1.0000   1.0000   1.0000   1.0000   1.0000   1.0000
     1.0000   1.0000   1.0000   1.0000   1.0000   1.0000   1.0000   1.0000
     1.0000   1.0000   1.0000   1.0000   1.0000   1.0000   1.0000   1.0000
     1.0000   1.0000   1.0000   1.0000   1.0000   1.0000   1.0000   1.0000
     1.0000   1.0000   1.0000   1.0000   1.0000   1.0000   1.0000   1.0000
     1.0000   1.0000   1.0000   1.0000   1.0000   1.0000   1.0000   1.0000
     1.0000   1.0000   1.0000   1.0000   1.0000   1.0000   1.0000   1.0000
     1.0000   1.0000   1.0000   1.0000   1.0000   1.0000   1.0000   1.0000
     1.0000   1.0000   1.0000   1.0000   1.0000   1.0000   1.0000   1.0000
     1.0000   1.0000   1.0000   1.0000   0.0000   0.0000   0.0000   0.0000
     0.0000   0.0000   0.0000   0.0000   0.0000   0.0000   0.0000   0.0000
     0.0000   0.0000   0.0000   0.0000   0.0000   0.0000   0.0000   0.0000
     0.0000   0.0000

     the Fermi energy is    -0.3925 ev

!    total energy              =    -951.88612234 Ry
     Harris-Foulkes estimate   =    -951.88612206 Ry
     estimated scf accuracy    <       0.00000012 Ry

     The total energy is the sum of the following terms:

     one-electron contribution =   -2960.72031301 Ry
     hartree contribution      =    1523.00756595 Ry
     xc contribution           =    -265.71409267 Ry
     ewald contribution        =     751.54071739 Ry
     smearing contrib. (-TS)   =       0.00000000 Ry

     total magnetization       =     0.00 Bohr mag/cell
     absolute magnetization    =     0.00 Bohr mag/cell

     convergence has been achieved in  99 iterations

     Writing output data file distance-4.5.save/

     init_run     :     72.81s CPU     74.03s WALL (       1 calls)
     electrons    :  10849.79s CPU  11028.34s WALL (       1 calls)

     Called by init_run:
     wfcinit      :     42.88s CPU     43.10s WALL (       1 calls)
     wfcinit:atom :      0.07s CPU      0.08s WALL (       2 calls)
     wfcinit:wfcr :     42.45s CPU     42.58s WALL (       2 calls)
     potinit      :     12.55s CPU     12.94s WALL (       1 calls)
     hinit0       :      8.80s CPU      8.83s WALL (       1 calls)

     Called by electrons:
     c_bands      :   7229.17s CPU   7266.86s WALL (      99 calls)
     sum_band     :   2098.24s CPU   2156.54s WALL (      99 calls)
     v_of_rho     :    729.62s CPU    761.69s WALL (     100 calls)
     v_h          :      7.65s CPU      7.89s WALL (     100 calls)
     v_xc         :    721.97s CPU    753.80s WALL (     100 calls)
     newd         :    736.10s CPU    786.19s WALL (     100 calls)
     mix_rho      :     48.21s CPU     48.94s WALL (      99 calls)

     Called by c_bands:
     init_us_2    :     18.47s CPU     18.52s WALL (     398 calls)
     cegterg      :   7178.53s CPU   7216.04s WALL (     198 calls)

     Called by sum_band:
     sum_band:bec :      0.16s CPU      0.16s WALL (     198 calls)
     addusdens    :   1284.89s CPU   1338.42s WALL (      99 calls)

     Called by *egterg:
     h_psi        :   3594.37s CPU   3619.91s WALL (     791 calls)
     s_psi        :   1212.26s CPU   1213.02s WALL (     791 calls)
     g_psi        :      4.12s CPU      4.13s WALL (     591 calls)
     cdiaghg      :     60.47s CPU     60.51s WALL (     789 calls)
     cegterg:over :    956.40s CPU    957.01s WALL (     591 calls)
     cegterg:upda :    611.42s CPU    614.69s WALL (     591 calls)
     cegterg:last :    430.74s CPU    430.97s WALL (     206 calls)

     Called by h_psi:
     h_psi:pot    :   3590.02s CPU   3610.93s WALL (     791 calls)
     h_psi:calbec :   1211.73s CPU   1212.51s WALL (     791 calls)
     vloc_psi     :   1167.65s CPU   1187.10s WALL (     791 calls)
     add_vuspsi   :   1210.63s CPU   1211.31s WALL (     791 calls)

     General routines
     calbec       :   1702.93s CPU   1703.96s WALL (     989 calls)
     fft          :    435.44s CPU    448.42s WALL (    7494 calls)
     ffts         :      7.17s CPU      7.41s WALL (     398 calls)
     fftw         :   1229.03s CPU   1250.14s WALL (  152910 calls)
     interpolate  :     17.14s CPU     17.59s WALL (     200 calls)

     Parallel routines
     fft_scatt_xy :    300.06s CPU    303.73s WALL (  160802 calls)
     fft_scatt_yz :    564.83s CPU    590.01s WALL (  160802 calls)

     PWSCF        :      3h 2m CPU      3h 5m WALL


   This run was terminated on:   2: 8: 8  23Dec2022            

=------------------------------------------------------------------------------=
   JOB DONE.
=------------------------------------------------------------------------------=
