
     Program PWSCF v.6.4.1 starts on 24Dec2022 at 13:53: 8 

     This program is part of the open-source Quantum ESPRESSO suite
     for quantum simulation of materials; please cite
         "P. Giannozzi et al., J. Phys.:Condens. Matter 21 395502 (2009);
         "P. Giannozzi et al., J. Phys.:Condens. Matter 29 465901 (2017);
          URL http://www.quantum-espresso.org", 
     in publications or presentations arising from this work. More details at
     http://www.quantum-espresso.org/quote

     Parallel version (MPI), running on     6 processors

     MPI processes distributed on     1 nodes
     R & G space division:  proc/nbgrp/npool/nimage =       6
     Reading input from distance-2.6.in

     Current dimensions of program PWSCF are:
     Max number of different atomic species (ntypx) = 10
     Max number of k-points (npk) =  40000
     Max angular momentum in pseudopotentials (lmaxx) =  3

     IMPORTANT: XC functional enforced from input :
     Exchange-correlation      = RVV10 ( 1  4 13  4 3 0)
     Any further DFT definition will be discarded
     Please, verify this is what you really want

               file H.pbe-rrkjus.UPF: wavefunction(s)  1S renormalized

     Subspace diagonalization in iterative solution of the eigenvalue problem:
     a serial algorithm will be used


     Parallelization info
     --------------------
     sticks:   dense  smooth     PW     G-vecs:    dense   smooth      PW
     Min        3051    1746    432               270999   117096   14629
     Max        3053    1747    437               271001   117099   14630
     Sum       18313   10477   2611              1626001   702581   87777



     bravais-lattice index     =            4
     lattice parameter (alat)  =      23.2937  a.u.
     unit-cell volume          =    8879.8548 (a.u.)^3
     number of atoms/cell      =           52
     number of atomic types    =            3
     number of electrons       =       216.00
     number of Kohn-Sham states=          130
     kinetic-energy cutoff     =      70.0000  Ry
     charge density cutoff     =     490.0000  Ry
     convergence threshold     =      1.0E-06
     mixing beta               =       0.7000
     number of iterations used =            8  plain     mixing
     Exchange-correlation      = RVV10 ( 1  4 13  4 3 0)

     celldm(1)=  23.293684  celldm(2)=   0.000000  celldm(3)=   0.811261
     celldm(4)=   0.000000  celldm(5)=   0.000000  celldm(6)=   0.000000

     crystal axes: (cart. coord. in units of alat)
               a(1) = (   1.000000   0.000000   0.000000 )  
               a(2) = (  -0.500000   0.866025   0.000000 )  
               a(3) = (   0.000000   0.000000   0.811261 )  

     reciprocal axes: (cart. coord. in units 2 pi/alat)
               b(1) = (  1.000000  0.577350 -0.000000 )  
               b(2) = (  0.000000  1.154701  0.000000 )  
               b(3) = (  0.000000 -0.000000  1.232649 )  


     PseudoPot. # 1 for H  read from file:
     /home/cristian/Escritorio/Proyecto_Grafeno/pseudopotenciales/H.pbe-rrkjus.UPF
     MD5 check sum: 7cc9d459525c9a0585f487a71c3c9563
     Pseudo is Ultrasoft, Zval =  1.0
     Generated by new atomic code, or converted to UPF format
     Using radial grid of 1061 points,  2 beta functions with: 
                l(1) =   0
                l(2) =   0
     Q(r) pseudized with 0 coefficients 


     PseudoPot. # 2 for C  read from file:
     /home/cristian/Escritorio/Proyecto_Grafeno/pseudopotenciales/C.pbe-n-rrkjus_psl.1.0.0.UPF
     MD5 check sum: 1fdd950c42eb37d8afe3dd2f8d12311e
     Pseudo is Ultrasoft + core correction, Zval =  4.0
     Generated using "atomic" code by A. Dal Corso v.6.3MaX
     Using radial grid of 1073 points,  4 beta functions with: 
                l(1) =   0
                l(2) =   0
                l(3) =   1
                l(4) =   1
     Q(r) pseudized with 0 coefficients 


     PseudoPot. # 3 for Ni read from file:
     /home/cristian/Escritorio/Proyecto_Grafeno/pseudopotenciales/Ni.pbe-spn-rrkjus_psl.1.0.0.UPF
     MD5 check sum: 8b3fc9aac6dafe35f580d41bb18c3945
     Pseudo is Ultrasoft + core correction, Zval = 18.0
     Generated using "atomic" code by A. Dal Corso v.6.3
     Using radial grid of 1195 points,  6 beta functions with: 
                l(1) =   0
                l(2) =   0
                l(3) =   1
                l(4) =   1
                l(5) =   2
                l(6) =   2
     Q(r) pseudized with 0 coefficients 


     vdW kernel table read from file rVV10_kernel_table
     MD5 check sum: b8e2538accc0c0b3206b45ba4daaba6c

     atomic species   valence    mass     pseudopotential
        H              1.00     1.00794     H ( 1.00)
        C              4.00    12.01070     C ( 1.00)
        Ni            18.00    58.69340     Ni( 1.00)

     Starting magnetic structure 
     atomic species   magnetization
        H            0.500
        C            0.300
        Ni           0.800

      2 Sym. Ops. (no inversion) found


                                    s                        frac. trans.

      isym =  1     identity                                     

 cryst.   s( 1) = (     1          0          0      )
                  (     0          1          0      )
                  (     0          0          1      )

 cart.    s( 1) = (  1.0000000  0.0000000  0.0000000 )
                  (  0.0000000  1.0000000  0.0000000 )
                  (  0.0000000  0.0000000  1.0000000 )


      isym =  2     inv. 180 deg rotation - cryst. axis [1,1,0]  

 cryst.   s( 2) = (     0         -1          0      )
                  (    -1          0          0      )
                  (     0          0          1      )

 cart.    s( 2) = (  0.5000000 -0.8660254  0.0000000 )
                  ( -0.8660254 -0.5000000  0.0000000 )
                  (  0.0000000  0.0000000  1.0000000 )


     point group C_s (m)    
     there are  2 classes
     the character table:

       E     s    
A'     1.00  1.00
A''    1.00 -1.00

     the symmetry operations in each class and the name of the first element:

     E        1
          identity                                               
     s        2
          inv. 180 deg rotation - cryst. axis [1,1,0]            

   Cartesian axes

     site n.     atom                  positions (alat units)
         1           H   tau(   1) = (   0.2500000   0.4330127   0.2109279  )
         2           H   tau(   2) = (   0.2500000   0.4330127   0.2719406  )
         3           C   tau(   3) = (   0.0000000   0.0000000   0.0000000  )
         4           C   tau(   4) = (   0.0000000   0.1154701   0.0000000  )
         5           C   tau(   5) = (  -0.1000000   0.1732051   0.0000000  )
         6           C   tau(   6) = (  -0.1000000   0.2886751   0.0000000  )
         7           C   tau(   7) = (  -0.2000000   0.3464102   0.0000000  )
         8           C   tau(   8) = (  -0.2000000   0.4618802   0.0000000  )
         9           C   tau(   9) = (  -0.3000000   0.5196152   0.0000000  )
        10           C   tau(  10) = (  -0.3000000   0.6350853   0.0000000  )
        11           C   tau(  11) = (  -0.4000000   0.6928203   0.0000000  )
        12           C   tau(  12) = (  -0.4000000   0.8082904   0.0000000  )
        13           C   tau(  13) = (   0.2000000   0.0000000   0.0000000  )
        14           C   tau(  14) = (   0.2000000   0.1154701   0.0000000  )
        15           C   tau(  15) = (   0.1000000   0.1732051   0.0000000  )
        16           C   tau(  16) = (   0.1000000   0.2886751   0.0000000  )
        17           C   tau(  17) = (   0.0000000   0.3464102   0.0000000  )
        18           C   tau(  18) = (   0.0000000   0.4618802   0.0000000  )
        19           C   tau(  19) = (  -0.1000000   0.5196152   0.0000000  )
        20           C   tau(  20) = (  -0.1000000   0.6350853   0.0000000  )
        21           C   tau(  21) = (  -0.2000000   0.6928203   0.0000000  )
        22           C   tau(  22) = (  -0.2000000   0.8082904   0.0000000  )
        23           C   tau(  23) = (   0.4000000   0.0000000   0.0000000  )
        24           C   tau(  24) = (   0.4000000   0.1154701   0.0000000  )
        25           C   tau(  25) = (   0.3000000   0.1732051   0.0000000  )
        26           C   tau(  26) = (   0.3000000   0.2886751   0.0000000  )
        27           C   tau(  27) = (   0.2000000   0.3464102   0.0000000  )
        28           Ni  tau(  28) = (   0.2000000   0.4618802   0.0000000  )
        29           C   tau(  29) = (   0.1000000   0.5196152   0.0000000  )
        30           C   tau(  30) = (   0.1000000   0.6350853   0.0000000  )
        31           C   tau(  31) = (   0.0000000   0.6928203   0.0000000  )
        32           C   tau(  32) = (   0.0000000   0.8082904   0.0000000  )
        33           C   tau(  33) = (   0.6000000   0.0000000   0.0000000  )
        34           C   tau(  34) = (   0.6000000   0.1154701   0.0000000  )
        35           C   tau(  35) = (   0.5000000   0.1732051   0.0000000  )
        36           C   tau(  36) = (   0.5000000   0.2886751   0.0000000  )
        37           C   tau(  37) = (   0.4000000   0.3464102   0.0000000  )
        38           C   tau(  38) = (   0.4000000   0.4618802   0.0000000  )
        39           C   tau(  39) = (   0.3000000   0.5196152   0.0000000  )
        40           C   tau(  40) = (   0.3000000   0.6350853   0.0000000  )
        41           C   tau(  41) = (   0.2000000   0.6928203   0.0000000  )
        42           C   tau(  42) = (   0.2000000   0.8082904   0.0000000  )
        43           C   tau(  43) = (   0.8000000   0.0000000   0.0000000  )
        44           C   tau(  44) = (   0.8000000   0.1154701   0.0000000  )
        45           C   tau(  45) = (   0.7000000   0.1732051   0.0000000  )
        46           C   tau(  46) = (   0.7000000   0.2886751   0.0000000  )
        47           C   tau(  47) = (   0.6000000   0.3464102   0.0000000  )
        48           C   tau(  48) = (   0.6000000   0.4618802   0.0000000  )
        49           C   tau(  49) = (   0.5000000   0.5196152   0.0000000  )
        50           C   tau(  50) = (   0.5000000   0.6350853   0.0000000  )
        51           C   tau(  51) = (   0.4000000   0.6928203   0.0000000  )
        52           C   tau(  52) = (   0.4000000   0.8082904   0.0000000  )

   Crystallographic axes

     site n.     atom                  positions (cryst. coord.)
         1           H   tau(   1) = (  0.5000000  0.5000000  0.2600000  )
         2           H   tau(   2) = (  0.5000000  0.5000000  0.3352072  )
         3           C   tau(   3) = (  0.0000000  0.0000000  0.0000000  )
         4           C   tau(   4) = (  0.0666667  0.1333333  0.0000000  )
         5           C   tau(   5) = (  0.0000000  0.2000000  0.0000000  )
         6           C   tau(   6) = (  0.0666667  0.3333333  0.0000000  )
         7           C   tau(   7) = (  0.0000000  0.4000000  0.0000000  )
         8           C   tau(   8) = (  0.0666667  0.5333333  0.0000000  )
         9           C   tau(   9) = (  0.0000000  0.6000000  0.0000000  )
        10           C   tau(  10) = (  0.0666667  0.7333333  0.0000000  )
        11           C   tau(  11) = (  0.0000000  0.8000000  0.0000000  )
        12           C   tau(  12) = (  0.0666667  0.9333333  0.0000000  )
        13           C   tau(  13) = (  0.2000000  0.0000000  0.0000000  )
        14           C   tau(  14) = (  0.2666667  0.1333333  0.0000000  )
        15           C   tau(  15) = (  0.2000000  0.2000000  0.0000000  )
        16           C   tau(  16) = (  0.2666667  0.3333333  0.0000000  )
        17           C   tau(  17) = (  0.2000000  0.4000000  0.0000000  )
        18           C   tau(  18) = (  0.2666667  0.5333333  0.0000000  )
        19           C   tau(  19) = (  0.2000000  0.6000000  0.0000000  )
        20           C   tau(  20) = (  0.2666667  0.7333333  0.0000000  )
        21           C   tau(  21) = (  0.2000000  0.8000000  0.0000000  )
        22           C   tau(  22) = (  0.2666667  0.9333333  0.0000000  )
        23           C   tau(  23) = (  0.4000000  0.0000000  0.0000000  )
        24           C   tau(  24) = (  0.4666667  0.1333333  0.0000000  )
        25           C   tau(  25) = (  0.4000000  0.2000000  0.0000000  )
        26           C   tau(  26) = (  0.4666667  0.3333333  0.0000000  )
        27           C   tau(  27) = (  0.4000000  0.4000000  0.0000000  )
        28           Ni  tau(  28) = (  0.4666667  0.5333333  0.0000000  )
        29           C   tau(  29) = (  0.4000000  0.6000000  0.0000000  )
        30           C   tau(  30) = (  0.4666667  0.7333333  0.0000000  )
        31           C   tau(  31) = (  0.4000000  0.8000000  0.0000000  )
        32           C   tau(  32) = (  0.4666667  0.9333333  0.0000000  )
        33           C   tau(  33) = (  0.6000000  0.0000000  0.0000000  )
        34           C   tau(  34) = (  0.6666667  0.1333333  0.0000000  )
        35           C   tau(  35) = (  0.6000000  0.2000000  0.0000000  )
        36           C   tau(  36) = (  0.6666667  0.3333333  0.0000000  )
        37           C   tau(  37) = (  0.6000000  0.4000000  0.0000000  )
        38           C   tau(  38) = (  0.6666667  0.5333333  0.0000000  )
        39           C   tau(  39) = (  0.6000000  0.6000000  0.0000000  )
        40           C   tau(  40) = (  0.6666667  0.7333333  0.0000000  )
        41           C   tau(  41) = (  0.6000000  0.8000000  0.0000000  )
        42           C   tau(  42) = (  0.6666667  0.9333333  0.0000000  )
        43           C   tau(  43) = (  0.8000000  0.0000000  0.0000000  )
        44           C   tau(  44) = (  0.8666667  0.1333333  0.0000000  )
        45           C   tau(  45) = (  0.8000000  0.2000000  0.0000000  )
        46           C   tau(  46) = (  0.8666667  0.3333333  0.0000000  )
        47           C   tau(  47) = (  0.8000000  0.4000000  0.0000000  )
        48           C   tau(  48) = (  0.8666667  0.5333333  0.0000000  )
        49           C   tau(  49) = (  0.8000000  0.6000000  0.0000000  )
        50           C   tau(  50) = (  0.8666667  0.7333333  0.0000000  )
        51           C   tau(  51) = (  0.8000000  0.8000000  0.0000000  )
        52           C   tau(  52) = (  0.8666667  0.9333333  0.0000000  )

     number of k points=     1  Marzari-Vanderbilt smearing, width (Ry)=  0.0010
                       cart. coord. in units 2pi/alat
        k(    1) = (   0.0000000   0.0000000   0.0000000), wk =   1.0000000

                       cryst. coord.
        k(    1) = (   0.0000000   0.0000000   0.0000000), wk =   1.0000000

     Dense  grid:  1626001 G-vectors     FFT dimensions: ( 180, 180, 135)

     Smooth grid:   702581 G-vectors     FFT dimensions: ( 125, 125, 108)

     Dynamical RAM for                 wfc:      29.03 MB

     Dynamical RAM for     wfc (w. buffer):      87.10 MB

     Dynamical RAM for           str. fact:      12.41 MB

     Dynamical RAM for           local pot:       0.00 MB

     Dynamical RAM for          nlocal pot:      92.46 MB

     Dynamical RAM for                qrad:      19.73 MB

     Dynamical RAM for          rho,v,vnew:      58.92 MB

     Dynamical RAM for               rhoin:      19.64 MB

     Dynamical RAM for            rho*nmix:     132.32 MB

     Dynamical RAM for           G-vectors:      16.40 MB

     Dynamical RAM for          h,s,v(r/c):      12.38 MB

     Dynamical RAM for          <psi|beta>:       0.82 MB

     Dynamical RAM for                 psi:     116.14 MB

     Dynamical RAM for                hpsi:     116.14 MB

     Dynamical RAM for                spsi:     116.14 MB

     Dynamical RAM for      wfcinit/wfcrot:      93.90 MB

     Dynamical RAM for           addusdens:     975.89 MB

     Estimated static dynamical RAM per process >     489.64 MB

     Estimated max dynamical RAM per process >       1.43 GB

     Estimated total dynamical RAM >       8.59 GB
     Generating pointlists ...
     new r_m :   0.0252 (alat units)  0.5862 (a.u.) for type    1
     new r_m :   0.0476 (alat units)  1.1095 (a.u.) for type    2
     new r_m :   0.0476 (alat units)  1.1095 (a.u.) for type    3

     Check: negative core charge=   -0.000002

     Initial potential from superposition of free atoms

     starting charge  215.80530, renormalised to  216.00000

     negative rho (up, down):  1.446E-04 1.578E-02


---------------------------------------------------------------------------------
Carrying out rVV10 run using the following parameters:
Nqs =      20    Nr_points =    1024   r_max =   100.000
b_value =  6.30000    beta =  0.00901
     q_mesh =  0.00010000  0.00030000  0.00058939  0.00100810
               0.00161396  0.00249058  0.00375900  0.00559430
               0.00824984  0.01209221  0.01765183  0.02569619
               0.03733578  0.05417739  0.07854596  0.11380545
               0.16482331  0.23864234  0.34545298  0.50000000

Gradients computed in Reciprocal space

---------------------------------------------------------------------------------


     Starting wfcs are  208 randomized atomic wfcs

     total cpu time spent up to now is       67.9 secs

     Self-consistent Calculation

     iteration #  1     ecut=    70.00 Ry     beta= 0.70
     Davidson diagonalization with overlap
     ethr =  1.00E-02,  avg # of iterations =  4.5

     negative rho (up, down):  2.809E-04 1.386E-02

     total cpu time spent up to now is      183.6 secs

     total energy              =    -946.82025225 Ry
     Harris-Foulkes estimate   =    -949.70019524 Ry
     estimated scf accuracy    <      14.02261997 Ry

     total magnetization       =     6.00 Bohr mag/cell
     absolute magnetization    =     6.76 Bohr mag/cell

     iteration #  2     ecut=    70.00 Ry     beta= 0.70
     Davidson diagonalization with overlap
     ethr =  6.49E-03,  avg # of iterations =  3.5

     negative rho (up, down):  8.977E-03 2.547E-01

     total cpu time spent up to now is      287.2 secs

     total energy              =    -948.81610789 Ry
     Harris-Foulkes estimate   =    -956.90012381 Ry
     estimated scf accuracy    <      36.44602239 Ry

     total magnetization       =     4.00 Bohr mag/cell
     absolute magnetization    =     7.61 Bohr mag/cell

     iteration #  3     ecut=    70.00 Ry     beta= 0.70
     Davidson diagonalization with overlap
     ethr =  6.49E-03,  avg # of iterations =  3.5

     negative rho (up, down):  3.379E-02 5.277E-01

     total cpu time spent up to now is      386.9 secs

     total energy              =    -953.11825731 Ry
     Harris-Foulkes estimate   =    -960.59940859 Ry
     estimated scf accuracy    <     507.38580915 Ry

     total magnetization       =     0.00 Bohr mag/cell
     absolute magnetization    =    32.56 Bohr mag/cell

     iteration #  4     ecut=    70.00 Ry     beta= 0.70
     Davidson diagonalization with overlap
     ethr =  6.49E-03,  avg # of iterations =  3.0

     negative rho (up, down):  1.648E-02 5.107E-01

     total cpu time spent up to now is      474.6 secs

     total energy              =    -944.51642404 Ry
     Harris-Foulkes estimate   =    -954.83770222 Ry
     estimated scf accuracy    <     172.99970386 Ry

     total magnetization       =     1.83 Bohr mag/cell
     absolute magnetization    =    20.31 Bohr mag/cell

     iteration #  5     ecut=    70.00 Ry     beta= 0.70
     Davidson diagonalization with overlap
     ethr =  6.49E-03,  avg # of iterations =  3.5

     negative rho (up, down):  1.007E-01 2.240E-01

     total cpu time spent up to now is      576.7 secs

     total energy              =    -954.58465338 Ry
     Harris-Foulkes estimate   =    -952.87008864 Ry
     estimated scf accuracy    <      86.25205328 Ry

     total magnetization       =     2.00 Bohr mag/cell
     absolute magnetization    =    14.53 Bohr mag/cell

     iteration #  6     ecut=    70.00 Ry     beta= 0.70
     Davidson diagonalization with overlap
     ethr =  6.49E-03,  avg # of iterations =  3.0

     negative rho (up, down):  2.265E-02 5.056E-01

     total cpu time spent up to now is      668.2 secs

     total energy              =    -945.98054791 Ry
     Harris-Foulkes estimate   =    -959.74244122 Ry
     estimated scf accuracy    <     472.59949704 Ry

     total magnetization       =     2.00 Bohr mag/cell
     absolute magnetization    =    34.11 Bohr mag/cell

     iteration #  7     ecut=    70.00 Ry     beta= 0.70
     Davidson diagonalization with overlap
     ethr =  6.49E-03,  avg # of iterations =  3.0

     negative rho (up, down):  6.900E-02 4.057E-01

     total cpu time spent up to now is      768.8 secs

     total energy              =    -950.27553465 Ry
     Harris-Foulkes estimate   =    -952.03706681 Ry
     estimated scf accuracy    <      23.22689317 Ry

     total magnetization       =     4.00 Bohr mag/cell
     absolute magnetization    =     8.44 Bohr mag/cell

     iteration #  8     ecut=    70.00 Ry     beta= 0.70
     Davidson diagonalization with overlap
     ethr =  6.49E-03,  avg # of iterations =  1.5

     negative rho (up, down):  3.360E-02 3.400E-01

     total cpu time spent up to now is      851.1 secs

     total energy              =    -951.70069088 Ry
     Harris-Foulkes estimate   =    -951.85978915 Ry
     estimated scf accuracy    <       5.69358187 Ry

     total magnetization       =    -0.00 Bohr mag/cell
     absolute magnetization    =     3.34 Bohr mag/cell

     iteration #  9     ecut=    70.00 Ry     beta= 0.70
     Davidson diagonalization with overlap
     ethr =  2.64E-03,  avg # of iterations =  2.0

     negative rho (up, down):  2.776E-02 2.568E-01

     total cpu time spent up to now is      935.7 secs

     total energy              =    -951.69992308 Ry
     Harris-Foulkes estimate   =    -951.98533398 Ry
     estimated scf accuracy    <       7.57154948 Ry

     total magnetization       =     0.00 Bohr mag/cell
     absolute magnetization    =     3.74 Bohr mag/cell

     iteration # 10     ecut=    70.00 Ry     beta= 0.70
     Davidson diagonalization with overlap
     ethr =  2.64E-03,  avg # of iterations =  1.5

     negative rho (up, down):  1.454E-02 2.582E-01

     total cpu time spent up to now is     1018.9 secs

     total energy              =    -951.82245245 Ry
     Harris-Foulkes estimate   =    -951.92019453 Ry
     estimated scf accuracy    <       2.07219123 Ry

     total magnetization       =     0.00 Bohr mag/cell
     absolute magnetization    =     2.23 Bohr mag/cell

     iteration # 11     ecut=    70.00 Ry     beta= 0.70
     Davidson diagonalization with overlap
     ethr =  9.59E-04,  avg # of iterations =  3.0

     negative rho (up, down):  1.258E-02 2.879E-01

     total cpu time spent up to now is     1101.8 secs

     total energy              =    -951.84331023 Ry
     Harris-Foulkes estimate   =    -951.91087134 Ry
     estimated scf accuracy    <       1.17680458 Ry

     total magnetization       =    -0.00 Bohr mag/cell
     absolute magnetization    =     1.49 Bohr mag/cell

     iteration # 12     ecut=    70.00 Ry     beta= 0.70
     Davidson diagonalization with overlap
     ethr =  5.45E-04,  avg # of iterations =  1.5

     negative rho (up, down):  4.546E-03 2.340E-01

     total cpu time spent up to now is     1184.1 secs

     total energy              =    -951.87264835 Ry
     Harris-Foulkes estimate   =    -951.88816630 Ry
     estimated scf accuracy    <       0.09052198 Ry

     total magnetization       =     0.00 Bohr mag/cell
     absolute magnetization    =     0.33 Bohr mag/cell

     iteration # 13     ecut=    70.00 Ry     beta= 0.70
     Davidson diagonalization with overlap
     ethr =  4.19E-05,  avg # of iterations = 10.5

     negative rho (up, down):  1.743E-03 2.119E-01

     total cpu time spent up to now is     1278.5 secs

     total energy              =    -951.88501760 Ry
     Harris-Foulkes estimate   =    -951.88480177 Ry
     estimated scf accuracy    <       0.02445065 Ry

     total magnetization       =    -0.00 Bohr mag/cell
     absolute magnetization    =     0.34 Bohr mag/cell

     iteration # 14     ecut=    70.00 Ry     beta= 0.70
     Davidson diagonalization with overlap
     ethr =  1.13E-05,  avg # of iterations =  3.0

     negative rho (up, down):  1.329E-03 1.906E-01

     total cpu time spent up to now is     1363.3 secs

     total energy              =    -951.88567261 Ry
     Harris-Foulkes estimate   =    -951.88645174 Ry
     estimated scf accuracy    <       0.01512699 Ry

     total magnetization       =    -0.00 Bohr mag/cell
     absolute magnetization    =     0.24 Bohr mag/cell

     iteration # 15     ecut=    70.00 Ry     beta= 0.70
     Davidson diagonalization with overlap
     ethr =  7.00E-06,  avg # of iterations =  1.5

     negative rho (up, down):  1.184E-03 1.289E-01

     total cpu time spent up to now is     1445.2 secs

     total energy              =    -951.88647536 Ry
     Harris-Foulkes estimate   =    -951.88635262 Ry
     estimated scf accuracy    <       0.00245440 Ry

     total magnetization       =     0.00 Bohr mag/cell
     absolute magnetization    =     0.12 Bohr mag/cell

     iteration # 16     ecut=    70.00 Ry     beta= 0.70
     Davidson diagonalization with overlap
     ethr =  1.14E-06,  avg # of iterations =  4.0

     negative rho (up, down):  1.595E-03 1.520E-01

     total cpu time spent up to now is     1545.1 secs

     total energy              =    -951.88673429 Ry
     Harris-Foulkes estimate   =    -951.88746016 Ry
     estimated scf accuracy    <       0.02667109 Ry

     total magnetization       =    -0.00 Bohr mag/cell
     absolute magnetization    =     0.25 Bohr mag/cell

     iteration # 17     ecut=    70.00 Ry     beta= 0.70
     Davidson diagonalization with overlap
     ethr =  1.14E-06,  avg # of iterations =  2.0

     negative rho (up, down):  1.418E-03 1.703E-01

     total cpu time spent up to now is     1630.9 secs

     total energy              =    -951.88704976 Ry
     Harris-Foulkes estimate   =    -951.88692129 Ry
     estimated scf accuracy    <       0.02242724 Ry

     total magnetization       =     0.00 Bohr mag/cell
     absolute magnetization    =     0.23 Bohr mag/cell

     iteration # 18     ecut=    70.00 Ry     beta= 0.70
     Davidson diagonalization with overlap
     ethr =  1.14E-06,  avg # of iterations =  3.0

     negative rho (up, down):  1.332E-03 1.952E-01

     total cpu time spent up to now is     1716.4 secs

     total energy              =    -951.88592774 Ry
     Harris-Foulkes estimate   =    -951.88711494 Ry
     estimated scf accuracy    <       0.03277870 Ry

     total magnetization       =     0.00 Bohr mag/cell
     absolute magnetization    =     0.29 Bohr mag/cell

     iteration # 19     ecut=    70.00 Ry     beta= 0.70
     Davidson diagonalization with overlap
     ethr =  1.14E-06,  avg # of iterations =  2.0

     negative rho (up, down):  1.152E-03 1.360E-01

     total cpu time spent up to now is     1804.0 secs

     total energy              =    -951.88664782 Ry
     Harris-Foulkes estimate   =    -951.88626700 Ry
     estimated scf accuracy    <       0.00297313 Ry

     total magnetization       =    -0.00 Bohr mag/cell
     absolute magnetization    =     0.11 Bohr mag/cell

     iteration # 20     ecut=    70.00 Ry     beta= 0.70
     Davidson diagonalization with overlap
     ethr =  1.14E-06,  avg # of iterations =  3.0

     negative rho (up, down):  1.149E-03 6.852E-02

     total cpu time spent up to now is     1888.6 secs

     total energy              =    -951.88695793 Ry
     Harris-Foulkes estimate   =    -951.88670569 Ry
     estimated scf accuracy    <       0.00051625 Ry

     total magnetization       =    -0.00 Bohr mag/cell
     absolute magnetization    =     0.06 Bohr mag/cell

     iteration # 21     ecut=    70.00 Ry     beta= 0.70
     Davidson diagonalization with overlap
     ethr =  2.39E-07,  avg # of iterations =  2.5

     negative rho (up, down):  1.146E-03 5.270E-02

     total cpu time spent up to now is     1972.2 secs

     total energy              =    -951.88698914 Ry
     Harris-Foulkes estimate   =    -951.88696335 Ry
     estimated scf accuracy    <       0.00070138 Ry

     total magnetization       =     0.00 Bohr mag/cell
     absolute magnetization    =     0.06 Bohr mag/cell

     iteration # 22     ecut=    70.00 Ry     beta= 0.70
     Davidson diagonalization with overlap
     ethr =  2.39E-07,  avg # of iterations =  1.0

     negative rho (up, down):  1.147E-03 3.846E-02

     total cpu time spent up to now is     2053.9 secs

     total energy              =    -951.88700860 Ry
     Harris-Foulkes estimate   =    -951.88699325 Ry
     estimated scf accuracy    <       0.00026672 Ry

     total magnetization       =     0.00 Bohr mag/cell
     absolute magnetization    =     0.05 Bohr mag/cell

     iteration # 23     ecut=    70.00 Ry     beta= 0.70
     Davidson diagonalization with overlap
     ethr =  1.23E-07,  avg # of iterations =  1.5

     negative rho (up, down):  1.150E-03 2.448E-02

     total cpu time spent up to now is     2135.7 secs

     total energy              =    -951.88702030 Ry
     Harris-Foulkes estimate   =    -951.88701594 Ry
     estimated scf accuracy    <       0.00013312 Ry

     total magnetization       =    -0.00 Bohr mag/cell
     absolute magnetization    =     0.03 Bohr mag/cell

     iteration # 24     ecut=    70.00 Ry     beta= 0.70
     Davidson diagonalization with overlap
     ethr =  6.16E-08,  avg # of iterations =  2.0

     negative rho (up, down):  1.148E-03 1.554E-02

     total cpu time spent up to now is     2218.8 secs

     total energy              =    -951.88702858 Ry
     Harris-Foulkes estimate   =    -951.88702913 Ry
     estimated scf accuracy    <       0.00007120 Ry

     total magnetization       =    -0.00 Bohr mag/cell
     absolute magnetization    =     0.02 Bohr mag/cell

     iteration # 25     ecut=    70.00 Ry     beta= 0.70
     Davidson diagonalization with overlap
     ethr =  3.30E-08,  avg # of iterations =  2.0

     negative rho (up, down):  1.149E-03 8.099E-03

     total cpu time spent up to now is     2300.9 secs

     total energy              =    -951.88703443 Ry
     Harris-Foulkes estimate   =    -951.88703195 Ry
     estimated scf accuracy    <       0.00000722 Ry

     total magnetization       =    -0.00 Bohr mag/cell
     absolute magnetization    =     0.02 Bohr mag/cell

     iteration # 26     ecut=    70.00 Ry     beta= 0.70
     Davidson diagonalization with overlap
     ethr =  3.34E-09,  avg # of iterations =  2.5

     negative rho (up, down):  1.149E-03 1.072E-03

     total cpu time spent up to now is     2389.6 secs

     total energy              =    -951.88703597 Ry
     Harris-Foulkes estimate   =    -951.88703548 Ry
     estimated scf accuracy    <       0.00000278 Ry

     total magnetization       =     0.00 Bohr mag/cell
     absolute magnetization    =     0.01 Bohr mag/cell

     iteration # 27     ecut=    70.00 Ry     beta= 0.70
     Davidson diagonalization with overlap
     ethr =  1.29E-09,  avg # of iterations =  3.0

     negative rho (up, down):  1.149E-03 7.826E-04

     total cpu time spent up to now is     2475.2 secs

     total energy              =    -951.88703606 Ry
     Harris-Foulkes estimate   =    -951.88703628 Ry
     estimated scf accuracy    <       0.00000311 Ry

     total magnetization       =    -0.00 Bohr mag/cell
     absolute magnetization    =     0.01 Bohr mag/cell

     iteration # 28     ecut=    70.00 Ry     beta= 0.70
     Davidson diagonalization with overlap
     ethr =  1.29E-09,  avg # of iterations =  2.0

     negative rho (up, down):  1.148E-03 3.293E-03

     total cpu time spent up to now is     2560.0 secs

     total energy              =    -951.88703629 Ry
     Harris-Foulkes estimate   =    -951.88703635 Ry
     estimated scf accuracy    <       0.00000682 Ry

     total magnetization       =     0.00 Bohr mag/cell
     absolute magnetization    =     0.01 Bohr mag/cell

     iteration # 29     ecut=    70.00 Ry     beta= 0.70
     Davidson diagonalization with overlap
     ethr =  1.29E-09,  avg # of iterations =  1.0

     negative rho (up, down):  1.148E-03 4.567E-03

     total cpu time spent up to now is     2641.5 secs

     total energy              =    -951.88703612 Ry
     Harris-Foulkes estimate   =    -951.88703631 Ry
     estimated scf accuracy    <       0.00000689 Ry

     total magnetization       =    -0.00 Bohr mag/cell
     absolute magnetization    =     0.01 Bohr mag/cell

     iteration # 30     ecut=    70.00 Ry     beta= 0.70
     Davidson diagonalization with overlap
     ethr =  1.29E-09,  avg # of iterations =  1.0

     negative rho (up, down):  1.148E-03 4.509E-03

     total cpu time spent up to now is     2723.1 secs

     total energy              =    -951.88703610 Ry
     Harris-Foulkes estimate   =    -951.88703612 Ry
     estimated scf accuracy    <       0.00000551 Ry

     total magnetization       =    -0.00 Bohr mag/cell
     absolute magnetization    =     0.01 Bohr mag/cell

     iteration # 31     ecut=    70.00 Ry     beta= 0.70
     Davidson diagonalization with overlap
     ethr =  1.29E-09,  avg # of iterations =  1.0

     negative rho (up, down):  1.148E-03 4.024E-03

     total cpu time spent up to now is     2804.6 secs

     total energy              =    -951.88703612 Ry
     Harris-Foulkes estimate   =    -951.88703611 Ry
     estimated scf accuracy    <       0.00000430 Ry

     total magnetization       =    -0.00 Bohr mag/cell
     absolute magnetization    =     0.01 Bohr mag/cell

     iteration # 32     ecut=    70.00 Ry     beta= 0.70
     Davidson diagonalization with overlap
     ethr =  1.29E-09,  avg # of iterations =  1.0

     negative rho (up, down):  1.148E-03 3.266E-03

     total cpu time spent up to now is     2886.4 secs

     total energy              =    -951.88703621 Ry
     Harris-Foulkes estimate   =    -951.88703613 Ry
     estimated scf accuracy    <       0.00000304 Ry

     total magnetization       =     0.00 Bohr mag/cell
     absolute magnetization    =     0.01 Bohr mag/cell

     iteration # 33     ecut=    70.00 Ry     beta= 0.70
     Davidson diagonalization with overlap
     ethr =  1.29E-09,  avg # of iterations =  1.0

     negative rho (up, down):  1.148E-03 3.192E-03

     total cpu time spent up to now is     2967.9 secs

     total energy              =    -951.88703620 Ry
     Harris-Foulkes estimate   =    -951.88703621 Ry
     estimated scf accuracy    <       0.00000321 Ry

     total magnetization       =    -0.00 Bohr mag/cell
     absolute magnetization    =     0.01 Bohr mag/cell

     iteration # 34     ecut=    70.00 Ry     beta= 0.70
     Davidson diagonalization with overlap
     ethr =  1.29E-09,  avg # of iterations =  1.0

     negative rho (up, down):  1.148E-03 3.354E-03

     total cpu time spent up to now is     3050.0 secs

     total energy              =    -951.88703634 Ry
     Harris-Foulkes estimate   =    -951.88703622 Ry
     estimated scf accuracy    <       0.00000378 Ry

     total magnetization       =    -0.00 Bohr mag/cell
     absolute magnetization    =     0.01 Bohr mag/cell

     iteration # 35     ecut=    70.00 Ry     beta= 0.70
     Davidson diagonalization with overlap
     ethr =  1.29E-09,  avg # of iterations =  2.0

     negative rho (up, down):  1.148E-03 6.331E-03

     total cpu time spent up to now is     3132.9 secs

     total energy              =    -951.88703601 Ry
     Harris-Foulkes estimate   =    -951.88703644 Ry
     estimated scf accuracy    <       0.00001534 Ry

     total magnetization       =     0.00 Bohr mag/cell
     absolute magnetization    =     0.01 Bohr mag/cell

     iteration # 36     ecut=    70.00 Ry     beta= 0.70
     Davidson diagonalization with overlap
     ethr =  1.29E-09,  avg # of iterations =  2.0

     negative rho (up, down):  1.148E-03 6.463E-03

     total cpu time spent up to now is     3214.8 secs

     total energy              =    -951.88703569 Ry
     Harris-Foulkes estimate   =    -951.88703611 Ry
     estimated scf accuracy    <       0.00001063 Ry

     total magnetization       =     0.00 Bohr mag/cell
     absolute magnetization    =     0.01 Bohr mag/cell

     iteration # 37     ecut=    70.00 Ry     beta= 0.70
     Davidson diagonalization with overlap
     ethr =  1.29E-09,  avg # of iterations =  2.0

     negative rho (up, down):  1.148E-03 3.310E-03

     total cpu time spent up to now is     3298.8 secs

     total energy              =    -951.88703623 Ry
     Harris-Foulkes estimate   =    -951.88703590 Ry
     estimated scf accuracy    <       0.00000130 Ry

     total magnetization       =     0.00 Bohr mag/cell
     absolute magnetization    =     0.00 Bohr mag/cell

     iteration # 38     ecut=    70.00 Ry     beta= 0.70
     Davidson diagonalization with overlap
     ethr =  6.00E-10,  avg # of iterations =  1.5

     negative rho (up, down):  1.148E-03 7.522E-05

     Magnetic moment per site:
     atom:    1    charge:    0.2110    magn:    0.0000    constr:    0.0000
     atom:    2    charge:    0.2121    magn:   -0.0000    constr:    0.0000
     atom:    3    charge:    1.7155    magn:    0.0001    constr:    0.0000
     atom:    4    charge:    1.7152    magn:   -0.0000    constr:    0.0000
     atom:    5    charge:    1.7168    magn:    0.0000    constr:    0.0000
     atom:    6    charge:    1.7146    magn:   -0.0000    constr:    0.0000
     atom:    7    charge:    1.7168    magn:   -0.0000    constr:    0.0000
     atom:    8    charge:    1.7152    magn:   -0.0000    constr:    0.0000
     atom:    9    charge:    1.7155    magn:    0.0000    constr:    0.0000
     atom:   10    charge:    1.7176    magn:   -0.0001    constr:    0.0000
     atom:   11    charge:    1.7155    magn:    0.0001    constr:    0.0000
     atom:   12    charge:    1.7176    magn:   -0.0001    constr:    0.0000
     atom:   13    charge:    1.7155    magn:    0.0001    constr:    0.0000
     atom:   14    charge:    1.7175    magn:   -0.0000    constr:    0.0000
     atom:   15    charge:    1.7117    magn:    0.0000    constr:    0.0000
     atom:   16    charge:    1.7113    magn:   -0.0000    constr:    0.0000
     atom:   17    charge:    1.7206    magn:    0.0000    constr:    0.0000
     atom:   18    charge:    1.7113    magn:   -0.0000    constr:    0.0000
     atom:   19    charge:    1.7117    magn:    0.0000    constr:    0.0000
     atom:   20    charge:    1.7175    magn:   -0.0000    constr:    0.0000
     atom:   21    charge:    1.7156    magn:    0.0000    constr:    0.0000
     atom:   22    charge:    1.7176    magn:   -0.0001    constr:    0.0000
     atom:   23    charge:    1.7155    magn:    0.0000    constr:    0.0000
     atom:   24    charge:    1.7152    magn:   -0.0000    constr:    0.0000
     atom:   25    charge:    1.7117    magn:    0.0000    constr:    0.0000
     atom:   26    charge:    1.7114    magn:   -0.0000    constr:    0.0000
     atom:   27    charge:    1.8186    magn:    0.0000    constr:    0.0000
     atom:   28    charge:   13.4056    magn:    0.0001    constr:    0.0000
     atom:   29    charge:    1.8184    magn:   -0.0000    constr:    0.0000
     atom:   30    charge:    1.7113    magn:   -0.0000    constr:    0.0000
     atom:   31    charge:    1.7117    magn:    0.0000    constr:    0.0000
     atom:   32    charge:    1.7152    magn:   -0.0000    constr:    0.0000
     atom:   33    charge:    1.7168    magn:   -0.0000    constr:    0.0000
     atom:   34    charge:    1.7154    magn:    0.0000    constr:    0.0000
     atom:   35    charge:    1.7168    magn:   -0.0000    constr:    0.0000
     atom:   36    charge:    1.7146    magn:    0.0000    constr:    0.0000
     atom:   37    charge:    1.7205    magn:    0.0000    constr:    0.0000
     atom:   38    charge:    1.7114    magn:   -0.0000    constr:    0.0000
     atom:   39    charge:    1.8186    magn:    0.0000    constr:    0.0000
     atom:   40    charge:    1.7113    magn:   -0.0000    constr:    0.0000
     atom:   41    charge:    1.7206    magn:    0.0000    constr:    0.0000
     atom:   42    charge:    1.7146    magn:   -0.0000    constr:    0.0000
     atom:   43    charge:    1.7168    magn:    0.0000    constr:    0.0000
     atom:   44    charge:    1.7154    magn:   -0.0000    constr:    0.0000
     atom:   45    charge:    1.7211    magn:   -0.0000    constr:    0.0000
     atom:   46    charge:    1.7154    magn:    0.0000    constr:    0.0000
     atom:   47    charge:    1.7168    magn:   -0.0000    constr:    0.0000
     atom:   48    charge:    1.7152    magn:   -0.0000    constr:    0.0000
     atom:   49    charge:    1.7117    magn:    0.0000    constr:    0.0000
     atom:   50    charge:    1.7175    magn:   -0.0000    constr:    0.0000
     atom:   51    charge:    1.7117    magn:    0.0000    constr:    0.0000
     atom:   52    charge:    1.7152    magn:   -0.0000    constr:    0.0000

     total cpu time spent up to now is     3381.3 secs

     End of self-consistent calculation

 ------ SPIN UP ------------


          k = 0.0000 0.0000 0.0000 ( 87777 PWs)   bands (ev):

  -107.9232 -69.0915 -69.0912 -67.0089 -19.8283 -19.0090 -19.0084 -18.8901
   -18.8898 -18.8050 -18.7385 -17.1650 -17.1645 -17.1297 -17.0817 -17.0805
   -16.7551 -16.3140 -16.3135 -16.1676 -16.1672 -16.1538 -15.6724 -14.3129
   -14.3121 -14.1516 -14.0179 -14.0176 -13.5163 -13.1303 -13.1300 -13.0784
   -12.9030 -12.9024 -12.5025 -12.0777 -12.0776 -11.7139 -11.5701 -11.5699
   -10.9367 -10.4343 -10.4342  -9.5789  -9.3673  -9.3670  -9.2278  -9.2130
    -9.2129  -9.1982  -8.9546  -8.9544  -8.5950  -8.5945  -8.4591  -7.9598
    -7.9034  -7.8640  -7.8537  -7.6661  -7.5437  -7.5430  -7.4500  -7.4499
    -6.8928  -6.8477  -6.8226  -6.8213  -6.7479  -6.6211  -6.6205  -6.5568
    -6.5517  -6.5516  -6.5198  -6.4374  -6.4276  -6.4272  -6.3110  -6.2908
    -6.2887  -5.5482  -5.5482  -5.0321  -4.9510  -4.8442  -4.8440  -4.7587
    -4.7175  -4.7172  -4.4208  -4.4001  -4.3997  -3.8376  -3.8375  -3.7656
    -3.7604  -3.7604  -3.6990  -3.4224  -3.4207  -3.3412  -1.8930  -1.8074
    -1.8073  -1.5941  -1.5913  -1.1584   0.1002   0.1007   0.9029   0.9605
     0.9618   1.2094   1.2103   1.5461   2.5019   2.8000   2.8018   2.8516
     3.0338   3.0360   3.4421   3.6118   3.6213   3.7380   3.7407   3.7637
     3.9063   4.2819

     occupation numbers 
     1.0000   1.0000   1.0000   1.0000   1.0000   1.0000   1.0000   1.0000
     1.0000   1.0000   1.0000   1.0000   1.0000   1.0000   1.0000   1.0000
     1.0000   1.0000   1.0000   1.0000   1.0000   1.0000   1.0000   1.0000
     1.0000   1.0000   1.0000   1.0000   1.0000   1.0000   1.0000   1.0000
     1.0000   1.0000   1.0000   1.0000   1.0000   1.0000   1.0000   1.0000
     1.0000   1.0000   1.0000   1.0000   1.0000   1.0000   1.0000   1.0000
     1.0000   1.0000   1.0000   1.0000   1.0000   1.0000   1.0000   1.0000
     1.0000   1.0000   1.0000   1.0000   1.0000   1.0000   1.0000   1.0000
     1.0000   1.0000   1.0000   1.0000   1.0000   1.0000   1.0000   1.0000
     1.0000   1.0000   1.0000   1.0000   1.0000   1.0000   1.0000   1.0000
     1.0000   1.0000   1.0000   1.0000   1.0000   1.0000   1.0000   1.0000
     1.0000   1.0000   1.0000   1.0000   1.0000   1.0000   1.0000   1.0000
     1.0000   1.0000   1.0000   1.0000   1.0000   1.0000   1.0000   1.0000
     1.0000   1.0000   1.0000   1.0000   0.0000   0.0000   0.0000   0.0000
     0.0000   0.0000   0.0000   0.0000   0.0000   0.0000   0.0000   0.0000
     0.0000   0.0000   0.0000   0.0000   0.0000   0.0000   0.0000   0.0000
     0.0000   0.0000

 ------ SPIN DOWN ----------


          k = 0.0000 0.0000 0.0000 ( 87777 PWs)   bands (ev):

  -107.9228 -69.0910 -69.0907 -67.0085 -19.8283 -19.0090 -19.0084 -18.8901
   -18.8898 -18.8050 -18.7386 -17.1650 -17.1645 -17.1297 -17.0817 -17.0805
   -16.7551 -16.3140 -16.3135 -16.1677 -16.1672 -16.1538 -15.6724 -14.3129
   -14.3121 -14.1516 -14.0178 -14.0176 -13.5163 -13.1303 -13.1300 -13.0784
   -12.9031 -12.9024 -12.5025 -12.0776 -12.0776 -11.7139 -11.5701 -11.5699
   -10.9368 -10.4343 -10.4341  -9.5789  -9.3673  -9.3670  -9.2278  -9.2130
    -9.2129  -9.1982  -8.9546  -8.9544  -8.5949  -8.5945  -8.4591  -7.9599
    -7.9034  -7.8639  -7.8536  -7.6661  -7.5437  -7.5431  -7.4500  -7.4498
    -6.8928  -6.8477  -6.8226  -6.8213  -6.7480  -6.6211  -6.6205  -6.5568
    -6.5517  -6.5516  -6.5198  -6.4373  -6.4275  -6.4272  -6.3110  -6.2908
    -6.2887  -5.5482  -5.5482  -5.0321  -4.9510  -4.8442  -4.8440  -4.7587
    -4.7175  -4.7172  -4.4208  -4.4001  -4.3997  -3.8376  -3.8375  -3.7656
    -3.7604  -3.7604  -3.6989  -3.4224  -3.4206  -3.3411  -1.8931  -1.8073
    -1.8071  -1.5942  -1.5914  -1.1584   0.0999   0.1009   0.9028   0.9606
     0.9619   1.2094   1.2102   1.5461   2.5019   2.7999   2.8017   2.8515
     3.0338   3.0360   3.4421   3.6120   3.6211   3.7381   3.7407   3.7637
     3.9062   4.2820

     occupation numbers 
     1.0000   1.0000   1.0000   1.0000   1.0000   1.0000   1.0000   1.0000
     1.0000   1.0000   1.0000   1.0000   1.0000   1.0000   1.0000   1.0000
     1.0000   1.0000   1.0000   1.0000   1.0000   1.0000   1.0000   1.0000
     1.0000   1.0000   1.0000   1.0000   1.0000   1.0000   1.0000   1.0000
     1.0000   1.0000   1.0000   1.0000   1.0000   1.0000   1.0000   1.0000
     1.0000   1.0000   1.0000   1.0000   1.0000   1.0000   1.0000   1.0000
     1.0000   1.0000   1.0000   1.0000   1.0000   1.0000   1.0000   1.0000
     1.0000   1.0000   1.0000   1.0000   1.0000   1.0000   1.0000   1.0000
     1.0000   1.0000   1.0000   1.0000   1.0000   1.0000   1.0000   1.0000
     1.0000   1.0000   1.0000   1.0000   1.0000   1.0000   1.0000   1.0000
     1.0000   1.0000   1.0000   1.0000   1.0000   1.0000   1.0000   1.0000
     1.0000   1.0000   1.0000   1.0000   1.0000   1.0000   1.0000   1.0000
     1.0000   1.0000   1.0000   1.0000   1.0000   1.0000   1.0000   1.0000
     1.0000   1.0000   1.0000   1.0000   0.0000   0.0000   0.0000   0.0000
     0.0000   0.0000   0.0000   0.0000   0.0000   0.0000   0.0000   0.0000
     0.0000   0.0000   0.0000   0.0000   0.0000   0.0000   0.0000   0.0000
     0.0000   0.0000

     the Fermi energy is    -0.9530 ev

!    total energy              =    -951.88703654 Ry
     Harris-Foulkes estimate   =    -951.88703631 Ry
     estimated scf accuracy    <       0.00000072 Ry

     The total energy is the sum of the following terms:

     one-electron contribution =   -2981.83854984 Ry
     hartree contribution      =    1533.55840247 Ry
     xc contribution           =    -265.73152237 Ry
     ewald contribution        =     762.12463320 Ry
     smearing contrib. (-TS)   =       0.00000000 Ry

     total magnetization       =     0.00 Bohr mag/cell
     absolute magnetization    =     0.00 Bohr mag/cell

     convergence has been achieved in  38 iterations

     Writing output data file distance-2.6.save/

     init_run     :     65.56s CPU     66.75s WALL (       1 calls)
     electrons    :   3251.44s CPU   3313.55s WALL (       1 calls)

     Called by init_run:
     wfcinit      :     35.84s CPU     36.14s WALL (       1 calls)
     wfcinit:atom :      0.05s CPU      0.09s WALL (       2 calls)
     wfcinit:wfcr :     35.43s CPU     35.65s WALL (       2 calls)
     potinit      :     12.33s CPU     12.72s WALL (       1 calls)
     hinit0       :      9.82s CPU      9.84s WALL (       1 calls)

     Called by electrons:
     c_bands      :   2020.70s CPU   2031.11s WALL (      38 calls)
     sum_band     :    706.47s CPU    727.15s WALL (      38 calls)
     v_of_rho     :    260.10s CPU    273.76s WALL (      39 calls)
     v_h          :      2.68s CPU      2.73s WALL (      39 calls)
     v_xc         :    257.42s CPU    271.03s WALL (      39 calls)
     newd         :    253.36s CPU    271.17s WALL (      39 calls)
     mix_rho      :     15.66s CPU     15.84s WALL (      38 calls)

     Called by c_bands:
     init_us_2    :      6.43s CPU      6.47s WALL (     154 calls)
     cegterg      :   2004.56s CPU   2014.91s WALL (      76 calls)

     Called by sum_band:
     sum_band:bec :      0.06s CPU      0.06s WALL (      76 calls)
     addusdens    :    442.34s CPU    461.52s WALL (      38 calls)

     Called by *egterg:
     h_psi        :   1057.05s CPU   1064.56s WALL (     263 calls)
     s_psi        :    349.02s CPU    349.10s WALL (     263 calls)
     g_psi        :      1.25s CPU      1.25s WALL (     185 calls)
     cdiaghg      :     16.62s CPU     16.63s WALL (     261 calls)
     cegterg:over :    248.39s CPU    248.44s WALL (     185 calls)
     cegterg:upda :    140.66s CPU    141.40s WALL (     185 calls)
     cegterg:last :    110.54s CPU    110.56s WALL (      76 calls)

     Called by h_psi:
     h_psi:pot    :   1055.79s CPU   1062.01s WALL (     263 calls)
     h_psi:calbec :    348.86s CPU    348.96s WALL (     263 calls)
     vloc_psi     :    357.73s CPU    363.79s WALL (     263 calls)
     add_vuspsi   :    349.20s CPU    349.25s WALL (     263 calls)

     General routines
     calbec       :    506.21s CPU    506.34s WALL (     339 calls)
     fft          :    142.03s CPU    147.00s WALL (    2919 calls)
     ffts         :      2.60s CPU      2.65s WALL (     154 calls)
     fftw         :    386.78s CPU    393.31s WALL (   53834 calls)
     interpolate  :      6.01s CPU      6.12s WALL (      78 calls)

     Parallel routines
     fft_scatt_xy :     93.16s CPU     94.43s WALL (   56907 calls)
     fft_scatt_yz :    175.03s CPU    183.02s WALL (   56907 calls)

     PWSCF        :  55m18.40s CPU  56m22.00s WALL


   This run was terminated on:  14:49:30  24Dec2022            

=------------------------------------------------------------------------------=
   JOB DONE.
=------------------------------------------------------------------------------=
