
     Program PWSCF v.6.4.1 starts on 24Dec2022 at  8:54: 9 

     This program is part of the open-source Quantum ESPRESSO suite
     for quantum simulation of materials; please cite
         "P. Giannozzi et al., J. Phys.:Condens. Matter 21 395502 (2009);
         "P. Giannozzi et al., J. Phys.:Condens. Matter 29 465901 (2017);
          URL http://www.quantum-espresso.org", 
     in publications or presentations arising from this work. More details at
     http://www.quantum-espresso.org/quote

     Parallel version (MPI), running on     6 processors

     MPI processes distributed on     1 nodes
     R & G space division:  proc/nbgrp/npool/nimage =       6
     Reading input from distance-4.5.in

     Current dimensions of program PWSCF are:
     Max number of different atomic species (ntypx) = 10
     Max number of k-points (npk) =  40000
     Max angular momentum in pseudopotentials (lmaxx) =  3

     IMPORTANT: XC functional enforced from input :
     Exchange-correlation      = RVV10 ( 1  4 13  4 3 0)
     Any further DFT definition will be discarded
     Please, verify this is what you really want

               file H.pbe-rrkjus.UPF: wavefunction(s)  1S renormalized

     Subspace diagonalization in iterative solution of the eigenvalue problem:
     a serial algorithm will be used


     Parallelization info
     --------------------
     sticks:   dense  smooth     PW     G-vecs:    dense   smooth      PW
     Min        3051    1746    432               270999   117096   14629
     Max        3053    1747    437               271001   117099   14630
     Sum       18313   10477   2611              1626001   702581   87777



     bravais-lattice index     =            4
     lattice parameter (alat)  =      23.2937  a.u.
     unit-cell volume          =    8879.8548 (a.u.)^3
     number of atoms/cell      =           52
     number of atomic types    =            3
     number of electrons       =       216.00
     number of Kohn-Sham states=          130
     kinetic-energy cutoff     =      70.0000  Ry
     charge density cutoff     =     490.0000  Ry
     convergence threshold     =      1.0E-06
     mixing beta               =       0.7000
     number of iterations used =            8  plain     mixing
     Exchange-correlation      = RVV10 ( 1  4 13  4 3 0)

     celldm(1)=  23.293684  celldm(2)=   0.000000  celldm(3)=   0.811261
     celldm(4)=   0.000000  celldm(5)=   0.000000  celldm(6)=   0.000000

     crystal axes: (cart. coord. in units of alat)
               a(1) = (   1.000000   0.000000   0.000000 )  
               a(2) = (  -0.500000   0.866025   0.000000 )  
               a(3) = (   0.000000   0.000000   0.811261 )  

     reciprocal axes: (cart. coord. in units 2 pi/alat)
               b(1) = (  1.000000  0.577350 -0.000000 )  
               b(2) = (  0.000000  1.154701  0.000000 )  
               b(3) = (  0.000000 -0.000000  1.232649 )  


     PseudoPot. # 1 for H  read from file:
     /home/cristian/Escritorio/Proyecto_Grafeno/pseudopotenciales/H.pbe-rrkjus.UPF
     MD5 check sum: 7cc9d459525c9a0585f487a71c3c9563
     Pseudo is Ultrasoft, Zval =  1.0
     Generated by new atomic code, or converted to UPF format
     Using radial grid of 1061 points,  2 beta functions with: 
                l(1) =   0
                l(2) =   0
     Q(r) pseudized with 0 coefficients 


     PseudoPot. # 2 for C  read from file:
     /home/cristian/Escritorio/Proyecto_Grafeno/pseudopotenciales/C.pbe-n-rrkjus_psl.1.0.0.UPF
     MD5 check sum: 1fdd950c42eb37d8afe3dd2f8d12311e
     Pseudo is Ultrasoft + core correction, Zval =  4.0
     Generated using "atomic" code by A. Dal Corso v.6.3MaX
     Using radial grid of 1073 points,  4 beta functions with: 
                l(1) =   0
                l(2) =   0
                l(3) =   1
                l(4) =   1
     Q(r) pseudized with 0 coefficients 


     PseudoPot. # 3 for Ni read from file:
     /home/cristian/Escritorio/Proyecto_Grafeno/pseudopotenciales/Ni.pbe-spn-rrkjus_psl.1.0.0.UPF
     MD5 check sum: 8b3fc9aac6dafe35f580d41bb18c3945
     Pseudo is Ultrasoft + core correction, Zval = 18.0
     Generated using "atomic" code by A. Dal Corso v.6.3
     Using radial grid of 1195 points,  6 beta functions with: 
                l(1) =   0
                l(2) =   0
                l(3) =   1
                l(4) =   1
                l(5) =   2
                l(6) =   2
     Q(r) pseudized with 0 coefficients 


     vdW kernel table read from file rVV10_kernel_table
     MD5 check sum: b8e2538accc0c0b3206b45ba4daaba6c

     atomic species   valence    mass     pseudopotential
        H              1.00     1.00794     H ( 1.00)
        C              4.00    12.01070     C ( 1.00)
        Ni            18.00    58.69340     Ni( 1.00)

     Starting magnetic structure 
     atomic species   magnetization
        H            0.500
        C            0.300
        Ni           0.800

      2 Sym. Ops. (no inversion) found


                                    s                        frac. trans.

      isym =  1     identity                                     

 cryst.   s( 1) = (     1          0          0      )
                  (     0          1          0      )
                  (     0          0          1      )

 cart.    s( 1) = (  1.0000000  0.0000000  0.0000000 )
                  (  0.0000000  1.0000000  0.0000000 )
                  (  0.0000000  0.0000000  1.0000000 )


      isym =  2     inv. 180 deg rotation - cryst. axis [1,1,0]  

 cryst.   s( 2) = (     0         -1          0      )
                  (    -1          0          0      )
                  (     0          0          1      )

 cart.    s( 2) = (  0.5000000 -0.8660254  0.0000000 )
                  ( -0.8660254 -0.5000000  0.0000000 )
                  (  0.0000000  0.0000000  1.0000000 )


     point group C_s (m)    
     there are  2 classes
     the character table:

       E     s    
A'     1.00  1.00
A''    1.00 -1.00

     the symmetry operations in each class and the name of the first element:

     E        1
          identity                                               
     s        2
          inv. 180 deg rotation - cryst. axis [1,1,0]            

   Cartesian axes

     site n.     atom                  positions (alat units)
         1           H   tau(   1) = (   0.2500000   0.4330127   0.3650675  )
         2           H   tau(   2) = (   0.2500000   0.4330127   0.4260802  )
         3           C   tau(   3) = (   0.0000000   0.0000000   0.0000000  )
         4           C   tau(   4) = (   0.0000000   0.1154701   0.0000000  )
         5           C   tau(   5) = (  -0.1000000   0.1732051   0.0000000  )
         6           C   tau(   6) = (  -0.1000000   0.2886751   0.0000000  )
         7           C   tau(   7) = (  -0.2000000   0.3464102   0.0000000  )
         8           C   tau(   8) = (  -0.2000000   0.4618802   0.0000000  )
         9           C   tau(   9) = (  -0.3000000   0.5196152   0.0000000  )
        10           C   tau(  10) = (  -0.3000000   0.6350853   0.0000000  )
        11           C   tau(  11) = (  -0.4000000   0.6928203   0.0000000  )
        12           C   tau(  12) = (  -0.4000000   0.8082904   0.0000000  )
        13           C   tau(  13) = (   0.2000000   0.0000000   0.0000000  )
        14           C   tau(  14) = (   0.2000000   0.1154701   0.0000000  )
        15           C   tau(  15) = (   0.1000000   0.1732051   0.0000000  )
        16           C   tau(  16) = (   0.1000000   0.2886751   0.0000000  )
        17           C   tau(  17) = (   0.0000000   0.3464102   0.0000000  )
        18           C   tau(  18) = (   0.0000000   0.4618802   0.0000000  )
        19           C   tau(  19) = (  -0.1000000   0.5196152   0.0000000  )
        20           C   tau(  20) = (  -0.1000000   0.6350853   0.0000000  )
        21           C   tau(  21) = (  -0.2000000   0.6928203   0.0000000  )
        22           C   tau(  22) = (  -0.2000000   0.8082904   0.0000000  )
        23           C   tau(  23) = (   0.4000000   0.0000000   0.0000000  )
        24           C   tau(  24) = (   0.4000000   0.1154701   0.0000000  )
        25           C   tau(  25) = (   0.3000000   0.1732051   0.0000000  )
        26           C   tau(  26) = (   0.3000000   0.2886751   0.0000000  )
        27           C   tau(  27) = (   0.2000000   0.3464102   0.0000000  )
        28           Ni  tau(  28) = (   0.2000000   0.4618802   0.0000000  )
        29           C   tau(  29) = (   0.1000000   0.5196152   0.0000000  )
        30           C   tau(  30) = (   0.1000000   0.6350853   0.0000000  )
        31           C   tau(  31) = (   0.0000000   0.6928203   0.0000000  )
        32           C   tau(  32) = (   0.0000000   0.8082904   0.0000000  )
        33           C   tau(  33) = (   0.6000000   0.0000000   0.0000000  )
        34           C   tau(  34) = (   0.6000000   0.1154701   0.0000000  )
        35           C   tau(  35) = (   0.5000000   0.1732051   0.0000000  )
        36           C   tau(  36) = (   0.5000000   0.2886751   0.0000000  )
        37           C   tau(  37) = (   0.4000000   0.3464102   0.0000000  )
        38           C   tau(  38) = (   0.4000000   0.4618802   0.0000000  )
        39           C   tau(  39) = (   0.3000000   0.5196152   0.0000000  )
        40           C   tau(  40) = (   0.3000000   0.6350853   0.0000000  )
        41           C   tau(  41) = (   0.2000000   0.6928203   0.0000000  )
        42           C   tau(  42) = (   0.2000000   0.8082904   0.0000000  )
        43           C   tau(  43) = (   0.8000000   0.0000000   0.0000000  )
        44           C   tau(  44) = (   0.8000000   0.1154701   0.0000000  )
        45           C   tau(  45) = (   0.7000000   0.1732051   0.0000000  )
        46           C   tau(  46) = (   0.7000000   0.2886751   0.0000000  )
        47           C   tau(  47) = (   0.6000000   0.3464102   0.0000000  )
        48           C   tau(  48) = (   0.6000000   0.4618802   0.0000000  )
        49           C   tau(  49) = (   0.5000000   0.5196152   0.0000000  )
        50           C   tau(  50) = (   0.5000000   0.6350853   0.0000000  )
        51           C   tau(  51) = (   0.4000000   0.6928203   0.0000000  )
        52           C   tau(  52) = (   0.4000000   0.8082904   0.0000000  )

   Crystallographic axes

     site n.     atom                  positions (cryst. coord.)
         1           H   tau(   1) = (  0.5000000  0.5000000  0.4500000  )
         2           H   tau(   2) = (  0.5000000  0.5000000  0.5252072  )
         3           C   tau(   3) = (  0.0000000  0.0000000  0.0000000  )
         4           C   tau(   4) = (  0.0666667  0.1333333  0.0000000  )
         5           C   tau(   5) = (  0.0000000  0.2000000  0.0000000  )
         6           C   tau(   6) = (  0.0666667  0.3333333  0.0000000  )
         7           C   tau(   7) = (  0.0000000  0.4000000  0.0000000  )
         8           C   tau(   8) = (  0.0666667  0.5333333  0.0000000  )
         9           C   tau(   9) = (  0.0000000  0.6000000  0.0000000  )
        10           C   tau(  10) = (  0.0666667  0.7333333  0.0000000  )
        11           C   tau(  11) = (  0.0000000  0.8000000  0.0000000  )
        12           C   tau(  12) = (  0.0666667  0.9333333  0.0000000  )
        13           C   tau(  13) = (  0.2000000  0.0000000  0.0000000  )
        14           C   tau(  14) = (  0.2666667  0.1333333  0.0000000  )
        15           C   tau(  15) = (  0.2000000  0.2000000  0.0000000  )
        16           C   tau(  16) = (  0.2666667  0.3333333  0.0000000  )
        17           C   tau(  17) = (  0.2000000  0.4000000  0.0000000  )
        18           C   tau(  18) = (  0.2666667  0.5333333  0.0000000  )
        19           C   tau(  19) = (  0.2000000  0.6000000  0.0000000  )
        20           C   tau(  20) = (  0.2666667  0.7333333  0.0000000  )
        21           C   tau(  21) = (  0.2000000  0.8000000  0.0000000  )
        22           C   tau(  22) = (  0.2666667  0.9333333  0.0000000  )
        23           C   tau(  23) = (  0.4000000  0.0000000  0.0000000  )
        24           C   tau(  24) = (  0.4666667  0.1333333  0.0000000  )
        25           C   tau(  25) = (  0.4000000  0.2000000  0.0000000  )
        26           C   tau(  26) = (  0.4666667  0.3333333  0.0000000  )
        27           C   tau(  27) = (  0.4000000  0.4000000  0.0000000  )
        28           Ni  tau(  28) = (  0.4666667  0.5333333  0.0000000  )
        29           C   tau(  29) = (  0.4000000  0.6000000  0.0000000  )
        30           C   tau(  30) = (  0.4666667  0.7333333  0.0000000  )
        31           C   tau(  31) = (  0.4000000  0.8000000  0.0000000  )
        32           C   tau(  32) = (  0.4666667  0.9333333  0.0000000  )
        33           C   tau(  33) = (  0.6000000  0.0000000  0.0000000  )
        34           C   tau(  34) = (  0.6666667  0.1333333  0.0000000  )
        35           C   tau(  35) = (  0.6000000  0.2000000  0.0000000  )
        36           C   tau(  36) = (  0.6666667  0.3333333  0.0000000  )
        37           C   tau(  37) = (  0.6000000  0.4000000  0.0000000  )
        38           C   tau(  38) = (  0.6666667  0.5333333  0.0000000  )
        39           C   tau(  39) = (  0.6000000  0.6000000  0.0000000  )
        40           C   tau(  40) = (  0.6666667  0.7333333  0.0000000  )
        41           C   tau(  41) = (  0.6000000  0.8000000  0.0000000  )
        42           C   tau(  42) = (  0.6666667  0.9333333  0.0000000  )
        43           C   tau(  43) = (  0.8000000  0.0000000  0.0000000  )
        44           C   tau(  44) = (  0.8666667  0.1333333  0.0000000  )
        45           C   tau(  45) = (  0.8000000  0.2000000  0.0000000  )
        46           C   tau(  46) = (  0.8666667  0.3333333  0.0000000  )
        47           C   tau(  47) = (  0.8000000  0.4000000  0.0000000  )
        48           C   tau(  48) = (  0.8666667  0.5333333  0.0000000  )
        49           C   tau(  49) = (  0.8000000  0.6000000  0.0000000  )
        50           C   tau(  50) = (  0.8666667  0.7333333  0.0000000  )
        51           C   tau(  51) = (  0.8000000  0.8000000  0.0000000  )
        52           C   tau(  52) = (  0.8666667  0.9333333  0.0000000  )

     number of k points=     1  Marzari-Vanderbilt smearing, width (Ry)=  0.0010
                       cart. coord. in units 2pi/alat
        k(    1) = (   0.0000000   0.0000000   0.0000000), wk =   1.0000000

                       cryst. coord.
        k(    1) = (   0.0000000   0.0000000   0.0000000), wk =   1.0000000

     Dense  grid:  1626001 G-vectors     FFT dimensions: ( 180, 180, 135)

     Smooth grid:   702581 G-vectors     FFT dimensions: ( 125, 125, 108)

     Dynamical RAM for                 wfc:      29.03 MB

     Dynamical RAM for     wfc (w. buffer):      87.10 MB

     Dynamical RAM for           str. fact:      12.41 MB

     Dynamical RAM for           local pot:       0.00 MB

     Dynamical RAM for          nlocal pot:      92.46 MB

     Dynamical RAM for                qrad:      19.73 MB

     Dynamical RAM for          rho,v,vnew:      58.92 MB

     Dynamical RAM for               rhoin:      19.64 MB

     Dynamical RAM for            rho*nmix:     132.32 MB

     Dynamical RAM for           G-vectors:      16.40 MB

     Dynamical RAM for          h,s,v(r/c):      12.38 MB

     Dynamical RAM for          <psi|beta>:       0.82 MB

     Dynamical RAM for                 psi:     116.14 MB

     Dynamical RAM for                hpsi:     116.14 MB

     Dynamical RAM for                spsi:     116.14 MB

     Dynamical RAM for      wfcinit/wfcrot:      93.90 MB

     Dynamical RAM for           addusdens:     975.89 MB

     Estimated static dynamical RAM per process >     489.64 MB

     Estimated max dynamical RAM per process >       1.43 GB

     Estimated total dynamical RAM >       8.59 GB
     Generating pointlists ...
     new r_m :   0.0252 (alat units)  0.5862 (a.u.) for type    1
     new r_m :   0.0476 (alat units)  1.1095 (a.u.) for type    2
     new r_m :   0.0476 (alat units)  1.1095 (a.u.) for type    3

     Check: negative core charge=   -0.000002

     Initial potential from superposition of free atoms

     starting charge  215.80530, renormalised to  216.00000

     negative rho (up, down):  1.342E-04 1.291E-02


---------------------------------------------------------------------------------
Carrying out rVV10 run using the following parameters:
Nqs =      20    Nr_points =    1024   r_max =   100.000
b_value =  6.30000    beta =  0.00901
     q_mesh =  0.00010000  0.00030000  0.00058939  0.00100810
               0.00161396  0.00249058  0.00375900  0.00559430
               0.00824984  0.01209221  0.01765183  0.02569619
               0.03733578  0.05417739  0.07854596  0.11380545
               0.16482331  0.23864234  0.34545298  0.50000000

Gradients computed in Reciprocal space

---------------------------------------------------------------------------------


     Starting wfcs are  208 randomized atomic wfcs

     total cpu time spent up to now is       73.3 secs

     Self-consistent Calculation

     iteration #  1     ecut=    70.00 Ry     beta= 0.70
     Davidson diagonalization with overlap
     ethr =  1.00E-02,  avg # of iterations =  4.5

     negative rho (up, down):  2.326E-04 1.143E-02

     total cpu time spent up to now is      205.9 secs

     total energy              =    -946.55353665 Ry
     Harris-Foulkes estimate   =    -949.78068767 Ry
     estimated scf accuracy    <      14.37831119 Ry

     total magnetization       =     6.00 Bohr mag/cell
     absolute magnetization    =     6.78 Bohr mag/cell

     iteration #  2     ecut=    70.00 Ry     beta= 0.70
     Davidson diagonalization with overlap
     ethr =  6.66E-03,  avg # of iterations =  4.0

     negative rho (up, down):  4.380E-04 3.737E-02

     total cpu time spent up to now is      324.6 secs

     total energy              =    -945.85385391 Ry
     Harris-Foulkes estimate   =    -957.78677722 Ry
     estimated scf accuracy    <      33.10107090 Ry

     total magnetization       =     4.00 Bohr mag/cell
     absolute magnetization    =     4.45 Bohr mag/cell

     iteration #  3     ecut=    70.00 Ry     beta= 0.70
     Davidson diagonalization with overlap
     ethr =  6.66E-03,  avg # of iterations =  5.0

     negative rho (up, down):  5.373E-04 1.001E-01

     total cpu time spent up to now is      426.2 secs

     total energy              =    -948.19861846 Ry
     Harris-Foulkes estimate   =    -952.81163254 Ry
     estimated scf accuracy    <      15.71410142 Ry

     total magnetization       =     4.00 Bohr mag/cell
     absolute magnetization    =     5.31 Bohr mag/cell

     iteration #  4     ecut=    70.00 Ry     beta= 0.70
     Davidson diagonalization with overlap
     ethr =  6.66E-03,  avg # of iterations =  3.0

     negative rho (up, down):  8.922E-02 4.369E-01

     total cpu time spent up to now is      536.6 secs

     total energy              =    -955.06683417 Ry
     Harris-Foulkes estimate   =    -954.48530354 Ry
     estimated scf accuracy    <     115.54497447 Ry

     total magnetization       =     4.00 Bohr mag/cell
     absolute magnetization    =    17.96 Bohr mag/cell

     iteration #  5     ecut=    70.00 Ry     beta= 0.70
     Davidson diagonalization with overlap
     ethr =  6.66E-03,  avg # of iterations =  1.5

     negative rho (up, down):  1.476E-01 5.027E-01

     total cpu time spent up to now is      628.4 secs

     total energy              =    -949.11461866 Ry
     Harris-Foulkes estimate   =    -955.18992791 Ry
     estimated scf accuracy    <     168.16244927 Ry

     total magnetization       =     4.00 Bohr mag/cell
     absolute magnetization    =    21.38 Bohr mag/cell

     iteration #  6     ecut=    70.00 Ry     beta= 0.70
     Davidson diagonalization with overlap
     ethr =  6.66E-03,  avg # of iterations =  2.5

     negative rho (up, down):  9.328E-03 4.323E-01

     total cpu time spent up to now is      730.8 secs

     total energy              =    -953.02854961 Ry
     Harris-Foulkes estimate   =    -951.90229809 Ry
     estimated scf accuracy    <      19.58921740 Ry

     total magnetization       =     2.00 Bohr mag/cell
     absolute magnetization    =     7.53 Bohr mag/cell

     iteration #  7     ecut=    70.00 Ry     beta= 0.70
     Davidson diagonalization with overlap
     ethr =  6.66E-03,  avg # of iterations =  2.5

     negative rho (up, down):  9.979E-02 4.659E-01

     total cpu time spent up to now is      829.7 secs

     total energy              =    -948.38525459 Ry
     Harris-Foulkes estimate   =    -954.68915309 Ry
     estimated scf accuracy    <     192.11384482 Ry

     total magnetization       =     2.00 Bohr mag/cell
     absolute magnetization    =    21.56 Bohr mag/cell

     iteration #  8     ecut=    70.00 Ry     beta= 0.70
     Davidson diagonalization with overlap
     ethr =  6.66E-03,  avg # of iterations =  2.0

     negative rho (up, down):  3.529E-02 3.436E-01

     total cpu time spent up to now is      931.0 secs

     total energy              =    -951.70908058 Ry
     Harris-Foulkes estimate   =    -951.65610140 Ry
     estimated scf accuracy    <       2.25254284 Ry

     total magnetization       =    -0.00 Bohr mag/cell
     absolute magnetization    =     2.29 Bohr mag/cell

     iteration #  9     ecut=    70.00 Ry     beta= 0.70
     Davidson diagonalization with overlap
     ethr =  1.04E-03,  avg # of iterations =  2.5

     negative rho (up, down):  3.105E-02 2.777E-01

     total cpu time spent up to now is     1027.5 secs

     total energy              =    -951.77124079 Ry
     Harris-Foulkes estimate   =    -951.89230360 Ry
     estimated scf accuracy    <       3.43148121 Ry

     total magnetization       =     0.00 Bohr mag/cell
     absolute magnetization    =     1.70 Bohr mag/cell

     iteration # 10     ecut=    70.00 Ry     beta= 0.70
     Davidson diagonalization with overlap
     ethr =  1.04E-03,  avg # of iterations =  2.5

     negative rho (up, down):  1.149E-02 2.316E-01

     total cpu time spent up to now is     1122.6 secs

     total energy              =    -951.82086787 Ry
     Harris-Foulkes estimate   =    -951.91015889 Ry
     estimated scf accuracy    <       0.83368380 Ry

     total magnetization       =    -0.00 Bohr mag/cell
     absolute magnetization    =     1.01 Bohr mag/cell

     iteration # 11     ecut=    70.00 Ry     beta= 0.70
     Davidson diagonalization with overlap
     ethr =  3.86E-04,  avg # of iterations =  2.0

     negative rho (up, down):  8.822E-03 1.721E-01

     total cpu time spent up to now is     1217.2 secs

     total energy              =    -951.85881006 Ry
     Harris-Foulkes estimate   =    -951.89029729 Ry
     estimated scf accuracy    <       0.50726531 Ry

     total magnetization       =    -0.00 Bohr mag/cell
     absolute magnetization    =     0.87 Bohr mag/cell

     iteration # 12     ecut=    70.00 Ry     beta= 0.70
     Davidson diagonalization with overlap
     ethr =  2.35E-04,  avg # of iterations =  2.0

     negative rho (up, down):  4.897E-03 1.884E-01

     total cpu time spent up to now is     1311.5 secs

     total energy              =    -951.88034025 Ry
     Harris-Foulkes estimate   =    -951.88754661 Ry
     estimated scf accuracy    <       0.24300802 Ry

     total magnetization       =    -0.00 Bohr mag/cell
     absolute magnetization    =     0.63 Bohr mag/cell

     iteration # 13     ecut=    70.00 Ry     beta= 0.70
     Davidson diagonalization with overlap
     ethr =  1.13E-04,  avg # of iterations =  8.5

     negative rho (up, down):  4.197E-03 1.005E-01

     total cpu time spent up to now is     1413.7 secs

     total energy              =    -951.88317524 Ry
     Harris-Foulkes estimate   =    -951.88433098 Ry
     estimated scf accuracy    <       0.02948913 Ry

     total magnetization       =    -0.00 Bohr mag/cell
     absolute magnetization    =     0.25 Bohr mag/cell

     iteration # 14     ecut=    70.00 Ry     beta= 0.70
     Davidson diagonalization with overlap
     ethr =  1.37E-05,  avg # of iterations =  7.0

     negative rho (up, down):  1.370E-03 5.664E-02

     total cpu time spent up to now is     1512.2 secs

     total energy              =    -951.88555606 Ry
     Harris-Foulkes estimate   =    -951.88506294 Ry
     estimated scf accuracy    <       0.00857409 Ry

     total magnetization       =     0.00 Bohr mag/cell
     absolute magnetization    =     0.20 Bohr mag/cell

     iteration # 15     ecut=    70.00 Ry     beta= 0.70
     Davidson diagonalization with overlap
     ethr =  3.97E-06,  avg # of iterations =  3.5

     negative rho (up, down):  1.217E-03 6.946E-02

     total cpu time spent up to now is     1610.4 secs

     total energy              =    -951.88599317 Ry
     Harris-Foulkes estimate   =    -951.88595992 Ry
     estimated scf accuracy    <       0.00597414 Ry

     total magnetization       =    -0.00 Bohr mag/cell
     absolute magnetization    =     0.14 Bohr mag/cell

     iteration # 16     ecut=    70.00 Ry     beta= 0.70
     Davidson diagonalization with overlap
     ethr =  2.77E-06,  avg # of iterations =  2.5

     negative rho (up, down):  1.153E-03 1.430E-01

     total cpu time spent up to now is     1705.1 secs

     total energy              =    -951.88580063 Ry
     Harris-Foulkes estimate   =    -951.88620029 Ry
     estimated scf accuracy    <       0.01632590 Ry

     total magnetization       =    -0.00 Bohr mag/cell
     absolute magnetization    =     0.23 Bohr mag/cell

     iteration # 17     ecut=    70.00 Ry     beta= 0.70
     Davidson diagonalization with overlap
     ethr =  2.77E-06,  avg # of iterations =  3.0

     negative rho (up, down):  1.062E-03 1.439E-01

     total cpu time spent up to now is     1799.6 secs

     total energy              =    -951.88545788 Ry
     Harris-Foulkes estimate   =    -951.88586564 Ry
     estimated scf accuracy    <       0.01075479 Ry

     total magnetization       =    -0.00 Bohr mag/cell
     absolute magnetization    =     0.19 Bohr mag/cell

     iteration # 18     ecut=    70.00 Ry     beta= 0.70
     Davidson diagonalization with overlap
     ethr =  2.77E-06,  avg # of iterations =  2.0

     negative rho (up, down):  1.043E-03 7.814E-02

     total cpu time spent up to now is     1893.1 secs

     total energy              =    -951.88598946 Ry
     Harris-Foulkes estimate   =    -951.88565365 Ry
     estimated scf accuracy    <       0.00145475 Ry

     total magnetization       =     0.00 Bohr mag/cell
     absolute magnetization    =     0.08 Bohr mag/cell

     iteration # 19     ecut=    70.00 Ry     beta= 0.70
     Davidson diagonalization with overlap
     ethr =  6.73E-07,  avg # of iterations =  3.0

     negative rho (up, down):  1.049E-03 7.194E-02

     total cpu time spent up to now is     1987.8 secs

     total energy              =    -951.88604523 Ry
     Harris-Foulkes estimate   =    -951.88603506 Ry
     estimated scf accuracy    <       0.00232032 Ry

     total magnetization       =    -0.00 Bohr mag/cell
     absolute magnetization    =     0.09 Bohr mag/cell

     iteration # 20     ecut=    70.00 Ry     beta= 0.70
     Davidson diagonalization with overlap
     ethr =  6.73E-07,  avg # of iterations =  1.5

     negative rho (up, down):  1.023E-03 7.864E-02

     total cpu time spent up to now is     2080.3 secs

     total energy              =    -951.88623699 Ry
     Harris-Foulkes estimate   =    -951.88608294 Ry
     estimated scf accuracy    <       0.00335644 Ry

     total magnetization       =    -0.00 Bohr mag/cell
     absolute magnetization    =     0.10 Bohr mag/cell

     iteration # 21     ecut=    70.00 Ry     beta= 0.70
     Davidson diagonalization with overlap
     ethr =  6.73E-07,  avg # of iterations =  2.5

     negative rho (up, down):  1.082E-03 1.531E-01

     total cpu time spent up to now is     2179.8 secs

     total energy              =    -951.88502775 Ry
     Harris-Foulkes estimate   =    -951.88644923 Ry
     estimated scf accuracy    <       0.02662953 Ry

     total magnetization       =    -0.00 Bohr mag/cell
     absolute magnetization    =     0.28 Bohr mag/cell

     iteration # 22     ecut=    70.00 Ry     beta= 0.70
     Davidson diagonalization with overlap
     ethr =  6.73E-07,  avg # of iterations =  3.0

     negative rho (up, down):  1.118E-03 7.904E-02

     total cpu time spent up to now is     2284.6 secs

     total energy              =    -951.88589762 Ry
     Harris-Foulkes estimate   =    -951.88550399 Ry
     estimated scf accuracy    <       0.00137210 Ry

     total magnetization       =     0.00 Bohr mag/cell
     absolute magnetization    =     0.07 Bohr mag/cell

     iteration # 23     ecut=    70.00 Ry     beta= 0.70
     Davidson diagonalization with overlap
     ethr =  6.35E-07,  avg # of iterations =  2.0

     negative rho (up, down):  1.026E-03 2.348E-02

     total cpu time spent up to now is     2379.5 secs

     total energy              =    -951.88609975 Ry
     Harris-Foulkes estimate   =    -951.88594066 Ry
     estimated scf accuracy    <       0.00001896 Ry

     total magnetization       =     0.00 Bohr mag/cell
     absolute magnetization    =     0.02 Bohr mag/cell

     iteration # 24     ecut=    70.00 Ry     beta= 0.70
     Davidson diagonalization with overlap
     ethr =  8.78E-09,  avg # of iterations =  3.5

     negative rho (up, down):  1.019E-03 6.988E-03

     total cpu time spent up to now is     2489.5 secs

     total energy              =    -951.88611597 Ry
     Harris-Foulkes estimate   =    -951.88610431 Ry
     estimated scf accuracy    <       0.00001309 Ry

     total magnetization       =     0.00 Bohr mag/cell
     absolute magnetization    =     0.02 Bohr mag/cell

     iteration # 25     ecut=    70.00 Ry     beta= 0.70
     Davidson diagonalization with overlap
     ethr =  6.06E-09,  avg # of iterations =  2.0

     negative rho (up, down):  1.020E-03 4.663E-03

     total cpu time spent up to now is     2583.5 secs

     total energy              =    -951.88611623 Ry
     Harris-Foulkes estimate   =    -951.88611743 Ry
     estimated scf accuracy    <       0.00002063 Ry

     total magnetization       =     0.00 Bohr mag/cell
     absolute magnetization    =     0.01 Bohr mag/cell

     iteration # 26     ecut=    70.00 Ry     beta= 0.70
     Davidson diagonalization with overlap
     ethr =  6.06E-09,  avg # of iterations =  2.0

     negative rho (up, down):  1.018E-03 4.324E-03

     total cpu time spent up to now is     2676.8 secs

     total energy              =    -951.88611841 Ry
     Harris-Foulkes estimate   =    -951.88611732 Ry
     estimated scf accuracy    <       0.00001243 Ry

     total magnetization       =     0.00 Bohr mag/cell
     absolute magnetization    =     0.01 Bohr mag/cell

     iteration # 27     ecut=    70.00 Ry     beta= 0.70
     Davidson diagonalization with overlap
     ethr =  5.76E-09,  avg # of iterations =  1.5

     negative rho (up, down):  1.018E-03 8.730E-03

     total cpu time spent up to now is     2770.7 secs

     total energy              =    -951.88611693 Ry
     Harris-Foulkes estimate   =    -951.88611858 Ry
     estimated scf accuracy    <       0.00002939 Ry

     total magnetization       =    -0.00 Bohr mag/cell
     absolute magnetization    =     0.02 Bohr mag/cell

     iteration # 28     ecut=    70.00 Ry     beta= 0.70
     Davidson diagonalization with overlap
     ethr =  5.76E-09,  avg # of iterations =  2.0

     negative rho (up, down):  1.018E-03 5.068E-03

     total cpu time spent up to now is     2865.8 secs

     total energy              =    -951.88611785 Ry
     Harris-Foulkes estimate   =    -951.88611736 Ry
     estimated scf accuracy    <       0.00000677 Ry

     total magnetization       =    -0.00 Bohr mag/cell
     absolute magnetization    =     0.01 Bohr mag/cell

     iteration # 29     ecut=    70.00 Ry     beta= 0.70
     Davidson diagonalization with overlap
     ethr =  3.14E-09,  avg # of iterations =  2.0

     negative rho (up, down):  1.018E-03 4.293E-03

     total cpu time spent up to now is     2960.2 secs

     total energy              =    -951.88611816 Ry
     Harris-Foulkes estimate   =    -951.88611822 Ry
     estimated scf accuracy    <       0.00000491 Ry

     total magnetization       =     0.00 Bohr mag/cell
     absolute magnetization    =     0.01 Bohr mag/cell

     iteration # 30     ecut=    70.00 Ry     beta= 0.70
     Davidson diagonalization with overlap
     ethr =  2.27E-09,  avg # of iterations =  2.0

     negative rho (up, down):  1.018E-03 1.670E-03

     total cpu time spent up to now is     3052.4 secs

     total energy              =    -951.88611859 Ry
     Harris-Foulkes estimate   =    -951.88611846 Ry
     estimated scf accuracy    <       0.00000175 Ry

     total magnetization       =     0.00 Bohr mag/cell
     absolute magnetization    =     0.01 Bohr mag/cell

     iteration # 31     ecut=    70.00 Ry     beta= 0.70
     Davidson diagonalization with overlap
     ethr =  8.12E-10,  avg # of iterations =  2.0

     negative rho (up, down):  1.018E-03 2.760E-03

     total cpu time spent up to now is     3152.7 secs

     total energy              =    -951.88611859 Ry
     Harris-Foulkes estimate   =    -951.88611876 Ry
     estimated scf accuracy    <       0.00000554 Ry

     total magnetization       =     0.00 Bohr mag/cell
     absolute magnetization    =     0.01 Bohr mag/cell

     iteration # 32     ecut=    70.00 Ry     beta= 0.70
     Davidson diagonalization with overlap
     ethr =  8.12E-10,  avg # of iterations =  1.5

     negative rho (up, down):  1.018E-03 2.606E-03

     total cpu time spent up to now is     3249.1 secs

     total energy              =    -951.88611864 Ry
     Harris-Foulkes estimate   =    -951.88611860 Ry
     estimated scf accuracy    <       0.00000252 Ry

     total magnetization       =    -0.00 Bohr mag/cell
     absolute magnetization    =     0.01 Bohr mag/cell

     iteration # 33     ecut=    70.00 Ry     beta= 0.70
     Davidson diagonalization with overlap
     ethr =  8.12E-10,  avg # of iterations =  1.5

     negative rho (up, down):  1.018E-03 2.660E-03

     total cpu time spent up to now is     3345.5 secs

     total energy              =    -951.88611853 Ry
     Harris-Foulkes estimate   =    -951.88611867 Ry
     estimated scf accuracy    <       0.00000315 Ry

     total magnetization       =    -0.00 Bohr mag/cell
     absolute magnetization    =     0.01 Bohr mag/cell

     iteration # 34     ecut=    70.00 Ry     beta= 0.70
     Davidson diagonalization with overlap
     ethr =  8.12E-10,  avg # of iterations =  2.0

     negative rho (up, down):  1.017E-03 1.349E-05

     Magnetic moment per site:
     atom:    1    charge:    0.2114    magn:   -0.0000    constr:    0.0000
     atom:    2    charge:    0.2112    magn:    0.0000    constr:    0.0000
     atom:    3    charge:    1.7155    magn:   -0.0000    constr:    0.0000
     atom:    4    charge:    1.7152    magn:    0.0000    constr:    0.0000
     atom:    5    charge:    1.7168    magn:   -0.0000    constr:    0.0000
     atom:    6    charge:    1.7146    magn:    0.0000    constr:    0.0000
     atom:    7    charge:    1.7168    magn:   -0.0000    constr:    0.0000
     atom:    8    charge:    1.7152    magn:    0.0000    constr:    0.0000
     atom:    9    charge:    1.7155    magn:    0.0000    constr:    0.0000
     atom:   10    charge:    1.7177    magn:   -0.0000    constr:    0.0000
     atom:   11    charge:    1.7155    magn:    0.0000    constr:    0.0000
     atom:   12    charge:    1.7177    magn:   -0.0000    constr:    0.0000
     atom:   13    charge:    1.7155    magn:    0.0000    constr:    0.0000
     atom:   14    charge:    1.7175    magn:    0.0000    constr:    0.0000
     atom:   15    charge:    1.7117    magn:   -0.0000    constr:    0.0000
     atom:   16    charge:    1.7114    magn:    0.0000    constr:    0.0000
     atom:   17    charge:    1.7206    magn:   -0.0000    constr:    0.0000
     atom:   18    charge:    1.7114    magn:    0.0000    constr:    0.0000
     atom:   19    charge:    1.7118    magn:   -0.0000    constr:    0.0000
     atom:   20    charge:    1.7175    magn:    0.0000    constr:    0.0000
     atom:   21    charge:    1.7155    magn:    0.0000    constr:    0.0000
     atom:   22    charge:    1.7177    magn:   -0.0000    constr:    0.0000
     atom:   23    charge:    1.7155    magn:    0.0000    constr:    0.0000
     atom:   24    charge:    1.7152    magn:    0.0000    constr:    0.0000
     atom:   25    charge:    1.7118    magn:   -0.0000    constr:    0.0000
     atom:   26    charge:    1.7114    magn:    0.0000    constr:    0.0000
     atom:   27    charge:    1.8182    magn:   -0.0000    constr:    0.0000
     atom:   28    charge:   13.4052    magn:    0.0001    constr:    0.0000
     atom:   29    charge:    1.8182    magn:   -0.0000    constr:    0.0000
     atom:   30    charge:    1.7114    magn:    0.0000    constr:    0.0000
     atom:   31    charge:    1.7118    magn:   -0.0000    constr:    0.0000
     atom:   32    charge:    1.7152    magn:    0.0000    constr:    0.0000
     atom:   33    charge:    1.7168    magn:   -0.0000    constr:    0.0000
     atom:   34    charge:    1.7154    magn:    0.0000    constr:    0.0000
     atom:   35    charge:    1.7168    magn:   -0.0000    constr:    0.0000
     atom:   36    charge:    1.7146    magn:    0.0000    constr:    0.0000
     atom:   37    charge:    1.7207    magn:   -0.0000    constr:    0.0000
     atom:   38    charge:    1.7114    magn:    0.0000    constr:    0.0000
     atom:   39    charge:    1.8182    magn:   -0.0000    constr:    0.0000
     atom:   40    charge:    1.7114    magn:    0.0000    constr:    0.0000
     atom:   41    charge:    1.7206    magn:   -0.0000    constr:    0.0000
     atom:   42    charge:    1.7146    magn:    0.0000    constr:    0.0000
     atom:   43    charge:    1.7168    magn:   -0.0000    constr:    0.0000
     atom:   44    charge:    1.7154    magn:    0.0000    constr:    0.0000
     atom:   45    charge:    1.7212    magn:   -0.0000    constr:    0.0000
     atom:   46    charge:    1.7154    magn:    0.0000    constr:    0.0000
     atom:   47    charge:    1.7168    magn:   -0.0000    constr:    0.0000
     atom:   48    charge:    1.7152    magn:    0.0000    constr:    0.0000
     atom:   49    charge:    1.7118    magn:   -0.0000    constr:    0.0000
     atom:   50    charge:    1.7175    magn:    0.0000    constr:    0.0000
     atom:   51    charge:    1.7117    magn:   -0.0000    constr:    0.0000
     atom:   52    charge:    1.7152    magn:    0.0000    constr:    0.0000

     total cpu time spent up to now is     3443.0 secs

     End of self-consistent calculation

 ------ SPIN UP ------------


          k = 0.0000 0.0000 0.0000 ( 87777 PWs)   bands (ev):

  -107.9192 -69.0877 -69.0876 -67.0032 -19.8260 -19.0066 -19.0066 -18.8879
   -18.8878 -18.8029 -18.7355 -17.1627 -17.1625 -17.1278 -17.0788 -17.0785
   -16.7526 -16.3117 -16.3117 -16.1651 -16.1650 -16.1518 -15.6694 -14.3101
   -14.3099 -14.1495 -14.0158 -14.0156 -13.5136 -13.1280 -13.1280 -13.0763
   -12.9002 -12.9001 -12.5000 -12.0752 -12.0751 -11.7117 -11.5676 -11.5675
   -10.9337 -10.4316 -10.4315  -9.5766  -9.3651  -9.3649  -9.2259  -9.2108
    -9.2108  -9.1961  -8.9521  -8.9521  -8.5924  -8.5924  -8.4568  -7.9419
    -7.9012  -7.8453  -7.8451  -7.6633  -7.5409  -7.5408  -7.4478  -7.4477
    -6.8456  -6.8210  -6.8209  -6.7516  -6.6933  -6.6186  -6.6184  -6.5547
    -6.5497  -6.5497  -6.5160  -6.4920  -6.4248  -6.4247  -6.3777  -6.2886
    -6.2885  -5.5460  -5.5460  -5.0300  -4.9489  -4.8419  -4.8418  -4.7572
    -4.7158  -4.7155  -4.4275  -4.3981  -4.3980  -3.8357  -3.8355  -3.7639
    -3.7581  -3.7581  -3.7300  -3.4191  -3.4189  -3.3505  -1.8912  -1.8057
    -1.8055  -1.5896  -1.5891  -1.1567   0.1080   0.1081   0.9050   0.9634
     0.9637   1.2134   1.2135   1.5504   2.4936   2.8035   2.8040   2.8530
     3.0410   3.0411   3.4161   3.6066   3.6129   3.7382   3.7405   3.7652
     3.7766   3.9520

     occupation numbers 
     1.0000   1.0000   1.0000   1.0000   1.0000   1.0000   1.0000   1.0000
     1.0000   1.0000   1.0000   1.0000   1.0000   1.0000   1.0000   1.0000
     1.0000   1.0000   1.0000   1.0000   1.0000   1.0000   1.0000   1.0000
     1.0000   1.0000   1.0000   1.0000   1.0000   1.0000   1.0000   1.0000
     1.0000   1.0000   1.0000   1.0000   1.0000   1.0000   1.0000   1.0000
     1.0000   1.0000   1.0000   1.0000   1.0000   1.0000   1.0000   1.0000
     1.0000   1.0000   1.0000   1.0000   1.0000   1.0000   1.0000   1.0000
     1.0000   1.0000   1.0000   1.0000   1.0000   1.0000   1.0000   1.0000
     1.0000   1.0000   1.0000   1.0000   1.0000   1.0000   1.0000   1.0000
     1.0000   1.0000   1.0000   1.0000   1.0000   1.0000   1.0000   1.0000
     1.0000   1.0000   1.0000   1.0000   1.0000   1.0000   1.0000   1.0000
     1.0000   1.0000   1.0000   1.0000   1.0000   1.0000   1.0000   1.0000
     1.0000   1.0000   1.0000   1.0000   1.0000   1.0000   1.0000   1.0000
     1.0000   1.0000   1.0000   1.0000   0.0000   0.0000   0.0000   0.0000
     0.0000   0.0000   0.0000   0.0000   0.0000   0.0000   0.0000   0.0000
     0.0000   0.0000   0.0000   0.0000   0.0000   0.0000   0.0000   0.0000
     0.0000   0.0000

 ------ SPIN DOWN ----------


          k = 0.0000 0.0000 0.0000 ( 87777 PWs)   bands (ev):

  -107.9189 -69.0874 -69.0873 -67.0030 -19.8260 -19.0066 -19.0066 -18.8879
   -18.8878 -18.8029 -18.7355 -17.1627 -17.1625 -17.1278 -17.0787 -17.0785
   -16.7526 -16.3117 -16.3117 -16.1651 -16.1651 -16.1518 -15.6694 -14.3101
   -14.3099 -14.1495 -14.0158 -14.0156 -13.5137 -13.1279 -13.1279 -13.0763
   -12.9002 -12.9001 -12.4999 -12.0753 -12.0752 -11.7117 -11.5676 -11.5675
   -10.9338 -10.4316 -10.4315  -9.5766  -9.3650  -9.3649  -9.2259  -9.2108
    -9.2108  -9.1961  -8.9521  -8.9520  -8.5924  -8.5924  -8.4568  -7.9419
    -7.9012  -7.8453  -7.8450  -7.6633  -7.5409  -7.5408  -7.4478  -7.4477
    -6.8456  -6.8210  -6.8209  -6.7516  -6.6933  -6.6186  -6.6184  -6.5547
    -6.5497  -6.5497  -6.5160  -6.4920  -6.4248  -6.4247  -6.3777  -6.2886
    -6.2885  -5.5460  -5.5460  -5.0300  -4.9489  -4.8419  -4.8418  -4.7573
    -4.7158  -4.7155  -4.4275  -4.3982  -4.3980  -3.8357  -3.8355  -3.7639
    -3.7581  -3.7581  -3.7299  -3.4190  -3.4189  -3.3505  -1.8912  -1.8056
    -1.8053  -1.5896  -1.5891  -1.1569   0.1080   0.1080   0.9049   0.9634
     0.9638   1.2134   1.2135   1.5505   2.4936   2.8035   2.8039   2.8530
     3.0410   3.0411   3.4161   3.6067   3.6129   3.7384   3.7405   3.7649
     3.7766   3.9520

     occupation numbers 
     1.0000   1.0000   1.0000   1.0000   1.0000   1.0000   1.0000   1.0000
     1.0000   1.0000   1.0000   1.0000   1.0000   1.0000   1.0000   1.0000
     1.0000   1.0000   1.0000   1.0000   1.0000   1.0000   1.0000   1.0000
     1.0000   1.0000   1.0000   1.0000   1.0000   1.0000   1.0000   1.0000
     1.0000   1.0000   1.0000   1.0000   1.0000   1.0000   1.0000   1.0000
     1.0000   1.0000   1.0000   1.0000   1.0000   1.0000   1.0000   1.0000
     1.0000   1.0000   1.0000   1.0000   1.0000   1.0000   1.0000   1.0000
     1.0000   1.0000   1.0000   1.0000   1.0000   1.0000   1.0000   1.0000
     1.0000   1.0000   1.0000   1.0000   1.0000   1.0000   1.0000   1.0000
     1.0000   1.0000   1.0000   1.0000   1.0000   1.0000   1.0000   1.0000
     1.0000   1.0000   1.0000   1.0000   1.0000   1.0000   1.0000   1.0000
     1.0000   1.0000   1.0000   1.0000   1.0000   1.0000   1.0000   1.0000
     1.0000   1.0000   1.0000   1.0000   1.0000   1.0000   1.0000   1.0000
     1.0000   1.0000   1.0000   1.0000   0.0000   0.0000   0.0000   0.0000
     0.0000   0.0000   0.0000   0.0000   0.0000   0.0000   0.0000   0.0000
     0.0000   0.0000   0.0000   0.0000   0.0000   0.0000   0.0000   0.0000
     0.0000   0.0000

     the Fermi energy is    -0.3928 ev

!    total energy              =    -951.88611881 Ry
     Harris-Foulkes estimate   =    -951.88611861 Ry
     estimated scf accuracy    <       0.00000007 Ry

     The total energy is the sum of the following terms:

     one-electron contribution =   -2960.72083263 Ry
     hartree contribution      =    1523.00819296 Ry
     xc contribution           =    -265.71418151 Ry
     ewald contribution        =     751.54070238 Ry
     smearing contrib. (-TS)   =       0.00000000 Ry

     total magnetization       =     0.00 Bohr mag/cell
     absolute magnetization    =     0.00 Bohr mag/cell

     convergence has been achieved in  34 iterations

     Writing output data file distance-4.5.save/

     init_run     :     70.79s CPU     72.13s WALL (       1 calls)
     electrons    :   3307.48s CPU   3369.84s WALL (       1 calls)

     Called by init_run:
     wfcinit      :     40.68s CPU     41.04s WALL (       1 calls)
     wfcinit:atom :      0.05s CPU      0.08s WALL (       2 calls)
     wfcinit:wfcr :     40.28s CPU     40.56s WALL (       2 calls)
     potinit      :     12.94s CPU     13.34s WALL (       1 calls)
     hinit0       :      9.65s CPU      9.67s WALL (       1 calls)

     Called by electrons:
     c_bands      :   2045.79s CPU   2056.97s WALL (      34 calls)
     sum_band     :    735.75s CPU    756.25s WALL (      34 calls)
     v_of_rho     :    259.06s CPU    272.07s WALL (      35 calls)
     v_h          :      2.87s CPU      2.92s WALL (      35 calls)
     v_xc         :    256.19s CPU    269.15s WALL (      35 calls)
     newd         :    255.28s CPU    273.42s WALL (      35 calls)
     mix_rho      :     16.57s CPU     16.77s WALL (      34 calls)

     Called by c_bands:
     init_us_2    :      6.89s CPU      6.92s WALL (     138 calls)
     cegterg      :   2029.41s CPU   2040.52s WALL (      68 calls)

     Called by sum_band:
     sum_band:bec :      0.06s CPU      0.06s WALL (      68 calls)
     addusdens    :    464.59s CPU    483.45s WALL (      34 calls)

     Called by *egterg:
     h_psi        :   1090.33s CPU   1098.00s WALL (     259 calls)
     s_psi        :    345.28s CPU    345.46s WALL (     259 calls)
     g_psi        :      1.22s CPU      1.22s WALL (     189 calls)
     cdiaghg      :     17.06s CPU     17.06s WALL (     257 calls)
     cegterg:over :    248.32s CPU    248.46s WALL (     189 calls)
     cegterg:upda :    139.85s CPU    140.79s WALL (     189 calls)
     cegterg:last :    110.46s CPU    110.49s WALL (      68 calls)

     Called by h_psi:
     h_psi:pot    :   1089.04s CPU   1095.38s WALL (     259 calls)
     h_psi:calbec :    346.78s CPU    346.90s WALL (     259 calls)
     vloc_psi     :    396.17s CPU    402.28s WALL (     259 calls)
     add_vuspsi   :    346.09s CPU    346.20s WALL (     259 calls)

     General routines
     calbec       :    502.16s CPU    502.34s WALL (     327 calls)
     fft          :    150.11s CPU    154.99s WALL (    2619 calls)
     ffts         :      2.89s CPU      2.95s WALL (     138 calls)
     fftw         :    428.64s CPU    435.22s WALL (   48294 calls)
     interpolate  :      6.31s CPU      6.44s WALL (      70 calls)

     Parallel routines
     fft_scatt_xy :    108.76s CPU    109.82s WALL (   51051 calls)
     fft_scatt_yz :    187.40s CPU    195.50s WALL (   51051 calls)

     PWSCF        :  56m19.65s CPU  57m23.68s WALL


   This run was terminated on:   9:51:33  24Dec2022            

=------------------------------------------------------------------------------=
   JOB DONE.
=------------------------------------------------------------------------------=
