
     Program PWSCF v.6.4.1 starts on 24Dec2022 at  9:51:33 

     This program is part of the open-source Quantum ESPRESSO suite
     for quantum simulation of materials; please cite
         "P. Giannozzi et al., J. Phys.:Condens. Matter 21 395502 (2009);
         "P. Giannozzi et al., J. Phys.:Condens. Matter 29 465901 (2017);
          URL http://www.quantum-espresso.org", 
     in publications or presentations arising from this work. More details at
     http://www.quantum-espresso.org/quote

     Parallel version (MPI), running on     6 processors

     MPI processes distributed on     1 nodes
     R & G space division:  proc/nbgrp/npool/nimage =       6
     Reading input from distance-4.0.in

     Current dimensions of program PWSCF are:
     Max number of different atomic species (ntypx) = 10
     Max number of k-points (npk) =  40000
     Max angular momentum in pseudopotentials (lmaxx) =  3

     IMPORTANT: XC functional enforced from input :
     Exchange-correlation      = RVV10 ( 1  4 13  4 3 0)
     Any further DFT definition will be discarded
     Please, verify this is what you really want

               file H.pbe-rrkjus.UPF: wavefunction(s)  1S renormalized

     Subspace diagonalization in iterative solution of the eigenvalue problem:
     a serial algorithm will be used


     Parallelization info
     --------------------
     sticks:   dense  smooth     PW     G-vecs:    dense   smooth      PW
     Min        3051    1746    432               270999   117096   14629
     Max        3053    1747    437               271001   117099   14630
     Sum       18313   10477   2611              1626001   702581   87777



     bravais-lattice index     =            4
     lattice parameter (alat)  =      23.2937  a.u.
     unit-cell volume          =    8879.8548 (a.u.)^3
     number of atoms/cell      =           52
     number of atomic types    =            3
     number of electrons       =       216.00
     number of Kohn-Sham states=          130
     kinetic-energy cutoff     =      70.0000  Ry
     charge density cutoff     =     490.0000  Ry
     convergence threshold     =      1.0E-06
     mixing beta               =       0.7000
     number of iterations used =            8  plain     mixing
     Exchange-correlation      = RVV10 ( 1  4 13  4 3 0)

     celldm(1)=  23.293684  celldm(2)=   0.000000  celldm(3)=   0.811261
     celldm(4)=   0.000000  celldm(5)=   0.000000  celldm(6)=   0.000000

     crystal axes: (cart. coord. in units of alat)
               a(1) = (   1.000000   0.000000   0.000000 )  
               a(2) = (  -0.500000   0.866025   0.000000 )  
               a(3) = (   0.000000   0.000000   0.811261 )  

     reciprocal axes: (cart. coord. in units 2 pi/alat)
               b(1) = (  1.000000  0.577350 -0.000000 )  
               b(2) = (  0.000000  1.154701  0.000000 )  
               b(3) = (  0.000000 -0.000000  1.232649 )  


     PseudoPot. # 1 for H  read from file:
     /home/cristian/Escritorio/Proyecto_Grafeno/pseudopotenciales/H.pbe-rrkjus.UPF
     MD5 check sum: 7cc9d459525c9a0585f487a71c3c9563
     Pseudo is Ultrasoft, Zval =  1.0
     Generated by new atomic code, or converted to UPF format
     Using radial grid of 1061 points,  2 beta functions with: 
                l(1) =   0
                l(2) =   0
     Q(r) pseudized with 0 coefficients 


     PseudoPot. # 2 for C  read from file:
     /home/cristian/Escritorio/Proyecto_Grafeno/pseudopotenciales/C.pbe-n-rrkjus_psl.1.0.0.UPF
     MD5 check sum: 1fdd950c42eb37d8afe3dd2f8d12311e
     Pseudo is Ultrasoft + core correction, Zval =  4.0
     Generated using "atomic" code by A. Dal Corso v.6.3MaX
     Using radial grid of 1073 points,  4 beta functions with: 
                l(1) =   0
                l(2) =   0
                l(3) =   1
                l(4) =   1
     Q(r) pseudized with 0 coefficients 


     PseudoPot. # 3 for Ni read from file:
     /home/cristian/Escritorio/Proyecto_Grafeno/pseudopotenciales/Ni.pbe-spn-rrkjus_psl.1.0.0.UPF
     MD5 check sum: 8b3fc9aac6dafe35f580d41bb18c3945
     Pseudo is Ultrasoft + core correction, Zval = 18.0
     Generated using "atomic" code by A. Dal Corso v.6.3
     Using radial grid of 1195 points,  6 beta functions with: 
                l(1) =   0
                l(2) =   0
                l(3) =   1
                l(4) =   1
                l(5) =   2
                l(6) =   2
     Q(r) pseudized with 0 coefficients 


     vdW kernel table read from file rVV10_kernel_table
     MD5 check sum: b8e2538accc0c0b3206b45ba4daaba6c

     atomic species   valence    mass     pseudopotential
        H              1.00     1.00794     H ( 1.00)
        C              4.00    12.01070     C ( 1.00)
        Ni            18.00    58.69340     Ni( 1.00)

     Starting magnetic structure 
     atomic species   magnetization
        H            0.500
        C            0.300
        Ni           0.800

      2 Sym. Ops. (no inversion) found


                                    s                        frac. trans.

      isym =  1     identity                                     

 cryst.   s( 1) = (     1          0          0      )
                  (     0          1          0      )
                  (     0          0          1      )

 cart.    s( 1) = (  1.0000000  0.0000000  0.0000000 )
                  (  0.0000000  1.0000000  0.0000000 )
                  (  0.0000000  0.0000000  1.0000000 )


      isym =  2     inv. 180 deg rotation - cryst. axis [1,1,0]  

 cryst.   s( 2) = (     0         -1          0      )
                  (    -1          0          0      )
                  (     0          0          1      )

 cart.    s( 2) = (  0.5000000 -0.8660254  0.0000000 )
                  ( -0.8660254 -0.5000000  0.0000000 )
                  (  0.0000000  0.0000000  1.0000000 )


     point group C_s (m)    
     there are  2 classes
     the character table:

       E     s    
A'     1.00  1.00
A''    1.00 -1.00

     the symmetry operations in each class and the name of the first element:

     E        1
          identity                                               
     s        2
          inv. 180 deg rotation - cryst. axis [1,1,0]            

   Cartesian axes

     site n.     atom                  positions (alat units)
         1           H   tau(   1) = (   0.2500000   0.4330127   0.3245045  )
         2           H   tau(   2) = (   0.2500000   0.4330127   0.3855171  )
         3           C   tau(   3) = (   0.0000000   0.0000000   0.0000000  )
         4           C   tau(   4) = (   0.0000000   0.1154701   0.0000000  )
         5           C   tau(   5) = (  -0.1000000   0.1732051   0.0000000  )
         6           C   tau(   6) = (  -0.1000000   0.2886751   0.0000000  )
         7           C   tau(   7) = (  -0.2000000   0.3464102   0.0000000  )
         8           C   tau(   8) = (  -0.2000000   0.4618802   0.0000000  )
         9           C   tau(   9) = (  -0.3000000   0.5196152   0.0000000  )
        10           C   tau(  10) = (  -0.3000000   0.6350853   0.0000000  )
        11           C   tau(  11) = (  -0.4000000   0.6928203   0.0000000  )
        12           C   tau(  12) = (  -0.4000000   0.8082904   0.0000000  )
        13           C   tau(  13) = (   0.2000000   0.0000000   0.0000000  )
        14           C   tau(  14) = (   0.2000000   0.1154701   0.0000000  )
        15           C   tau(  15) = (   0.1000000   0.1732051   0.0000000  )
        16           C   tau(  16) = (   0.1000000   0.2886751   0.0000000  )
        17           C   tau(  17) = (   0.0000000   0.3464102   0.0000000  )
        18           C   tau(  18) = (   0.0000000   0.4618802   0.0000000  )
        19           C   tau(  19) = (  -0.1000000   0.5196152   0.0000000  )
        20           C   tau(  20) = (  -0.1000000   0.6350853   0.0000000  )
        21           C   tau(  21) = (  -0.2000000   0.6928203   0.0000000  )
        22           C   tau(  22) = (  -0.2000000   0.8082904   0.0000000  )
        23           C   tau(  23) = (   0.4000000   0.0000000   0.0000000  )
        24           C   tau(  24) = (   0.4000000   0.1154701   0.0000000  )
        25           C   tau(  25) = (   0.3000000   0.1732051   0.0000000  )
        26           C   tau(  26) = (   0.3000000   0.2886751   0.0000000  )
        27           C   tau(  27) = (   0.2000000   0.3464102   0.0000000  )
        28           Ni  tau(  28) = (   0.2000000   0.4618802   0.0000000  )
        29           C   tau(  29) = (   0.1000000   0.5196152   0.0000000  )
        30           C   tau(  30) = (   0.1000000   0.6350853   0.0000000  )
        31           C   tau(  31) = (   0.0000000   0.6928203   0.0000000  )
        32           C   tau(  32) = (   0.0000000   0.8082904   0.0000000  )
        33           C   tau(  33) = (   0.6000000   0.0000000   0.0000000  )
        34           C   tau(  34) = (   0.6000000   0.1154701   0.0000000  )
        35           C   tau(  35) = (   0.5000000   0.1732051   0.0000000  )
        36           C   tau(  36) = (   0.5000000   0.2886751   0.0000000  )
        37           C   tau(  37) = (   0.4000000   0.3464102   0.0000000  )
        38           C   tau(  38) = (   0.4000000   0.4618802   0.0000000  )
        39           C   tau(  39) = (   0.3000000   0.5196152   0.0000000  )
        40           C   tau(  40) = (   0.3000000   0.6350853   0.0000000  )
        41           C   tau(  41) = (   0.2000000   0.6928203   0.0000000  )
        42           C   tau(  42) = (   0.2000000   0.8082904   0.0000000  )
        43           C   tau(  43) = (   0.8000000   0.0000000   0.0000000  )
        44           C   tau(  44) = (   0.8000000   0.1154701   0.0000000  )
        45           C   tau(  45) = (   0.7000000   0.1732051   0.0000000  )
        46           C   tau(  46) = (   0.7000000   0.2886751   0.0000000  )
        47           C   tau(  47) = (   0.6000000   0.3464102   0.0000000  )
        48           C   tau(  48) = (   0.6000000   0.4618802   0.0000000  )
        49           C   tau(  49) = (   0.5000000   0.5196152   0.0000000  )
        50           C   tau(  50) = (   0.5000000   0.6350853   0.0000000  )
        51           C   tau(  51) = (   0.4000000   0.6928203   0.0000000  )
        52           C   tau(  52) = (   0.4000000   0.8082904   0.0000000  )

   Crystallographic axes

     site n.     atom                  positions (cryst. coord.)
         1           H   tau(   1) = (  0.5000000  0.5000000  0.4000000  )
         2           H   tau(   2) = (  0.5000000  0.5000000  0.4752072  )
         3           C   tau(   3) = (  0.0000000  0.0000000  0.0000000  )
         4           C   tau(   4) = (  0.0666667  0.1333333  0.0000000  )
         5           C   tau(   5) = (  0.0000000  0.2000000  0.0000000  )
         6           C   tau(   6) = (  0.0666667  0.3333333  0.0000000  )
         7           C   tau(   7) = (  0.0000000  0.4000000  0.0000000  )
         8           C   tau(   8) = (  0.0666667  0.5333333  0.0000000  )
         9           C   tau(   9) = (  0.0000000  0.6000000  0.0000000  )
        10           C   tau(  10) = (  0.0666667  0.7333333  0.0000000  )
        11           C   tau(  11) = (  0.0000000  0.8000000  0.0000000  )
        12           C   tau(  12) = (  0.0666667  0.9333333  0.0000000  )
        13           C   tau(  13) = (  0.2000000  0.0000000  0.0000000  )
        14           C   tau(  14) = (  0.2666667  0.1333333  0.0000000  )
        15           C   tau(  15) = (  0.2000000  0.2000000  0.0000000  )
        16           C   tau(  16) = (  0.2666667  0.3333333  0.0000000  )
        17           C   tau(  17) = (  0.2000000  0.4000000  0.0000000  )
        18           C   tau(  18) = (  0.2666667  0.5333333  0.0000000  )
        19           C   tau(  19) = (  0.2000000  0.6000000  0.0000000  )
        20           C   tau(  20) = (  0.2666667  0.7333333  0.0000000  )
        21           C   tau(  21) = (  0.2000000  0.8000000  0.0000000  )
        22           C   tau(  22) = (  0.2666667  0.9333333  0.0000000  )
        23           C   tau(  23) = (  0.4000000  0.0000000  0.0000000  )
        24           C   tau(  24) = (  0.4666667  0.1333333  0.0000000  )
        25           C   tau(  25) = (  0.4000000  0.2000000  0.0000000  )
        26           C   tau(  26) = (  0.4666667  0.3333333  0.0000000  )
        27           C   tau(  27) = (  0.4000000  0.4000000  0.0000000  )
        28           Ni  tau(  28) = (  0.4666667  0.5333333  0.0000000  )
        29           C   tau(  29) = (  0.4000000  0.6000000  0.0000000  )
        30           C   tau(  30) = (  0.4666667  0.7333333  0.0000000  )
        31           C   tau(  31) = (  0.4000000  0.8000000  0.0000000  )
        32           C   tau(  32) = (  0.4666667  0.9333333  0.0000000  )
        33           C   tau(  33) = (  0.6000000  0.0000000  0.0000000  )
        34           C   tau(  34) = (  0.6666667  0.1333333  0.0000000  )
        35           C   tau(  35) = (  0.6000000  0.2000000  0.0000000  )
        36           C   tau(  36) = (  0.6666667  0.3333333  0.0000000  )
        37           C   tau(  37) = (  0.6000000  0.4000000  0.0000000  )
        38           C   tau(  38) = (  0.6666667  0.5333333  0.0000000  )
        39           C   tau(  39) = (  0.6000000  0.6000000  0.0000000  )
        40           C   tau(  40) = (  0.6666667  0.7333333  0.0000000  )
        41           C   tau(  41) = (  0.6000000  0.8000000  0.0000000  )
        42           C   tau(  42) = (  0.6666667  0.9333333  0.0000000  )
        43           C   tau(  43) = (  0.8000000  0.0000000  0.0000000  )
        44           C   tau(  44) = (  0.8666667  0.1333333  0.0000000  )
        45           C   tau(  45) = (  0.8000000  0.2000000  0.0000000  )
        46           C   tau(  46) = (  0.8666667  0.3333333  0.0000000  )
        47           C   tau(  47) = (  0.8000000  0.4000000  0.0000000  )
        48           C   tau(  48) = (  0.8666667  0.5333333  0.0000000  )
        49           C   tau(  49) = (  0.8000000  0.6000000  0.0000000  )
        50           C   tau(  50) = (  0.8666667  0.7333333  0.0000000  )
        51           C   tau(  51) = (  0.8000000  0.8000000  0.0000000  )
        52           C   tau(  52) = (  0.8666667  0.9333333  0.0000000  )

     number of k points=     1  Marzari-Vanderbilt smearing, width (Ry)=  0.0010
                       cart. coord. in units 2pi/alat
        k(    1) = (   0.0000000   0.0000000   0.0000000), wk =   1.0000000

                       cryst. coord.
        k(    1) = (   0.0000000   0.0000000   0.0000000), wk =   1.0000000

     Dense  grid:  1626001 G-vectors     FFT dimensions: ( 180, 180, 135)

     Smooth grid:   702581 G-vectors     FFT dimensions: ( 125, 125, 108)

     Dynamical RAM for                 wfc:      29.03 MB

     Dynamical RAM for     wfc (w. buffer):      87.10 MB

     Dynamical RAM for           str. fact:      12.41 MB

     Dynamical RAM for           local pot:       0.00 MB

     Dynamical RAM for          nlocal pot:      92.46 MB

     Dynamical RAM for                qrad:      19.73 MB

     Dynamical RAM for          rho,v,vnew:      58.92 MB

     Dynamical RAM for               rhoin:      19.64 MB

     Dynamical RAM for            rho*nmix:     132.32 MB

     Dynamical RAM for           G-vectors:      16.40 MB

     Dynamical RAM for          h,s,v(r/c):      12.38 MB

     Dynamical RAM for          <psi|beta>:       0.82 MB

     Dynamical RAM for                 psi:     116.14 MB

     Dynamical RAM for                hpsi:     116.14 MB

     Dynamical RAM for                spsi:     116.14 MB

     Dynamical RAM for      wfcinit/wfcrot:      93.90 MB

     Dynamical RAM for           addusdens:     975.89 MB

     Estimated static dynamical RAM per process >     489.64 MB

     Estimated max dynamical RAM per process >       1.43 GB

     Estimated total dynamical RAM >       8.59 GB
     Generating pointlists ...
     new r_m :   0.0252 (alat units)  0.5862 (a.u.) for type    1
     new r_m :   0.0476 (alat units)  1.1095 (a.u.) for type    2
     new r_m :   0.0476 (alat units)  1.1095 (a.u.) for type    3

     Check: negative core charge=   -0.000002

     Initial potential from superposition of free atoms

     starting charge  215.80530, renormalised to  216.00000

     negative rho (up, down):  1.339E-04 1.323E-02


---------------------------------------------------------------------------------
Carrying out rVV10 run using the following parameters:
Nqs =      20    Nr_points =    1024   r_max =   100.000
b_value =  6.30000    beta =  0.00901
     q_mesh =  0.00010000  0.00030000  0.00058939  0.00100810
               0.00161396  0.00249058  0.00375900  0.00559430
               0.00824984  0.01209221  0.01765183  0.02569619
               0.03733578  0.05417739  0.07854596  0.11380545
               0.16482331  0.23864234  0.34545298  0.50000000

Gradients computed in Reciprocal space

---------------------------------------------------------------------------------


     Starting wfcs are  208 randomized atomic wfcs

     total cpu time spent up to now is       72.9 secs

     Self-consistent Calculation

     iteration #  1     ecut=    70.00 Ry     beta= 0.70
     Davidson diagonalization with overlap
     ethr =  1.00E-02,  avg # of iterations =  4.5

     negative rho (up, down):  2.360E-04 1.160E-02

     total cpu time spent up to now is      207.0 secs

     total energy              =    -946.57349639 Ry
     Harris-Foulkes estimate   =    -949.77188762 Ry
     estimated scf accuracy    <      14.34711622 Ry

     total magnetization       =     6.00 Bohr mag/cell
     absolute magnetization    =     6.77 Bohr mag/cell

     iteration #  2     ecut=    70.00 Ry     beta= 0.70
     Davidson diagonalization with overlap
     ethr =  6.64E-03,  avg # of iterations =  4.0

     negative rho (up, down):  6.830E-04 7.454E-02

     total cpu time spent up to now is      327.5 secs

     total energy              =    -945.93829906 Ry
     Harris-Foulkes estimate   =    -957.72419286 Ry
     estimated scf accuracy    <      32.96055353 Ry

     total magnetization       =     4.00 Bohr mag/cell
     absolute magnetization    =     4.72 Bohr mag/cell

     iteration #  3     ecut=    70.00 Ry     beta= 0.70
     Davidson diagonalization with overlap
     ethr =  6.64E-03,  avg # of iterations =  4.5

     negative rho (up, down):  9.042E-04 3.281E-01

     total cpu time spent up to now is      428.5 secs

     total energy              =    -953.77182324 Ry
     Harris-Foulkes estimate   =    -953.07095773 Ry
     estimated scf accuracy    <      30.32648752 Ry

     total magnetization       =     3.84 Bohr mag/cell
     absolute magnetization    =     9.43 Bohr mag/cell

     iteration #  4     ecut=    70.00 Ry     beta= 0.70
     Davidson diagonalization with overlap
     ethr =  6.64E-03,  avg # of iterations =  3.5

     negative rho (up, down):  8.369E-02 5.435E-01

     total cpu time spent up to now is      532.5 secs

     total energy              =    -938.33262279 Ry
     Harris-Foulkes estimate   =    -966.81501218 Ry
     estimated scf accuracy    <     792.49820370 Ry

     total magnetization       =    -0.00 Bohr mag/cell
     absolute magnetization    =    41.30 Bohr mag/cell

     iteration #  5     ecut=    70.00 Ry     beta= 0.70
     Davidson diagonalization with overlap
     ethr =  6.64E-03,  avg # of iterations =  3.5

     negative rho (up, down):  2.265E-02 4.360E-01

     total cpu time spent up to now is      648.5 secs

     total energy              =    -952.99848513 Ry
     Harris-Foulkes estimate   =    -952.63482077 Ry
     estimated scf accuracy    <      22.16292001 Ry

     total magnetization       =     2.00 Bohr mag/cell
     absolute magnetization    =     6.57 Bohr mag/cell

     iteration #  6     ecut=    70.00 Ry     beta= 0.70
     Davidson diagonalization with overlap
     ethr =  6.64E-03,  avg # of iterations =  3.0

     negative rho (up, down):  4.755E-02 5.085E-01

     total cpu time spent up to now is      755.7 secs

     total energy              =    -941.70496367 Ry
     Harris-Foulkes estimate   =    -960.51962990 Ry
     estimated scf accuracy    <     511.75182594 Ry

     total magnetization       =     2.00 Bohr mag/cell
     absolute magnetization    =    35.30 Bohr mag/cell

     iteration #  7     ecut=    70.00 Ry     beta= 0.70
     Davidson diagonalization with overlap
     ethr =  6.64E-03,  avg # of iterations =  3.0

     negative rho (up, down):  3.176E-02 3.717E-01

     total cpu time spent up to now is      864.1 secs

     total energy              =    -951.44972862 Ry
     Harris-Foulkes estimate   =    -951.46113211 Ry
     estimated scf accuracy    <       7.91623022 Ry

     total magnetization       =    -0.00 Bohr mag/cell
     absolute magnetization    =     4.22 Bohr mag/cell

     iteration #  8     ecut=    70.00 Ry     beta= 0.70
     Davidson diagonalization with overlap
     ethr =  3.66E-03,  avg # of iterations =  1.5

     negative rho (up, down):  1.954E-02 3.529E-01

     total cpu time spent up to now is      956.3 secs

     total energy              =    -951.70275811 Ry
     Harris-Foulkes estimate   =    -951.91899687 Ry
     estimated scf accuracy    <       6.43743858 Ry

     total magnetization       =     0.00 Bohr mag/cell
     absolute magnetization    =     3.40 Bohr mag/cell

     iteration #  9     ecut=    70.00 Ry     beta= 0.70
     Davidson diagonalization with overlap
     ethr =  2.98E-03,  avg # of iterations =  2.5

     negative rho (up, down):  5.297E-03 2.999E-01

     total cpu time spent up to now is     1052.8 secs

     total energy              =    -951.82686326 Ry
     Harris-Foulkes estimate   =    -951.89201569 Ry
     estimated scf accuracy    <       0.91102727 Ry

     total magnetization       =     0.00 Bohr mag/cell
     absolute magnetization    =     1.37 Bohr mag/cell

     iteration # 10     ecut=    70.00 Ry     beta= 0.70
     Davidson diagonalization with overlap
     ethr =  4.22E-04,  avg # of iterations =  4.0

     negative rho (up, down):  4.615E-02 7.633E-02

     total cpu time spent up to now is     1156.0 secs

     total energy              =    -951.80190993 Ry
     Harris-Foulkes estimate   =    -951.92565200 Ry
     estimated scf accuracy    <       2.60444243 Ry

     total magnetization       =    -0.00 Bohr mag/cell
     absolute magnetization    =     0.58 Bohr mag/cell

     iteration # 11     ecut=    70.00 Ry     beta= 0.70
     Davidson diagonalization with overlap
     ethr =  4.22E-04,  avg # of iterations =  2.0

     negative rho (up, down):  2.169E-03 1.920E-01

     total cpu time spent up to now is     1254.5 secs

     total energy              =    -951.87457834 Ry
     Harris-Foulkes estimate   =    -951.87904299 Ry
     estimated scf accuracy    <       0.17659289 Ry

     total magnetization       =    -0.00 Bohr mag/cell
     absolute magnetization    =     0.41 Bohr mag/cell

     iteration # 12     ecut=    70.00 Ry     beta= 0.70
     Davidson diagonalization with overlap
     ethr =  8.18E-05,  avg # of iterations =  5.0

     negative rho (up, down):  1.535E-03 1.153E-01

     total cpu time spent up to now is     1346.4 secs

     total energy              =    -951.88259297 Ry
     Harris-Foulkes estimate   =    -951.88724060 Ry
     estimated scf accuracy    <       0.01723624 Ry

     total magnetization       =    -0.00 Bohr mag/cell
     absolute magnetization    =     0.23 Bohr mag/cell

     iteration # 13     ecut=    70.00 Ry     beta= 0.70
     Davidson diagonalization with overlap
     ethr =  7.98E-06,  avg # of iterations =  7.5

     negative rho (up, down):  1.401E-03 3.581E-02

     total cpu time spent up to now is     1444.0 secs

     total energy              =    -951.88537383 Ry
     Harris-Foulkes estimate   =    -951.88640878 Ry
     estimated scf accuracy    <       0.00531399 Ry

     total magnetization       =     0.00 Bohr mag/cell
     absolute magnetization    =     0.14 Bohr mag/cell

     iteration # 14     ecut=    70.00 Ry     beta= 0.70
     Davidson diagonalization with overlap
     ethr =  2.46E-06,  avg # of iterations =  4.0

     negative rho (up, down):  1.222E-03 1.787E-02

     total cpu time spent up to now is     1534.2 secs

     total energy              =    -951.88625550 Ry
     Harris-Foulkes estimate   =    -951.88634268 Ry
     estimated scf accuracy    <       0.00147723 Ry

     total magnetization       =    -0.00 Bohr mag/cell
     absolute magnetization    =     0.10 Bohr mag/cell

     iteration # 15     ecut=    70.00 Ry     beta= 0.70
     Davidson diagonalization with overlap
     ethr =  6.84E-07,  avg # of iterations =  2.5

     negative rho (up, down):  1.068E-03 6.545E-02

     total cpu time spent up to now is     1618.9 secs

     total energy              =    -951.88652797 Ry
     Harris-Foulkes estimate   =    -951.88647257 Ry
     estimated scf accuracy    <       0.00246073 Ry

     total magnetization       =     0.00 Bohr mag/cell
     absolute magnetization    =     0.12 Bohr mag/cell

     iteration # 16     ecut=    70.00 Ry     beta= 0.70
     Davidson diagonalization with overlap
     ethr =  6.84E-07,  avg # of iterations =  3.0

     negative rho (up, down):  1.037E-03 1.424E-01

     total cpu time spent up to now is     1704.2 secs

     total energy              =    -951.88590264 Ry
     Harris-Foulkes estimate   =    -951.88660583 Ry
     estimated scf accuracy    <       0.01326376 Ry

     total magnetization       =    -0.00 Bohr mag/cell
     absolute magnetization    =     0.22 Bohr mag/cell

     iteration # 17     ecut=    70.00 Ry     beta= 0.70
     Davidson diagonalization with overlap
     ethr =  6.84E-07,  avg # of iterations =  3.0

     negative rho (up, down):  1.057E-03 8.278E-02

     total cpu time spent up to now is     1790.1 secs

     total energy              =    -951.88639110 Ry
     Harris-Foulkes estimate   =    -951.88612256 Ry
     estimated scf accuracy    <       0.00288236 Ry

     total magnetization       =    -0.00 Bohr mag/cell
     absolute magnetization    =     0.11 Bohr mag/cell

     iteration # 18     ecut=    70.00 Ry     beta= 0.70
     Davidson diagonalization with overlap
     ethr =  6.84E-07,  avg # of iterations =  2.0

     negative rho (up, down):  1.058E-03 6.964E-02

     total cpu time spent up to now is     1871.9 secs

     total energy              =    -951.88643945 Ry
     Harris-Foulkes estimate   =    -951.88639983 Ry
     estimated scf accuracy    <       0.00187978 Ry

     total magnetization       =     0.00 Bohr mag/cell
     absolute magnetization    =     0.10 Bohr mag/cell

     iteration # 19     ecut=    70.00 Ry     beta= 0.70
     Davidson diagonalization with overlap
     ethr =  6.84E-07,  avg # of iterations =  1.5

     negative rho (up, down):  1.114E-03 7.377E-02

     total cpu time spent up to now is     1952.2 secs

     total energy              =    -951.88634862 Ry
     Harris-Foulkes estimate   =    -951.88645245 Ry
     estimated scf accuracy    <       0.00301592 Ry

     total magnetization       =     0.00 Bohr mag/cell
     absolute magnetization    =     0.11 Bohr mag/cell

     iteration # 20     ecut=    70.00 Ry     beta= 0.70
     Davidson diagonalization with overlap
     ethr =  6.84E-07,  avg # of iterations =  1.5

     negative rho (up, down):  1.048E-03 4.621E-02

     total cpu time spent up to now is     2033.8 secs

     total energy              =    -951.88643391 Ry
     Harris-Foulkes estimate   =    -951.88640257 Ry
     estimated scf accuracy    <       0.00054202 Ry

     total magnetization       =    -0.00 Bohr mag/cell
     absolute magnetization    =     0.06 Bohr mag/cell

     iteration # 21     ecut=    70.00 Ry     beta= 0.70
     Davidson diagonalization with overlap
     ethr =  2.51E-07,  avg # of iterations =  2.0

     negative rho (up, down):  1.044E-03 1.325E-02

     total cpu time spent up to now is     2115.3 secs

     total energy              =    -951.88650501 Ry
     Harris-Foulkes estimate   =    -951.88647100 Ry
     estimated scf accuracy    <       0.00007921 Ry

     total magnetization       =    -0.00 Bohr mag/cell
     absolute magnetization    =     0.03 Bohr mag/cell

     iteration # 22     ecut=    70.00 Ry     beta= 0.70
     Davidson diagonalization with overlap
     ethr =  3.67E-08,  avg # of iterations =  3.0

     negative rho (up, down):  1.038E-03 5.711E-03

     total cpu time spent up to now is     2201.6 secs

     total energy              =    -951.88651090 Ry
     Harris-Foulkes estimate   =    -951.88651432 Ry
     estimated scf accuracy    <       0.00005497 Ry

     total magnetization       =     0.00 Bohr mag/cell
     absolute magnetization    =     0.02 Bohr mag/cell

     iteration # 23     ecut=    70.00 Ry     beta= 0.70
     Davidson diagonalization with overlap
     ethr =  2.54E-08,  avg # of iterations =  2.0

     negative rho (up, down):  1.035E-03 2.368E-03

     total cpu time spent up to now is     2283.2 secs

     total energy              =    -951.88651562 Ry
     Harris-Foulkes estimate   =    -951.88651556 Ry
     estimated scf accuracy    <       0.00000511 Ry

     total magnetization       =    -0.00 Bohr mag/cell
     absolute magnetization    =     0.02 Bohr mag/cell

     iteration # 24     ecut=    70.00 Ry     beta= 0.70
     Davidson diagonalization with overlap
     ethr =  2.36E-09,  avg # of iterations =  3.0

     negative rho (up, down):  1.032E-03 1.847E-03

     total cpu time spent up to now is     2375.7 secs

     total energy              =    -951.88651726 Ry
     Harris-Foulkes estimate   =    -951.88651738 Ry
     estimated scf accuracy    <       0.00000385 Ry

     total magnetization       =    -0.00 Bohr mag/cell
     absolute magnetization    =     0.02 Bohr mag/cell

     iteration # 25     ecut=    70.00 Ry     beta= 0.70
     Davidson diagonalization with overlap
     ethr =  1.78E-09,  avg # of iterations =  2.0

     negative rho (up, down):  1.030E-03 1.372E-03

     total cpu time spent up to now is     2458.9 secs

     total energy              =    -951.88651827 Ry
     Harris-Foulkes estimate   =    -951.88651793 Ry
     estimated scf accuracy    <       0.00000321 Ry

     total magnetization       =     0.00 Bohr mag/cell
     absolute magnetization    =     0.01 Bohr mag/cell

     iteration # 26     ecut=    70.00 Ry     beta= 0.70
     Davidson diagonalization with overlap
     ethr =  1.49E-09,  avg # of iterations =  3.0

     negative rho (up, down):  1.032E-03 2.476E-02

     total cpu time spent up to now is     2550.1 secs

     total energy              =    -951.88650441 Ry
     Harris-Foulkes estimate   =    -951.88652192 Ry
     estimated scf accuracy    <       0.00027178 Ry

     total magnetization       =    -0.00 Bohr mag/cell
     absolute magnetization    =     0.03 Bohr mag/cell

     iteration # 27     ecut=    70.00 Ry     beta= 0.70
     Davidson diagonalization with overlap
     ethr =  1.49E-09,  avg # of iterations =  3.5

     negative rho (up, down):  1.032E-03 9.292E-03

     total cpu time spent up to now is     2638.5 secs

     total energy              =    -951.88651685 Ry
     Harris-Foulkes estimate   =    -951.88650802 Ry
     estimated scf accuracy    <       0.00000830 Ry

     total magnetization       =     0.00 Bohr mag/cell
     absolute magnetization    =     0.01 Bohr mag/cell

     iteration # 28     ecut=    70.00 Ry     beta= 0.70
     Davidson diagonalization with overlap
     ethr =  1.49E-09,  avg # of iterations =  2.0

     negative rho (up, down):  1.033E-03 6.459E-03

     total cpu time spent up to now is     2720.6 secs

     total energy              =    -951.88651724 Ry
     Harris-Foulkes estimate   =    -951.88651705 Ry
     estimated scf accuracy    <       0.00002134 Ry

     total magnetization       =     0.00 Bohr mag/cell
     absolute magnetization    =     0.01 Bohr mag/cell

     iteration # 29     ecut=    70.00 Ry     beta= 0.70
     Davidson diagonalization with overlap
     ethr =  1.49E-09,  avg # of iterations =  1.5

     negative rho (up, down):  1.033E-03 7.095E-03

     total cpu time spent up to now is     2800.5 secs

     total energy              =    -951.88651678 Ry
     Harris-Foulkes estimate   =    -951.88651729 Ry
     estimated scf accuracy    <       0.00001952 Ry

     total magnetization       =     0.00 Bohr mag/cell
     absolute magnetization    =     0.01 Bohr mag/cell

     iteration # 30     ecut=    70.00 Ry     beta= 0.70
     Davidson diagonalization with overlap
     ethr =  1.49E-09,  avg # of iterations =  2.0

     negative rho (up, down):  1.032E-03 3.176E-03

     total cpu time spent up to now is     2883.2 secs

     total energy              =    -951.88651779 Ry
     Harris-Foulkes estimate   =    -951.88651704 Ry
     estimated scf accuracy    <       0.00000176 Ry

     total magnetization       =    -0.00 Bohr mag/cell
     absolute magnetization    =     0.01 Bohr mag/cell

     iteration # 31     ecut=    70.00 Ry     beta= 0.70
     Davidson diagonalization with overlap
     ethr =  8.16E-10,  avg # of iterations =  3.0

     negative rho (up, down):  1.032E-03 7.179E-04

     total cpu time spent up to now is     2968.5 secs

     total energy              =    -951.88651804 Ry
     Harris-Foulkes estimate   =    -951.88651811 Ry
     estimated scf accuracy    <       0.00000334 Ry

     total magnetization       =    -0.00 Bohr mag/cell
     absolute magnetization    =     0.01 Bohr mag/cell

     iteration # 32     ecut=    70.00 Ry     beta= 0.70
     Davidson diagonalization with overlap
     ethr =  8.16E-10,  avg # of iterations =  2.0

     negative rho (up, down):  1.031E-03 8.688E-06

     Magnetic moment per site:
     atom:    1    charge:    0.2111    magn:   -0.0000    constr:    0.0000
     atom:    2    charge:    0.2116    magn:    0.0000    constr:    0.0000
     atom:    3    charge:    1.7155    magn:   -0.0000    constr:    0.0000
     atom:    4    charge:    1.7152    magn:    0.0000    constr:    0.0000
     atom:    5    charge:    1.7168    magn:   -0.0001    constr:    0.0000
     atom:    6    charge:    1.7146    magn:    0.0001    constr:    0.0000
     atom:    7    charge:    1.7168    magn:   -0.0000    constr:    0.0000
     atom:    8    charge:    1.7152    magn:    0.0000    constr:    0.0000
     atom:    9    charge:    1.7155    magn:   -0.0000    constr:    0.0000
     atom:   10    charge:    1.7176    magn:   -0.0000    constr:    0.0000
     atom:   11    charge:    1.7155    magn:    0.0000    constr:    0.0000
     atom:   12    charge:    1.7177    magn:   -0.0000    constr:    0.0000
     atom:   13    charge:    1.7155    magn:    0.0000    constr:    0.0000
     atom:   14    charge:    1.7175    magn:    0.0000    constr:    0.0000
     atom:   15    charge:    1.7117    magn:   -0.0000    constr:    0.0000
     atom:   16    charge:    1.7114    magn:    0.0000    constr:    0.0000
     atom:   17    charge:    1.7206    magn:   -0.0000    constr:    0.0000
     atom:   18    charge:    1.7114    magn:    0.0000    constr:    0.0000
     atom:   19    charge:    1.7118    magn:   -0.0000    constr:    0.0000
     atom:   20    charge:    1.7175    magn:    0.0000    constr:    0.0000
     atom:   21    charge:    1.7156    magn:    0.0000    constr:    0.0000
     atom:   22    charge:    1.7176    magn:   -0.0000    constr:    0.0000
     atom:   23    charge:    1.7155    magn:   -0.0000    constr:    0.0000
     atom:   24    charge:    1.7152    magn:    0.0000    constr:    0.0000
     atom:   25    charge:    1.7118    magn:   -0.0000    constr:    0.0000
     atom:   26    charge:    1.7114    magn:    0.0000    constr:    0.0000
     atom:   27    charge:    1.8182    magn:   -0.0000    constr:    0.0000
     atom:   28    charge:   13.4053    magn:    0.0001    constr:    0.0000
     atom:   29    charge:    1.8182    magn:   -0.0000    constr:    0.0000
     atom:   30    charge:    1.7114    magn:    0.0000    constr:    0.0000
     atom:   31    charge:    1.7118    magn:   -0.0000    constr:    0.0000
     atom:   32    charge:    1.7152    magn:    0.0000    constr:    0.0000
     atom:   33    charge:    1.7168    magn:   -0.0000    constr:    0.0000
     atom:   34    charge:    1.7154    magn:    0.0001    constr:    0.0000
     atom:   35    charge:    1.7168    magn:   -0.0001    constr:    0.0000
     atom:   36    charge:    1.7146    magn:    0.0001    constr:    0.0000
     atom:   37    charge:    1.7206    magn:   -0.0000    constr:    0.0000
     atom:   38    charge:    1.7114    magn:    0.0000    constr:    0.0000
     atom:   39    charge:    1.8182    magn:   -0.0000    constr:    0.0000
     atom:   40    charge:    1.7114    magn:    0.0000    constr:    0.0000
     atom:   41    charge:    1.7206    magn:   -0.0000    constr:    0.0000
     atom:   42    charge:    1.7146    magn:    0.0001    constr:    0.0000
     atom:   43    charge:    1.7168    magn:   -0.0001    constr:    0.0000
     atom:   44    charge:    1.7154    magn:    0.0001    constr:    0.0000
     atom:   45    charge:    1.7212    magn:   -0.0001    constr:    0.0000
     atom:   46    charge:    1.7154    magn:    0.0001    constr:    0.0000
     atom:   47    charge:    1.7168    magn:   -0.0001    constr:    0.0000
     atom:   48    charge:    1.7152    magn:    0.0000    constr:    0.0000
     atom:   49    charge:    1.7118    magn:   -0.0000    constr:    0.0000
     atom:   50    charge:    1.7175    magn:    0.0000    constr:    0.0000
     atom:   51    charge:    1.7117    magn:   -0.0000    constr:    0.0000
     atom:   52    charge:    1.7152    magn:    0.0000    constr:    0.0000

     total cpu time spent up to now is     3050.5 secs

     End of self-consistent calculation

 ------ SPIN UP ------------


          k = 0.0000 0.0000 0.0000 ( 87777 PWs)   bands (ev):

  -107.9203 -69.0888 -69.0887 -67.0044 -19.8261 -19.0068 -19.0067 -18.8880
   -18.8879 -18.8029 -18.7358 -17.1629 -17.1627 -17.1279 -17.0789 -17.0786
   -16.7528 -16.3119 -16.3118 -16.1652 -16.1651 -16.1519 -15.6696 -14.3103
   -14.3101 -14.1497 -14.0159 -14.0157 -13.5138 -13.1281 -13.1280 -13.0764
   -12.9004 -12.9003 -12.5001 -12.0755 -12.0754 -11.7118 -11.5677 -11.5677
   -10.9340 -10.4320 -10.4319  -9.5769  -9.3652  -9.3651  -9.2259  -9.2109
    -9.2109  -9.1962  -8.9523  -8.9522  -8.5927  -8.5926  -8.4570  -7.9422
    -7.9013  -7.8462  -7.8459  -7.6635  -7.5411  -7.5410  -7.4479  -7.4479
    -6.8458  -6.8210  -6.8209  -6.7519  -6.6969  -6.6188  -6.6186  -6.5547
    -6.5497  -6.5497  -6.5162  -6.4923  -6.4250  -6.4249  -6.3776  -6.2889
    -6.2888  -5.5461  -5.5461  -5.0301  -4.9490  -4.8420  -4.8420  -4.7573
    -4.7159  -4.7156  -4.4275  -4.3983  -4.3981  -3.8358  -3.8356  -3.7640
    -3.7582  -3.7582  -3.7310  -3.4194  -3.4192  -3.3507  -1.8913  -1.8058
    -1.8055  -1.5899  -1.5893  -1.1572   0.1072   0.1072   0.9049   0.9633
     0.9636   1.2132   1.2133   1.5500   2.4938   2.8034   2.8039   2.8529
     3.0405   3.0408   3.4210   3.6037   3.6100   3.7362   3.7383   3.7624
     3.8046   3.9702

     occupation numbers 
     1.0000   1.0000   1.0000   1.0000   1.0000   1.0000   1.0000   1.0000
     1.0000   1.0000   1.0000   1.0000   1.0000   1.0000   1.0000   1.0000
     1.0000   1.0000   1.0000   1.0000   1.0000   1.0000   1.0000   1.0000
     1.0000   1.0000   1.0000   1.0000   1.0000   1.0000   1.0000   1.0000
     1.0000   1.0000   1.0000   1.0000   1.0000   1.0000   1.0000   1.0000
     1.0000   1.0000   1.0000   1.0000   1.0000   1.0000   1.0000   1.0000
     1.0000   1.0000   1.0000   1.0000   1.0000   1.0000   1.0000   1.0000
     1.0000   1.0000   1.0000   1.0000   1.0000   1.0000   1.0000   1.0000
     1.0000   1.0000   1.0000   1.0000   1.0000   1.0000   1.0000   1.0000
     1.0000   1.0000   1.0000   1.0000   1.0000   1.0000   1.0000   1.0000
     1.0000   1.0000   1.0000   1.0000   1.0000   1.0000   1.0000   1.0000
     1.0000   1.0000   1.0000   1.0000   1.0000   1.0000   1.0000   1.0000
     1.0000   1.0000   1.0000   1.0000   1.0000   1.0000   1.0000   1.0000
     1.0000   1.0000   1.0000   1.0000   0.0000   0.0000   0.0000   0.0000
     0.0000   0.0000   0.0000   0.0000   0.0000   0.0000   0.0000   0.0000
     0.0000   0.0000   0.0000   0.0000   0.0000   0.0000   0.0000   0.0000
     0.0000   0.0000

 ------ SPIN DOWN ----------


          k = 0.0000 0.0000 0.0000 ( 87777 PWs)   bands (ev):

  -107.9200 -69.0885 -69.0883 -67.0042 -19.8261 -19.0068 -19.0067 -18.8880
   -18.8879 -18.8029 -18.7358 -17.1629 -17.1627 -17.1279 -17.0789 -17.0786
   -16.7528 -16.3119 -16.3118 -16.1653 -16.1652 -16.1519 -15.6696 -14.3104
   -14.3102 -14.1497 -14.0158 -14.0156 -13.5139 -13.1280 -13.1280 -13.0764
   -12.9004 -12.9003 -12.5000 -12.0755 -12.0754 -11.7118 -11.5677 -11.5677
   -10.9340 -10.4319 -10.4319  -9.5768  -9.3652  -9.3651  -9.2259  -9.2109
    -9.2109  -9.1962  -8.9523  -8.9522  -8.5926  -8.5926  -8.4570  -7.9422
    -7.9013  -7.8461  -7.8459  -7.6635  -7.5411  -7.5410  -7.4479  -7.4478
    -6.8458  -6.8211  -6.8209  -6.7519  -6.6969  -6.6188  -6.6186  -6.5547
    -6.5497  -6.5497  -6.5162  -6.4923  -6.4250  -6.4249  -6.3776  -6.2889
    -6.2888  -5.5461  -5.5461  -5.0301  -4.9490  -4.8420  -4.8420  -4.7573
    -4.7159  -4.7155  -4.4275  -4.3983  -4.3981  -3.8357  -3.8356  -3.7640
    -3.7582  -3.7582  -3.7309  -3.4193  -3.4191  -3.3507  -1.8913  -1.8056
    -1.8054  -1.5899  -1.5893  -1.1574   0.1072   0.1072   0.9048   0.9634
     0.9637   1.2132   1.2133   1.5501   2.4938   2.8034   2.8038   2.8529
     3.0405   3.0408   3.4211   3.6036   3.6100   3.7362   3.7383   3.7626
     3.8046   3.9703

     occupation numbers 
     1.0000   1.0000   1.0000   1.0000   1.0000   1.0000   1.0000   1.0000
     1.0000   1.0000   1.0000   1.0000   1.0000   1.0000   1.0000   1.0000
     1.0000   1.0000   1.0000   1.0000   1.0000   1.0000   1.0000   1.0000
     1.0000   1.0000   1.0000   1.0000   1.0000   1.0000   1.0000   1.0000
     1.0000   1.0000   1.0000   1.0000   1.0000   1.0000   1.0000   1.0000
     1.0000   1.0000   1.0000   1.0000   1.0000   1.0000   1.0000   1.0000
     1.0000   1.0000   1.0000   1.0000   1.0000   1.0000   1.0000   1.0000
     1.0000   1.0000   1.0000   1.0000   1.0000   1.0000   1.0000   1.0000
     1.0000   1.0000   1.0000   1.0000   1.0000   1.0000   1.0000   1.0000
     1.0000   1.0000   1.0000   1.0000   1.0000   1.0000   1.0000   1.0000
     1.0000   1.0000   1.0000   1.0000   1.0000   1.0000   1.0000   1.0000
     1.0000   1.0000   1.0000   1.0000   1.0000   1.0000   1.0000   1.0000
     1.0000   1.0000   1.0000   1.0000   1.0000   1.0000   1.0000   1.0000
     1.0000   1.0000   1.0000   1.0000   0.0000   0.0000   0.0000   0.0000
     0.0000   0.0000   0.0000   0.0000   0.0000   0.0000   0.0000   0.0000
     0.0000   0.0000   0.0000   0.0000   0.0000   0.0000   0.0000   0.0000
     0.0000   0.0000

     the Fermi energy is    -0.3754 ev

!    total energy              =    -951.88651813 Ry
     Harris-Foulkes estimate   =    -951.88651817 Ry
     estimated scf accuracy    <       0.00000033 Ry

     The total energy is the sum of the following terms:

     one-electron contribution =   -2962.60298390 Ry
     hartree contribution      =    1523.94909593 Ry
     xc contribution           =    -265.71431278 Ry
     ewald contribution        =     752.48168261 Ry
     smearing contrib. (-TS)   =       0.00000000 Ry

     total magnetization       =    -0.00 Bohr mag/cell
     absolute magnetization    =     0.00 Bohr mag/cell

     convergence has been achieved in  32 iterations

     Writing output data file distance-4.0.save/

     init_run     :     70.40s CPU     71.71s WALL (       1 calls)
     electrons    :   2923.53s CPU   2977.78s WALL (       1 calls)

     Called by init_run:
     wfcinit      :     41.97s CPU     42.19s WALL (       1 calls)
     wfcinit:atom :      0.07s CPU      0.10s WALL (       2 calls)
     wfcinit:wfcr :     41.55s CPU     41.67s WALL (       2 calls)
     potinit      :     11.94s CPU     12.41s WALL (       1 calls)
     hinit0       :      7.61s CPU      7.64s WALL (       1 calls)

     Called by electrons:
     c_bands      :   1840.67s CPU   1849.73s WALL (      32 calls)
     sum_band     :    625.89s CPU    644.06s WALL (      32 calls)
     v_of_rho     :    229.74s CPU    241.65s WALL (      33 calls)
     v_h          :      2.45s CPU      2.52s WALL (      33 calls)
     v_xc         :    227.30s CPU    239.13s WALL (      33 calls)
     newd         :    220.88s CPU    236.66s WALL (      33 calls)
     mix_rho      :     14.06s CPU     14.23s WALL (      32 calls)

     Called by c_bands:
     init_us_2    :      5.84s CPU      5.88s WALL (     130 calls)
     cegterg      :   1825.84s CPU   1834.85s WALL (      64 calls)

     Called by sum_band:
     sum_band:bec :      0.05s CPU      0.05s WALL (      64 calls)
     addusdens    :    391.94s CPU    408.68s WALL (      32 calls)

     Called by *egterg:
     h_psi        :    972.11s CPU    978.61s WALL (     256 calls)
     s_psi        :    314.23s CPU    314.30s WALL (     256 calls)
     g_psi        :      1.16s CPU      1.16s WALL (     190 calls)
     cdiaghg      :     17.87s CPU     17.87s WALL (     254 calls)
     cegterg:over :    225.99s CPU    226.05s WALL (     190 calls)
     cegterg:upda :    135.38s CPU    135.99s WALL (     190 calls)
     cegterg:last :     97.35s CPU     97.36s WALL (      64 calls)

     Called by h_psi:
     h_psi:pot    :    971.12s CPU    976.22s WALL (     256 calls)
     h_psi:calbec :    314.69s CPU    314.75s WALL (     256 calls)
     vloc_psi     :    343.12s CPU    348.13s WALL (     256 calls)
     add_vuspsi   :    313.30s CPU    313.34s WALL (     256 calls)

     General routines
     calbec       :    450.17s CPU    450.28s WALL (     320 calls)
     fft          :    129.91s CPU    134.26s WALL (    2469 calls)
     ffts         :      2.30s CPU      2.36s WALL (     130 calls)
     fftw         :    368.29s CPU    373.75s WALL (   46668 calls)
     interpolate  :      5.46s CPU      5.58s WALL (      66 calls)

     Parallel routines
     fft_scatt_xy :     90.83s CPU     91.79s WALL (   49267 calls)
     fft_scatt_yz :    161.32s CPU    168.37s WALL (   49267 calls)

     PWSCF        :  49m55.29s CPU  50m51.17s WALL


   This run was terminated on:  10:42:25  24Dec2022            

=------------------------------------------------------------------------------=
   JOB DONE.
=------------------------------------------------------------------------------=
