
     Program PWSCF v.6.4.1 starts on 24Dec2022 at  8:17: 7 

     This program is part of the open-source Quantum ESPRESSO suite
     for quantum simulation of materials; please cite
         "P. Giannozzi et al., J. Phys.:Condens. Matter 21 395502 (2009);
         "P. Giannozzi et al., J. Phys.:Condens. Matter 29 465901 (2017);
          URL http://www.quantum-espresso.org", 
     in publications or presentations arising from this work. More details at
     http://www.quantum-espresso.org/quote

     Parallel version (MPI), running on     6 processors

     MPI processes distributed on     1 nodes
     R & G space division:  proc/nbgrp/npool/nimage =       6
     Reading input from distance-5.0.in

     Current dimensions of program PWSCF are:
     Max number of different atomic species (ntypx) = 10
     Max number of k-points (npk) =  40000
     Max angular momentum in pseudopotentials (lmaxx) =  3

     IMPORTANT: XC functional enforced from input :
     Exchange-correlation      = RVV10 ( 1  4 13  4 3 0)
     Any further DFT definition will be discarded
     Please, verify this is what you really want

               file H.pbe-rrkjus.UPF: wavefunction(s)  1S renormalized

     Subspace diagonalization in iterative solution of the eigenvalue problem:
     a serial algorithm will be used


     Parallelization info
     --------------------
     sticks:   dense  smooth     PW     G-vecs:    dense   smooth      PW
     Min        3051    1746    432               270999   117096   14629
     Max        3053    1747    437               271001   117099   14630
     Sum       18313   10477   2611              1626001   702581   87777



     bravais-lattice index     =            4
     lattice parameter (alat)  =      23.2937  a.u.
     unit-cell volume          =    8879.8548 (a.u.)^3
     number of atoms/cell      =           52
     number of atomic types    =            3
     number of electrons       =       216.00
     number of Kohn-Sham states=          130
     kinetic-energy cutoff     =      70.0000  Ry
     charge density cutoff     =     490.0000  Ry
     convergence threshold     =      1.0E-06
     mixing beta               =       0.7000
     number of iterations used =            8  plain     mixing
     Exchange-correlation      = RVV10 ( 1  4 13  4 3 0)

     celldm(1)=  23.293684  celldm(2)=   0.000000  celldm(3)=   0.811261
     celldm(4)=   0.000000  celldm(5)=   0.000000  celldm(6)=   0.000000

     crystal axes: (cart. coord. in units of alat)
               a(1) = (   1.000000   0.000000   0.000000 )  
               a(2) = (  -0.500000   0.866025   0.000000 )  
               a(3) = (   0.000000   0.000000   0.811261 )  

     reciprocal axes: (cart. coord. in units 2 pi/alat)
               b(1) = (  1.000000  0.577350 -0.000000 )  
               b(2) = (  0.000000  1.154701  0.000000 )  
               b(3) = (  0.000000 -0.000000  1.232649 )  


     PseudoPot. # 1 for H  read from file:
     /home/cristian/Escritorio/Proyecto_Grafeno/pseudopotenciales/H.pbe-rrkjus.UPF
     MD5 check sum: 7cc9d459525c9a0585f487a71c3c9563
     Pseudo is Ultrasoft, Zval =  1.0
     Generated by new atomic code, or converted to UPF format
     Using radial grid of 1061 points,  2 beta functions with: 
                l(1) =   0
                l(2) =   0
     Q(r) pseudized with 0 coefficients 


     PseudoPot. # 2 for C  read from file:
     /home/cristian/Escritorio/Proyecto_Grafeno/pseudopotenciales/C.pbe-n-rrkjus_psl.1.0.0.UPF
     MD5 check sum: 1fdd950c42eb37d8afe3dd2f8d12311e
     Pseudo is Ultrasoft + core correction, Zval =  4.0
     Generated using "atomic" code by A. Dal Corso v.6.3MaX
     Using radial grid of 1073 points,  4 beta functions with: 
                l(1) =   0
                l(2) =   0
                l(3) =   1
                l(4) =   1
     Q(r) pseudized with 0 coefficients 


     PseudoPot. # 3 for Ni read from file:
     /home/cristian/Escritorio/Proyecto_Grafeno/pseudopotenciales/Ni.pbe-spn-rrkjus_psl.1.0.0.UPF
     MD5 check sum: 8b3fc9aac6dafe35f580d41bb18c3945
     Pseudo is Ultrasoft + core correction, Zval = 18.0
     Generated using "atomic" code by A. Dal Corso v.6.3
     Using radial grid of 1195 points,  6 beta functions with: 
                l(1) =   0
                l(2) =   0
                l(3) =   1
                l(4) =   1
                l(5) =   2
                l(6) =   2
     Q(r) pseudized with 0 coefficients 


     vdW kernel table read from file rVV10_kernel_table
     MD5 check sum: b8e2538accc0c0b3206b45ba4daaba6c

     atomic species   valence    mass     pseudopotential
        H              1.00     1.00794     H ( 1.00)
        C              4.00    12.01070     C ( 1.00)
        Ni            18.00    58.69340     Ni( 1.00)

     Starting magnetic structure 
     atomic species   magnetization
        H            0.500
        C            0.300
        Ni           0.800

      2 Sym. Ops. (no inversion) found


                                    s                        frac. trans.

      isym =  1     identity                                     

 cryst.   s( 1) = (     1          0          0      )
                  (     0          1          0      )
                  (     0          0          1      )

 cart.    s( 1) = (  1.0000000  0.0000000  0.0000000 )
                  (  0.0000000  1.0000000  0.0000000 )
                  (  0.0000000  0.0000000  1.0000000 )


      isym =  2     inv. 180 deg rotation - cryst. axis [1,1,0]  

 cryst.   s( 2) = (     0         -1          0      )
                  (    -1          0          0      )
                  (     0          0          1      )

 cart.    s( 2) = (  0.5000000 -0.8660254  0.0000000 )
                  ( -0.8660254 -0.5000000  0.0000000 )
                  (  0.0000000  0.0000000  1.0000000 )


     point group C_s (m)    
     there are  2 classes
     the character table:

       E     s    
A'     1.00  1.00
A''    1.00 -1.00

     the symmetry operations in each class and the name of the first element:

     E        1
          identity                                               
     s        2
          inv. 180 deg rotation - cryst. axis [1,1,0]            

   Cartesian axes

     site n.     atom                  positions (alat units)
         1           H   tau(   1) = (   0.2500000   0.4330127   0.4056306  )
         2           H   tau(   2) = (   0.2500000   0.4330127   0.4666433  )
         3           C   tau(   3) = (   0.0000000   0.0000000   0.0000000  )
         4           C   tau(   4) = (   0.0000000   0.1154701   0.0000000  )
         5           C   tau(   5) = (  -0.1000000   0.1732051   0.0000000  )
         6           C   tau(   6) = (  -0.1000000   0.2886751   0.0000000  )
         7           C   tau(   7) = (  -0.2000000   0.3464102   0.0000000  )
         8           C   tau(   8) = (  -0.2000000   0.4618802   0.0000000  )
         9           C   tau(   9) = (  -0.3000000   0.5196152   0.0000000  )
        10           C   tau(  10) = (  -0.3000000   0.6350853   0.0000000  )
        11           C   tau(  11) = (  -0.4000000   0.6928203   0.0000000  )
        12           C   tau(  12) = (  -0.4000000   0.8082904   0.0000000  )
        13           C   tau(  13) = (   0.2000000   0.0000000   0.0000000  )
        14           C   tau(  14) = (   0.2000000   0.1154701   0.0000000  )
        15           C   tau(  15) = (   0.1000000   0.1732051   0.0000000  )
        16           C   tau(  16) = (   0.1000000   0.2886751   0.0000000  )
        17           C   tau(  17) = (   0.0000000   0.3464102   0.0000000  )
        18           C   tau(  18) = (   0.0000000   0.4618802   0.0000000  )
        19           C   tau(  19) = (  -0.1000000   0.5196152   0.0000000  )
        20           C   tau(  20) = (  -0.1000000   0.6350853   0.0000000  )
        21           C   tau(  21) = (  -0.2000000   0.6928203   0.0000000  )
        22           C   tau(  22) = (  -0.2000000   0.8082904   0.0000000  )
        23           C   tau(  23) = (   0.4000000   0.0000000   0.0000000  )
        24           C   tau(  24) = (   0.4000000   0.1154701   0.0000000  )
        25           C   tau(  25) = (   0.3000000   0.1732051   0.0000000  )
        26           C   tau(  26) = (   0.3000000   0.2886751   0.0000000  )
        27           C   tau(  27) = (   0.2000000   0.3464102   0.0000000  )
        28           Ni  tau(  28) = (   0.2000000   0.4618802   0.0000000  )
        29           C   tau(  29) = (   0.1000000   0.5196152   0.0000000  )
        30           C   tau(  30) = (   0.1000000   0.6350853   0.0000000  )
        31           C   tau(  31) = (   0.0000000   0.6928203   0.0000000  )
        32           C   tau(  32) = (   0.0000000   0.8082904   0.0000000  )
        33           C   tau(  33) = (   0.6000000   0.0000000   0.0000000  )
        34           C   tau(  34) = (   0.6000000   0.1154701   0.0000000  )
        35           C   tau(  35) = (   0.5000000   0.1732051   0.0000000  )
        36           C   tau(  36) = (   0.5000000   0.2886751   0.0000000  )
        37           C   tau(  37) = (   0.4000000   0.3464102   0.0000000  )
        38           C   tau(  38) = (   0.4000000   0.4618802   0.0000000  )
        39           C   tau(  39) = (   0.3000000   0.5196152   0.0000000  )
        40           C   tau(  40) = (   0.3000000   0.6350853   0.0000000  )
        41           C   tau(  41) = (   0.2000000   0.6928203   0.0000000  )
        42           C   tau(  42) = (   0.2000000   0.8082904   0.0000000  )
        43           C   tau(  43) = (   0.8000000   0.0000000   0.0000000  )
        44           C   tau(  44) = (   0.8000000   0.1154701   0.0000000  )
        45           C   tau(  45) = (   0.7000000   0.1732051   0.0000000  )
        46           C   tau(  46) = (   0.7000000   0.2886751   0.0000000  )
        47           C   tau(  47) = (   0.6000000   0.3464102   0.0000000  )
        48           C   tau(  48) = (   0.6000000   0.4618802   0.0000000  )
        49           C   tau(  49) = (   0.5000000   0.5196152   0.0000000  )
        50           C   tau(  50) = (   0.5000000   0.6350853   0.0000000  )
        51           C   tau(  51) = (   0.4000000   0.6928203   0.0000000  )
        52           C   tau(  52) = (   0.4000000   0.8082904   0.0000000  )

   Crystallographic axes

     site n.     atom                  positions (cryst. coord.)
         1           H   tau(   1) = (  0.5000000  0.5000000  0.5000000  )
         2           H   tau(   2) = (  0.5000000  0.5000000  0.5752072  )
         3           C   tau(   3) = (  0.0000000  0.0000000  0.0000000  )
         4           C   tau(   4) = (  0.0666667  0.1333333  0.0000000  )
         5           C   tau(   5) = (  0.0000000  0.2000000  0.0000000  )
         6           C   tau(   6) = (  0.0666667  0.3333333  0.0000000  )
         7           C   tau(   7) = (  0.0000000  0.4000000  0.0000000  )
         8           C   tau(   8) = (  0.0666667  0.5333333  0.0000000  )
         9           C   tau(   9) = (  0.0000000  0.6000000  0.0000000  )
        10           C   tau(  10) = (  0.0666667  0.7333333  0.0000000  )
        11           C   tau(  11) = (  0.0000000  0.8000000  0.0000000  )
        12           C   tau(  12) = (  0.0666667  0.9333333  0.0000000  )
        13           C   tau(  13) = (  0.2000000  0.0000000  0.0000000  )
        14           C   tau(  14) = (  0.2666667  0.1333333  0.0000000  )
        15           C   tau(  15) = (  0.2000000  0.2000000  0.0000000  )
        16           C   tau(  16) = (  0.2666667  0.3333333  0.0000000  )
        17           C   tau(  17) = (  0.2000000  0.4000000  0.0000000  )
        18           C   tau(  18) = (  0.2666667  0.5333333  0.0000000  )
        19           C   tau(  19) = (  0.2000000  0.6000000  0.0000000  )
        20           C   tau(  20) = (  0.2666667  0.7333333  0.0000000  )
        21           C   tau(  21) = (  0.2000000  0.8000000  0.0000000  )
        22           C   tau(  22) = (  0.2666667  0.9333333  0.0000000  )
        23           C   tau(  23) = (  0.4000000  0.0000000  0.0000000  )
        24           C   tau(  24) = (  0.4666667  0.1333333  0.0000000  )
        25           C   tau(  25) = (  0.4000000  0.2000000  0.0000000  )
        26           C   tau(  26) = (  0.4666667  0.3333333  0.0000000  )
        27           C   tau(  27) = (  0.4000000  0.4000000  0.0000000  )
        28           Ni  tau(  28) = (  0.4666667  0.5333333  0.0000000  )
        29           C   tau(  29) = (  0.4000000  0.6000000  0.0000000  )
        30           C   tau(  30) = (  0.4666667  0.7333333  0.0000000  )
        31           C   tau(  31) = (  0.4000000  0.8000000  0.0000000  )
        32           C   tau(  32) = (  0.4666667  0.9333333  0.0000000  )
        33           C   tau(  33) = (  0.6000000  0.0000000  0.0000000  )
        34           C   tau(  34) = (  0.6666667  0.1333333  0.0000000  )
        35           C   tau(  35) = (  0.6000000  0.2000000  0.0000000  )
        36           C   tau(  36) = (  0.6666667  0.3333333  0.0000000  )
        37           C   tau(  37) = (  0.6000000  0.4000000  0.0000000  )
        38           C   tau(  38) = (  0.6666667  0.5333333  0.0000000  )
        39           C   tau(  39) = (  0.6000000  0.6000000  0.0000000  )
        40           C   tau(  40) = (  0.6666667  0.7333333  0.0000000  )
        41           C   tau(  41) = (  0.6000000  0.8000000  0.0000000  )
        42           C   tau(  42) = (  0.6666667  0.9333333  0.0000000  )
        43           C   tau(  43) = (  0.8000000  0.0000000  0.0000000  )
        44           C   tau(  44) = (  0.8666667  0.1333333  0.0000000  )
        45           C   tau(  45) = (  0.8000000  0.2000000  0.0000000  )
        46           C   tau(  46) = (  0.8666667  0.3333333  0.0000000  )
        47           C   tau(  47) = (  0.8000000  0.4000000  0.0000000  )
        48           C   tau(  48) = (  0.8666667  0.5333333  0.0000000  )
        49           C   tau(  49) = (  0.8000000  0.6000000  0.0000000  )
        50           C   tau(  50) = (  0.8666667  0.7333333  0.0000000  )
        51           C   tau(  51) = (  0.8000000  0.8000000  0.0000000  )
        52           C   tau(  52) = (  0.8666667  0.9333333  0.0000000  )

     number of k points=     1  Marzari-Vanderbilt smearing, width (Ry)=  0.0010
                       cart. coord. in units 2pi/alat
        k(    1) = (   0.0000000   0.0000000   0.0000000), wk =   1.0000000

                       cryst. coord.
        k(    1) = (   0.0000000   0.0000000   0.0000000), wk =   1.0000000

     Dense  grid:  1626001 G-vectors     FFT dimensions: ( 180, 180, 135)

     Smooth grid:   702581 G-vectors     FFT dimensions: ( 125, 125, 108)

     Dynamical RAM for                 wfc:      29.03 MB

     Dynamical RAM for     wfc (w. buffer):      87.10 MB

     Dynamical RAM for           str. fact:      12.41 MB

     Dynamical RAM for           local pot:       0.00 MB

     Dynamical RAM for          nlocal pot:      92.46 MB

     Dynamical RAM for                qrad:      19.73 MB

     Dynamical RAM for          rho,v,vnew:      58.92 MB

     Dynamical RAM for               rhoin:      19.64 MB

     Dynamical RAM for            rho*nmix:     132.32 MB

     Dynamical RAM for           G-vectors:      16.40 MB

     Dynamical RAM for          h,s,v(r/c):      12.38 MB

     Dynamical RAM for          <psi|beta>:       0.82 MB

     Dynamical RAM for                 psi:     116.14 MB

     Dynamical RAM for                hpsi:     116.14 MB

     Dynamical RAM for                spsi:     116.14 MB

     Dynamical RAM for      wfcinit/wfcrot:      93.90 MB

     Dynamical RAM for           addusdens:     975.89 MB

     Estimated static dynamical RAM per process >     489.64 MB

     Estimated max dynamical RAM per process >       1.43 GB

     Estimated total dynamical RAM >       8.59 GB
     Generating pointlists ...
     new r_m :   0.0252 (alat units)  0.5862 (a.u.) for type    1
     new r_m :   0.0476 (alat units)  1.1095 (a.u.) for type    2
     new r_m :   0.0476 (alat units)  1.1095 (a.u.) for type    3

     Check: negative core charge=   -0.000002

     Initial potential from superposition of free atoms

     starting charge  215.80530, renormalised to  216.00000

     negative rho (up, down):  1.350E-04 1.301E-02


---------------------------------------------------------------------------------
Carrying out rVV10 run using the following parameters:
Nqs =      20    Nr_points =    1024   r_max =   100.000
b_value =  6.30000    beta =  0.00901
     q_mesh =  0.00010000  0.00030000  0.00058939  0.00100810
               0.00161396  0.00249058  0.00375900  0.00559430
               0.00824984  0.01209221  0.01765183  0.02569619
               0.03733578  0.05417739  0.07854596  0.11380545
               0.16482331  0.23864234  0.34545298  0.50000000

Gradients computed in Reciprocal space

---------------------------------------------------------------------------------


     Starting wfcs are  208 randomized atomic wfcs

     total cpu time spent up to now is       67.7 secs

     Self-consistent Calculation

     iteration #  1     ecut=    70.00 Ry     beta= 0.70
     Davidson diagonalization with overlap
     ethr =  1.00E-02,  avg # of iterations =  4.5

     negative rho (up, down):  2.336E-04 1.146E-02

     total cpu time spent up to now is      178.9 secs

     total energy              =    -946.55989969 Ry
     Harris-Foulkes estimate   =    -949.77769128 Ry
     estimated scf accuracy    <      14.36821321 Ry

     total magnetization       =     6.00 Bohr mag/cell
     absolute magnetization    =     6.78 Bohr mag/cell

     iteration #  2     ecut=    70.00 Ry     beta= 0.70
     Davidson diagonalization with overlap
     ethr =  6.65E-03,  avg # of iterations =  4.0

     negative rho (up, down):  5.340E-04 5.649E-02

     total cpu time spent up to now is      281.3 secs

     total energy              =    -945.88460348 Ry
     Harris-Foulkes estimate   =    -957.76665216 Ry
     estimated scf accuracy    <      33.06210002 Ry

     total magnetization       =     4.00 Bohr mag/cell
     absolute magnetization    =     4.57 Bohr mag/cell

     iteration #  3     ecut=    70.00 Ry     beta= 0.70
     Davidson diagonalization with overlap
     ethr =  6.65E-03,  avg # of iterations =  4.5

     negative rho (up, down):  1.175E-03 2.387E-01

     total cpu time spent up to now is      369.2 secs

     total energy              =    -950.52384357 Ry
     Harris-Foulkes estimate   =    -952.89866611 Ry
     estimated scf accuracy    <      19.70371952 Ry

     total magnetization       =     4.00 Bohr mag/cell
     absolute magnetization    =     7.11 Bohr mag/cell

     iteration #  4     ecut=    70.00 Ry     beta= 0.70
     Davidson diagonalization with overlap
     ethr =  6.65E-03,  avg # of iterations =  3.0

     negative rho (up, down):  9.442E-02 5.332E-01

     total cpu time spent up to now is      463.5 secs

     total energy              =    -943.58363443 Ry
     Harris-Foulkes estimate   =    -963.05866646 Ry
     estimated scf accuracy    <     616.09369996 Ry

     total magnetization       =     2.00 Bohr mag/cell
     absolute magnetization    =    37.69 Bohr mag/cell

     iteration #  5     ecut=    70.00 Ry     beta= 0.70
     Davidson diagonalization with overlap
     ethr =  6.65E-03,  avg # of iterations =  3.5

     negative rho (up, down):  7.778E-02 4.415E-01

     total cpu time spent up to now is      561.7 secs

     total energy              =    -950.76691964 Ry
     Harris-Foulkes estimate   =    -952.72413144 Ry
     estimated scf accuracy    <      19.23715345 Ry

     total magnetization       =     2.00 Bohr mag/cell
     absolute magnetization    =     4.02 Bohr mag/cell

     iteration #  6     ecut=    70.00 Ry     beta= 0.70
     Davidson diagonalization with overlap
     ethr =  6.65E-03,  avg # of iterations =  2.0

     negative rho (up, down):  9.619E-03 4.257E-01

     total cpu time spent up to now is      641.8 secs

     total energy              =    -951.66508854 Ry
     Harris-Foulkes estimate   =    -951.93934773 Ry
     estimated scf accuracy    <      19.78397578 Ry

     total magnetization       =     0.00 Bohr mag/cell
     absolute magnetization    =     6.70 Bohr mag/cell

     iteration #  7     ecut=    70.00 Ry     beta= 0.70
     Davidson diagonalization with overlap
     ethr =  6.65E-03,  avg # of iterations =  2.0

     negative rho (up, down):  4.790E-02 4.293E-01

     total cpu time spent up to now is      727.1 secs

     total energy              =    -950.31248519 Ry
     Harris-Foulkes estimate   =    -953.43069563 Ry
     estimated scf accuracy    <     113.16807414 Ry

     total magnetization       =     0.00 Bohr mag/cell
     absolute magnetization    =    16.07 Bohr mag/cell

     iteration #  8     ecut=    70.00 Ry     beta= 0.70
     Davidson diagonalization with overlap
     ethr =  6.65E-03,  avg # of iterations =  2.0

     negative rho (up, down):  1.651E-02 3.728E-01

     total cpu time spent up to now is      809.8 secs

     total energy              =    -951.70042675 Ry
     Harris-Foulkes estimate   =    -951.73535370 Ry
     estimated scf accuracy    <       1.89328127 Ry

     total magnetization       =    -0.00 Bohr mag/cell
     absolute magnetization    =     2.35 Bohr mag/cell

     iteration #  9     ecut=    70.00 Ry     beta= 0.70
     Davidson diagonalization with overlap
     ethr =  8.77E-04,  avg # of iterations =  3.5

     negative rho (up, down):  2.894E-02 2.033E-01

     total cpu time spent up to now is      892.7 secs

     total energy              =    -951.83638846 Ry
     Harris-Foulkes estimate   =    -951.87301184 Ry
     estimated scf accuracy    <       1.27126681 Ry

     total magnetization       =     0.00 Bohr mag/cell
     absolute magnetization    =     0.86 Bohr mag/cell

     iteration # 10     ecut=    70.00 Ry     beta= 0.70
     Davidson diagonalization with overlap
     ethr =  5.89E-04,  avg # of iterations =  2.0

     negative rho (up, down):  2.473E-02 1.797E-01

     total cpu time spent up to now is      974.8 secs

     total energy              =    -951.84858352 Ry
     Harris-Foulkes estimate   =    -951.92514796 Ry
     estimated scf accuracy    <       2.22740065 Ry

     total magnetization       =    -0.00 Bohr mag/cell
     absolute magnetization    =     1.56 Bohr mag/cell

     iteration # 11     ecut=    70.00 Ry     beta= 0.70
     Davidson diagonalization with overlap
     ethr =  5.89E-04,  avg # of iterations =  2.0

     negative rho (up, down):  2.336E-02 2.476E-01

     total cpu time spent up to now is     1055.7 secs

     total energy              =    -951.80439896 Ry
     Harris-Foulkes estimate   =    -951.90113430 Ry
     estimated scf accuracy    <       1.54841751 Ry

     total magnetization       =     0.00 Bohr mag/cell
     absolute magnetization    =     1.51 Bohr mag/cell

     iteration # 12     ecut=    70.00 Ry     beta= 0.70
     Davidson diagonalization with overlap
     ethr =  5.89E-04,  avg # of iterations =  1.5

     negative rho (up, down):  1.563E-02 1.661E-01

     total cpu time spent up to now is     1136.3 secs

     total energy              =    -951.87545913 Ry
     Harris-Foulkes estimate   =    -951.90324342 Ry
     estimated scf accuracy    <       1.60073293 Ry

     total magnetization       =     0.00 Bohr mag/cell
     absolute magnetization    =     1.56 Bohr mag/cell

     iteration # 13     ecut=    70.00 Ry     beta= 0.70
     Davidson diagonalization with overlap
     ethr =  5.89E-04,  avg # of iterations =  1.5

     negative rho (up, down):  1.503E-02 1.284E-01

     total cpu time spent up to now is     1215.1 secs

     total energy              =    -951.87488508 Ry
     Harris-Foulkes estimate   =    -951.88635399 Ry
     estimated scf accuracy    <       0.34225334 Ry

     total magnetization       =     0.00 Bohr mag/cell
     absolute magnetization    =     0.73 Bohr mag/cell

     iteration # 14     ecut=    70.00 Ry     beta= 0.70
     Davidson diagonalization with overlap
     ethr =  1.58E-04,  avg # of iterations =  1.5

     negative rho (up, down):  3.312E-03 9.224E-02

     total cpu time spent up to now is     1294.4 secs

     total energy              =    -951.88476481 Ry
     Harris-Foulkes estimate   =    -951.88153406 Ry
     estimated scf accuracy    <       0.00202051 Ry

     total magnetization       =     0.00 Bohr mag/cell
     absolute magnetization    =     0.14 Bohr mag/cell

     iteration # 15     ecut=    70.00 Ry     beta= 0.70
     Davidson diagonalization with overlap
     ethr =  9.35E-07,  avg # of iterations = 11.0

     negative rho (up, down):  1.285E-03 4.291E-02

     total cpu time spent up to now is     1398.7 secs

     total energy              =    -951.88600408 Ry
     Harris-Foulkes estimate   =    -951.88523694 Ry
     estimated scf accuracy    <       0.00047312 Ry

     total magnetization       =     0.00 Bohr mag/cell
     absolute magnetization    =     0.08 Bohr mag/cell

     iteration # 16     ecut=    70.00 Ry     beta= 0.70
     Davidson diagonalization with overlap
     ethr =  2.19E-07,  avg # of iterations =  3.5

     negative rho (up, down):  1.019E-03 3.503E-02

     total cpu time spent up to now is     1490.0 secs

     total energy              =    -951.88625907 Ry
     Harris-Foulkes estimate   =    -951.88610180 Ry
     estimated scf accuracy    <       0.00159604 Ry

     total magnetization       =    -0.00 Bohr mag/cell
     absolute magnetization    =     0.10 Bohr mag/cell

     iteration # 17     ecut=    70.00 Ry     beta= 0.70
     Davidson diagonalization with overlap
     ethr =  2.19E-07,  avg # of iterations =  2.0

     negative rho (up, down):  1.049E-03 8.902E-02

     total cpu time spent up to now is     1572.7 secs

     total energy              =    -951.88602798 Ry
     Harris-Foulkes estimate   =    -951.88629764 Ry
     estimated scf accuracy    <       0.00463203 Ry

     total magnetization       =     0.00 Bohr mag/cell
     absolute magnetization    =     0.13 Bohr mag/cell

     iteration # 18     ecut=    70.00 Ry     beta= 0.70
     Davidson diagonalization with overlap
     ethr =  2.19E-07,  avg # of iterations =  2.0

     negative rho (up, down):  1.034E-03 4.927E-02

     total cpu time spent up to now is     1656.9 secs

     total energy              =    -951.88621084 Ry
     Harris-Foulkes estimate   =    -951.88607938 Ry
     estimated scf accuracy    <       0.00030298 Ry

     total magnetization       =     0.00 Bohr mag/cell
     absolute magnetization    =     0.06 Bohr mag/cell

     iteration # 19     ecut=    70.00 Ry     beta= 0.70
     Davidson diagonalization with overlap
     ethr =  1.40E-07,  avg # of iterations =  2.5

     negative rho (up, down):  1.101E-03 8.084E-02

     total cpu time spent up to now is     1741.2 secs

     total energy              =    -951.88612280 Ry
     Harris-Foulkes estimate   =    -951.88625951 Ry
     estimated scf accuracy    <       0.00388593 Ry

     total magnetization       =    -0.00 Bohr mag/cell
     absolute magnetization    =     0.12 Bohr mag/cell

     iteration # 20     ecut=    70.00 Ry     beta= 0.70
     Davidson diagonalization with overlap
     ethr =  1.40E-07,  avg # of iterations =  1.5

     negative rho (up, down):  1.101E-03 7.888E-02

     total cpu time spent up to now is     1820.6 secs

     total energy              =    -951.88606869 Ry
     Harris-Foulkes estimate   =    -951.88613600 Ry
     estimated scf accuracy    <       0.00230797 Ry

     total magnetization       =    -0.00 Bohr mag/cell
     absolute magnetization    =     0.09 Bohr mag/cell

     iteration # 21     ecut=    70.00 Ry     beta= 0.70
     Davidson diagonalization with overlap
     ethr =  1.40E-07,  avg # of iterations =  2.0

     negative rho (up, down):  1.053E-03 4.824E-02

     total cpu time spent up to now is     1901.5 secs

     total energy              =    -951.88618339 Ry
     Harris-Foulkes estimate   =    -951.88609623 Ry
     estimated scf accuracy    <       0.00044963 Ry

     total magnetization       =    -0.00 Bohr mag/cell
     absolute magnetization    =     0.05 Bohr mag/cell

     iteration # 22     ecut=    70.00 Ry     beta= 0.70
     Davidson diagonalization with overlap
     ethr =  1.40E-07,  avg # of iterations =  1.5

     negative rho (up, down):  1.029E-03 2.130E-02

     total cpu time spent up to now is     1980.9 secs

     total energy              =    -951.88623946 Ry
     Harris-Foulkes estimate   =    -951.88619247 Ry
     estimated scf accuracy    <       0.00003407 Ry

     total magnetization       =     0.00 Bohr mag/cell
     absolute magnetization    =     0.03 Bohr mag/cell

     iteration # 23     ecut=    70.00 Ry     beta= 0.70
     Davidson diagonalization with overlap
     ethr =  1.58E-08,  avg # of iterations =  2.5

     negative rho (up, down):  1.028E-03 1.241E-02

     total cpu time spent up to now is     2062.1 secs

     total energy              =    -951.88624512 Ry
     Harris-Foulkes estimate   =    -951.88624125 Ry
     estimated scf accuracy    <       0.00003389 Ry

     total magnetization       =     0.00 Bohr mag/cell
     absolute magnetization    =     0.02 Bohr mag/cell

     iteration # 24     ecut=    70.00 Ry     beta= 0.70
     Davidson diagonalization with overlap
     ethr =  1.57E-08,  avg # of iterations =  1.5

     negative rho (up, down):  1.023E-03 1.143E-03

     total cpu time spent up to now is     2142.1 secs

     total energy              =    -951.88625114 Ry
     Harris-Foulkes estimate   =    -951.88624654 Ry
     estimated scf accuracy    <       0.00000979 Ry

     total magnetization       =    -0.00 Bohr mag/cell
     absolute magnetization    =     0.02 Bohr mag/cell

     iteration # 25     ecut=    70.00 Ry     beta= 0.70
     Davidson diagonalization with overlap
     ethr =  4.53E-09,  avg # of iterations =  2.0

     negative rho (up, down):  1.022E-03 1.600E-05

     Magnetic moment per site:
     atom:    1    charge:    0.2116    magn:    0.0000    constr:    0.0000
     atom:    2    charge:    0.2111    magn:    0.0000    constr:    0.0000
     atom:    3    charge:    1.7155    magn:    0.0000    constr:    0.0000
     atom:    4    charge:    1.7152    magn:    0.0001    constr:    0.0000
     atom:    5    charge:    1.7168    magn:   -0.0002    constr:    0.0000
     atom:    6    charge:    1.7146    magn:    0.0001    constr:    0.0000
     atom:    7    charge:    1.7168    magn:   -0.0001    constr:    0.0000
     atom:    8    charge:    1.7152    magn:    0.0000    constr:    0.0000
     atom:    9    charge:    1.7155    magn:    0.0000    constr:    0.0000
     atom:   10    charge:    1.7176    magn:   -0.0001    constr:    0.0000
     atom:   11    charge:    1.7156    magn:    0.0001    constr:    0.0000
     atom:   12    charge:    1.7176    magn:   -0.0001    constr:    0.0000
     atom:   13    charge:    1.7156    magn:    0.0001    constr:    0.0000
     atom:   14    charge:    1.7175    magn:    0.0000    constr:    0.0000
     atom:   15    charge:    1.7117    magn:   -0.0001    constr:    0.0000
     atom:   16    charge:    1.7114    magn:    0.0001    constr:    0.0000
     atom:   17    charge:    1.7206    magn:   -0.0001    constr:    0.0000
     atom:   18    charge:    1.7114    magn:    0.0001    constr:    0.0000
     atom:   19    charge:    1.7117    magn:   -0.0001    constr:    0.0000
     atom:   20    charge:    1.7175    magn:   -0.0000    constr:    0.0000
     atom:   21    charge:    1.7155    magn:    0.0001    constr:    0.0000
     atom:   22    charge:    1.7176    magn:   -0.0001    constr:    0.0000
     atom:   23    charge:    1.7155    magn:    0.0000    constr:    0.0000
     atom:   24    charge:    1.7152    magn:    0.0001    constr:    0.0000
     atom:   25    charge:    1.7117    magn:   -0.0001    constr:    0.0000
     atom:   26    charge:    1.7114    magn:    0.0001    constr:    0.0000
     atom:   27    charge:    1.8182    magn:   -0.0001    constr:    0.0000
     atom:   28    charge:   13.4052    magn:    0.0001    constr:    0.0000
     atom:   29    charge:    1.8182    magn:   -0.0001    constr:    0.0000
     atom:   30    charge:    1.7114    magn:    0.0001    constr:    0.0000
     atom:   31    charge:    1.7117    magn:   -0.0001    constr:    0.0000
     atom:   32    charge:    1.7152    magn:    0.0000    constr:    0.0000
     atom:   33    charge:    1.7168    magn:   -0.0001    constr:    0.0000
     atom:   34    charge:    1.7154    magn:    0.0001    constr:    0.0000
     atom:   35    charge:    1.7168    magn:   -0.0001    constr:    0.0000
     atom:   36    charge:    1.7146    magn:    0.0002    constr:    0.0000
     atom:   37    charge:    1.7206    magn:   -0.0001    constr:    0.0000
     atom:   38    charge:    1.7114    magn:    0.0001    constr:    0.0000
     atom:   39    charge:    1.8182    magn:   -0.0001    constr:    0.0000
     atom:   40    charge:    1.7114    magn:    0.0001    constr:    0.0000
     atom:   41    charge:    1.7206    magn:   -0.0001    constr:    0.0000
     atom:   42    charge:    1.7146    magn:    0.0001    constr:    0.0000
     atom:   43    charge:    1.7168    magn:   -0.0002    constr:    0.0000
     atom:   44    charge:    1.7154    magn:    0.0002    constr:    0.0000
     atom:   45    charge:    1.7212    magn:   -0.0002    constr:    0.0000
     atom:   46    charge:    1.7154    magn:    0.0001    constr:    0.0000
     atom:   47    charge:    1.7168    magn:   -0.0001    constr:    0.0000
     atom:   48    charge:    1.7152    magn:    0.0001    constr:    0.0000
     atom:   49    charge:    1.7117    magn:   -0.0001    constr:    0.0000
     atom:   50    charge:    1.7175    magn:    0.0000    constr:    0.0000
     atom:   51    charge:    1.7117    magn:   -0.0001    constr:    0.0000
     atom:   52    charge:    1.7152    magn:    0.0001    constr:    0.0000

     total cpu time spent up to now is     2221.7 secs

     End of self-consistent calculation

 ------ SPIN UP ------------


          k = 0.0000 0.0000 0.0000 ( 87777 PWs)   bands (ev):

  -107.9192 -69.0878 -69.0876 -67.0032 -19.8260 -19.0067 -19.0064 -18.8880
   -18.8878 -18.8029 -18.7357 -17.1628 -17.1626 -17.1277 -17.0787 -17.0786
   -16.7526 -16.3119 -16.3118 -16.1651 -16.1650 -16.1518 -15.6694 -14.3100
   -14.3099 -14.1497 -14.0158 -14.0157 -13.5137 -13.1279 -13.1279 -13.0763
   -12.9003 -12.9003 -12.4999 -12.0753 -12.0752 -11.7118 -11.5676 -11.5676
   -10.9337 -10.4316 -10.4316  -9.5766  -9.3650  -9.3649  -9.2259  -9.2108
    -9.2108  -9.1960  -8.9522  -8.9521  -8.5927  -8.5927  -8.4567  -7.9419
    -7.9012  -7.8456  -7.8453  -7.6634  -7.5409  -7.5409  -7.4477  -7.4476
    -6.8457  -6.8210  -6.8208  -6.7516  -6.6945  -6.6185  -6.6183  -6.5547
    -6.5497  -6.5496  -6.5160  -6.4923  -6.4247  -6.4247  -6.3776  -6.2887
    -6.2886  -5.5460  -5.5460  -5.0298  -4.9490  -4.8419  -4.8419  -4.7571
    -4.7158  -4.7155  -4.4274  -4.3983  -4.3981  -3.8357  -3.8355  -3.7639
    -3.7582  -3.7581  -3.7303  -3.4193  -3.4190  -3.3506  -1.8913  -1.8058
    -1.8057  -1.5895  -1.5891  -1.1568   0.1077   0.1078   0.9049   0.9634
     0.9636   1.2135   1.2135   1.5502   2.4929   2.8036   2.8040   2.8530
     3.0408   3.0410   3.4178   3.6048   3.6112   3.7366   3.7388   3.7633
     3.7861   3.9572

     occupation numbers 
     1.0000   1.0000   1.0000   1.0000   1.0000   1.0000   1.0000   1.0000
     1.0000   1.0000   1.0000   1.0000   1.0000   1.0000   1.0000   1.0000
     1.0000   1.0000   1.0000   1.0000   1.0000   1.0000   1.0000   1.0000
     1.0000   1.0000   1.0000   1.0000   1.0000   1.0000   1.0000   1.0000
     1.0000   1.0000   1.0000   1.0000   1.0000   1.0000   1.0000   1.0000
     1.0000   1.0000   1.0000   1.0000   1.0000   1.0000   1.0000   1.0000
     1.0000   1.0000   1.0000   1.0000   1.0000   1.0000   1.0000   1.0000
     1.0000   1.0000   1.0000   1.0000   1.0000   1.0000   1.0000   1.0000
     1.0000   1.0000   1.0000   1.0000   1.0000   1.0000   1.0000   1.0000
     1.0000   1.0000   1.0000   1.0000   1.0000   1.0000   1.0000   1.0000
     1.0000   1.0000   1.0000   1.0000   1.0000   1.0000   1.0000   1.0000
     1.0000   1.0000   1.0000   1.0000   1.0000   1.0000   1.0000   1.0000
     1.0000   1.0000   1.0000   1.0000   1.0000   1.0000   1.0000   1.0000
     1.0000   1.0000   1.0000   1.0000   0.0000   0.0000   0.0000   0.0000
     0.0000   0.0000   0.0000   0.0000   0.0000   0.0000   0.0000   0.0000
     0.0000   0.0000   0.0000   0.0000   0.0000   0.0000   0.0000   0.0000
     0.0000   0.0000

 ------ SPIN DOWN ----------


          k = 0.0000 0.0000 0.0000 ( 87777 PWs)   bands (ev):

  -107.9188 -69.0873 -69.0872 -67.0030 -19.8260 -19.0067 -19.0064 -18.8880
   -18.8878 -18.8029 -18.7357 -17.1628 -17.1626 -17.1277 -17.0787 -17.0786
   -16.7527 -16.3118 -16.3117 -16.1652 -16.1652 -16.1518 -15.6694 -14.3101
   -14.3100 -14.1497 -14.0156 -14.0156 -13.5140 -13.1279 -13.1279 -13.0763
   -12.9003 -12.9003 -12.4998 -12.0754 -12.0753 -11.7117 -11.5676 -11.5675
   -10.9338 -10.4316 -10.4316  -9.5766  -9.3650  -9.3649  -9.2259  -9.2108
    -9.2108  -9.1961  -8.9521  -8.9521  -8.5926  -8.5926  -8.4567  -7.9419
    -7.9012  -7.8455  -7.8452  -7.6634  -7.5409  -7.5409  -7.4477  -7.4476
    -6.8457  -6.8210  -6.8208  -6.7516  -6.6945  -6.6185  -6.6183  -6.5547
    -6.5497  -6.5496  -6.5161  -6.4922  -6.4247  -6.4247  -6.3775  -6.2887
    -6.2886  -5.5460  -5.5460  -5.0299  -4.9490  -4.8419  -4.8419  -4.7572
    -4.7157  -4.7155  -4.4275  -4.3982  -4.3981  -3.8356  -3.8355  -3.7640
    -3.7582  -3.7581  -3.7301  -3.4191  -3.4189  -3.3505  -1.8914  -1.8053
    -1.8052  -1.5896  -1.5891  -1.1574   0.1076   0.1077   0.9047   0.9636
     0.9639   1.2132   1.2134   1.5504   2.4929   2.8035   2.8038   2.8529
     3.0408   3.0410   3.4180   3.6049   3.6114   3.7367   3.7391   3.7633
     3.7861   3.9572

     occupation numbers 
     1.0000   1.0000   1.0000   1.0000   1.0000   1.0000   1.0000   1.0000
     1.0000   1.0000   1.0000   1.0000   1.0000   1.0000   1.0000   1.0000
     1.0000   1.0000   1.0000   1.0000   1.0000   1.0000   1.0000   1.0000
     1.0000   1.0000   1.0000   1.0000   1.0000   1.0000   1.0000   1.0000
     1.0000   1.0000   1.0000   1.0000   1.0000   1.0000   1.0000   1.0000
     1.0000   1.0000   1.0000   1.0000   1.0000   1.0000   1.0000   1.0000
     1.0000   1.0000   1.0000   1.0000   1.0000   1.0000   1.0000   1.0000
     1.0000   1.0000   1.0000   1.0000   1.0000   1.0000   1.0000   1.0000
     1.0000   1.0000   1.0000   1.0000   1.0000   1.0000   1.0000   1.0000
     1.0000   1.0000   1.0000   1.0000   1.0000   1.0000   1.0000   1.0000
     1.0000   1.0000   1.0000   1.0000   1.0000   1.0000   1.0000   1.0000
     1.0000   1.0000   1.0000   1.0000   1.0000   1.0000   1.0000   1.0000
     1.0000   1.0000   1.0000   1.0000   1.0000   1.0000   1.0000   1.0000
     1.0000   1.0000   1.0000   1.0000   0.0000   0.0000   0.0000   0.0000
     0.0000   0.0000   0.0000   0.0000   0.0000   0.0000   0.0000   0.0000
     0.0000   0.0000   0.0000   0.0000   0.0000   0.0000   0.0000   0.0000
     0.0000   0.0000

     the Fermi energy is    -0.3879 ev

!    total energy              =    -951.88625157 Ry
     Harris-Foulkes estimate   =    -951.88625159 Ry
     estimated scf accuracy    <       0.00000025 Ry

     The total energy is the sum of the following terms:

     one-electron contribution =   -2961.35208578 Ry
     hartree contribution      =    1523.32256311 Ry
     xc contribution           =    -265.71400966 Ry
     ewald contribution        =     751.85728077 Ry
     smearing contrib. (-TS)   =       0.00000000 Ry

     total magnetization       =     0.00 Bohr mag/cell
     absolute magnetization    =     0.01 Bohr mag/cell

     convergence has been achieved in  25 iterations

     Writing output data file distance-5.0.save/

     init_run     :     64.97s CPU     66.54s WALL (       1 calls)
     electrons    :   2113.49s CPU   2154.12s WALL (       1 calls)

     Called by init_run:
     wfcinit      :     34.77s CPU     35.02s WALL (       1 calls)
     wfcinit:atom :      0.03s CPU      0.09s WALL (       2 calls)
     wfcinit:wfcr :     34.41s CPU     34.56s WALL (       2 calls)
     potinit      :     12.41s CPU     12.97s WALL (       1 calls)
     hinit0       :     10.69s CPU     10.73s WALL (       1 calls)

     Called by electrons:
     c_bands      :   1323.46s CPU   1331.27s WALL (      25 calls)
     sum_band     :    454.98s CPU    468.36s WALL (      25 calls)
     v_of_rho     :    177.41s CPU    186.26s WALL (      26 calls)
     v_h          :      1.85s CPU      1.91s WALL (      26 calls)
     v_xc         :    175.55s CPU    184.36s WALL (      26 calls)
     newd         :    154.54s CPU    166.01s WALL (      26 calls)
     mix_rho      :     10.33s CPU     10.47s WALL (      25 calls)

     Called by c_bands:
     init_us_2    :      4.57s CPU      4.61s WALL (     102 calls)
     cegterg      :   1312.50s CPU   1320.26s WALL (      50 calls)

     Called by sum_band:
     sum_band:bec :      0.04s CPU      0.04s WALL (      50 calls)
     addusdens    :    282.61s CPU    294.94s WALL (      25 calls)

     Called by *egterg:
     h_psi        :    707.74s CPU    712.97s WALL (     191 calls)
     s_psi        :    225.97s CPU    226.14s WALL (     191 calls)
     g_psi        :      0.85s CPU      0.85s WALL (     139 calls)
     cdiaghg      :     13.37s CPU     13.39s WALL (     189 calls)
     cegterg:over :    158.96s CPU    159.08s WALL (     139 calls)
     cegterg:upda :     95.05s CPU     95.76s WALL (     139 calls)
     cegterg:last :     68.94s CPU     68.98s WALL (      50 calls)

     Called by h_psi:
     h_psi:pot    :    706.76s CPU    711.16s WALL (     191 calls)
     h_psi:calbec :    227.08s CPU    227.26s WALL (     191 calls)
     vloc_psi     :    253.06s CPU    257.10s WALL (     191 calls)
     add_vuspsi   :    226.62s CPU    226.79s WALL (     191 calls)

     General routines
     calbec       :    325.07s CPU    325.33s WALL (     241 calls)
     fft          :    100.74s CPU    103.97s WALL (    1944 calls)
     ffts         :      1.76s CPU      1.81s WALL (     102 calls)
     fftw         :    271.14s CPU    275.50s WALL (   36640 calls)
     interpolate  :      4.19s CPU      4.30s WALL (      52 calls)

     Parallel routines
     fft_scatt_xy :     64.52s CPU     65.32s WALL (   38686 calls)
     fft_scatt_yz :    127.73s CPU    133.07s WALL (   38686 calls)

     PWSCF        :  36m19.79s CPU  37m 2.39s WALL


   This run was terminated on:   8:54: 9  24Dec2022            

=------------------------------------------------------------------------------=
   JOB DONE.
=------------------------------------------------------------------------------=
