
     Program PWSCF v.6.4.1 starts on 24Dec2022 at 14:49:30 

     This program is part of the open-source Quantum ESPRESSO suite
     for quantum simulation of materials; please cite
         "P. Giannozzi et al., J. Phys.:Condens. Matter 21 395502 (2009);
         "P. Giannozzi et al., J. Phys.:Condens. Matter 29 465901 (2017);
          URL http://www.quantum-espresso.org", 
     in publications or presentations arising from this work. More details at
     http://www.quantum-espresso.org/quote

     Parallel version (MPI), running on     6 processors

     MPI processes distributed on     1 nodes
     R & G space division:  proc/nbgrp/npool/nimage =       6
     Reading input from distance-2.4.in

     Current dimensions of program PWSCF are:
     Max number of different atomic species (ntypx) = 10
     Max number of k-points (npk) =  40000
     Max angular momentum in pseudopotentials (lmaxx) =  3

     IMPORTANT: XC functional enforced from input :
     Exchange-correlation      = RVV10 ( 1  4 13  4 3 0)
     Any further DFT definition will be discarded
     Please, verify this is what you really want

               file H.pbe-rrkjus.UPF: wavefunction(s)  1S renormalized

     Subspace diagonalization in iterative solution of the eigenvalue problem:
     a serial algorithm will be used


     Parallelization info
     --------------------
     sticks:   dense  smooth     PW     G-vecs:    dense   smooth      PW
     Min        3051    1746    432               270999   117096   14629
     Max        3053    1747    437               271001   117099   14630
     Sum       18313   10477   2611              1626001   702581   87777



     bravais-lattice index     =            4
     lattice parameter (alat)  =      23.2937  a.u.
     unit-cell volume          =    8879.8548 (a.u.)^3
     number of atoms/cell      =           52
     number of atomic types    =            3
     number of electrons       =       216.00
     number of Kohn-Sham states=          130
     kinetic-energy cutoff     =      70.0000  Ry
     charge density cutoff     =     490.0000  Ry
     convergence threshold     =      1.0E-06
     mixing beta               =       0.7000
     number of iterations used =            8  plain     mixing
     Exchange-correlation      = RVV10 ( 1  4 13  4 3 0)

     celldm(1)=  23.293684  celldm(2)=   0.000000  celldm(3)=   0.811261
     celldm(4)=   0.000000  celldm(5)=   0.000000  celldm(6)=   0.000000

     crystal axes: (cart. coord. in units of alat)
               a(1) = (   1.000000   0.000000   0.000000 )  
               a(2) = (  -0.500000   0.866025   0.000000 )  
               a(3) = (   0.000000   0.000000   0.811261 )  

     reciprocal axes: (cart. coord. in units 2 pi/alat)
               b(1) = (  1.000000  0.577350 -0.000000 )  
               b(2) = (  0.000000  1.154701  0.000000 )  
               b(3) = (  0.000000 -0.000000  1.232649 )  


     PseudoPot. # 1 for H  read from file:
     /home/cristian/Escritorio/Proyecto_Grafeno/pseudopotenciales/H.pbe-rrkjus.UPF
     MD5 check sum: 7cc9d459525c9a0585f487a71c3c9563
     Pseudo is Ultrasoft, Zval =  1.0
     Generated by new atomic code, or converted to UPF format
     Using radial grid of 1061 points,  2 beta functions with: 
                l(1) =   0
                l(2) =   0
     Q(r) pseudized with 0 coefficients 


     PseudoPot. # 2 for C  read from file:
     /home/cristian/Escritorio/Proyecto_Grafeno/pseudopotenciales/C.pbe-n-rrkjus_psl.1.0.0.UPF
     MD5 check sum: 1fdd950c42eb37d8afe3dd2f8d12311e
     Pseudo is Ultrasoft + core correction, Zval =  4.0
     Generated using "atomic" code by A. Dal Corso v.6.3MaX
     Using radial grid of 1073 points,  4 beta functions with: 
                l(1) =   0
                l(2) =   0
                l(3) =   1
                l(4) =   1
     Q(r) pseudized with 0 coefficients 


     PseudoPot. # 3 for Ni read from file:
     /home/cristian/Escritorio/Proyecto_Grafeno/pseudopotenciales/Ni.pbe-spn-rrkjus_psl.1.0.0.UPF
     MD5 check sum: 8b3fc9aac6dafe35f580d41bb18c3945
     Pseudo is Ultrasoft + core correction, Zval = 18.0
     Generated using "atomic" code by A. Dal Corso v.6.3
     Using radial grid of 1195 points,  6 beta functions with: 
                l(1) =   0
                l(2) =   0
                l(3) =   1
                l(4) =   1
                l(5) =   2
                l(6) =   2
     Q(r) pseudized with 0 coefficients 


     vdW kernel table read from file rVV10_kernel_table
     MD5 check sum: b8e2538accc0c0b3206b45ba4daaba6c

     atomic species   valence    mass     pseudopotential
        H              1.00     1.00794     H ( 1.00)
        C              4.00    12.01070     C ( 1.00)
        Ni            18.00    58.69340     Ni( 1.00)

     Starting magnetic structure 
     atomic species   magnetization
        H            0.500
        C            0.300
        Ni           0.800

      2 Sym. Ops. (no inversion) found


                                    s                        frac. trans.

      isym =  1     identity                                     

 cryst.   s( 1) = (     1          0          0      )
                  (     0          1          0      )
                  (     0          0          1      )

 cart.    s( 1) = (  1.0000000  0.0000000  0.0000000 )
                  (  0.0000000  1.0000000  0.0000000 )
                  (  0.0000000  0.0000000  1.0000000 )


      isym =  2     inv. 180 deg rotation - cryst. axis [1,1,0]  

 cryst.   s( 2) = (     0         -1          0      )
                  (    -1          0          0      )
                  (     0          0          1      )

 cart.    s( 2) = (  0.5000000 -0.8660254  0.0000000 )
                  ( -0.8660254 -0.5000000  0.0000000 )
                  (  0.0000000  0.0000000  1.0000000 )


     point group C_s (m)    
     there are  2 classes
     the character table:

       E     s    
A'     1.00  1.00
A''    1.00 -1.00

     the symmetry operations in each class and the name of the first element:

     E        1
          identity                                               
     s        2
          inv. 180 deg rotation - cryst. axis [1,1,0]            

   Cartesian axes

     site n.     atom                  positions (alat units)
         1           H   tau(   1) = (   0.2500000   0.4330127   0.1947027  )
         2           H   tau(   2) = (   0.2500000   0.4330127   0.2557154  )
         3           C   tau(   3) = (   0.0000000   0.0000000   0.0000000  )
         4           C   tau(   4) = (   0.0000000   0.1154701   0.0000000  )
         5           C   tau(   5) = (  -0.1000000   0.1732051   0.0000000  )
         6           C   tau(   6) = (  -0.1000000   0.2886751   0.0000000  )
         7           C   tau(   7) = (  -0.2000000   0.3464102   0.0000000  )
         8           C   tau(   8) = (  -0.2000000   0.4618802   0.0000000  )
         9           C   tau(   9) = (  -0.3000000   0.5196152   0.0000000  )
        10           C   tau(  10) = (  -0.3000000   0.6350853   0.0000000  )
        11           C   tau(  11) = (  -0.4000000   0.6928203   0.0000000  )
        12           C   tau(  12) = (  -0.4000000   0.8082904   0.0000000  )
        13           C   tau(  13) = (   0.2000000   0.0000000   0.0000000  )
        14           C   tau(  14) = (   0.2000000   0.1154701   0.0000000  )
        15           C   tau(  15) = (   0.1000000   0.1732051   0.0000000  )
        16           C   tau(  16) = (   0.1000000   0.2886751   0.0000000  )
        17           C   tau(  17) = (   0.0000000   0.3464102   0.0000000  )
        18           C   tau(  18) = (   0.0000000   0.4618802   0.0000000  )
        19           C   tau(  19) = (  -0.1000000   0.5196152   0.0000000  )
        20           C   tau(  20) = (  -0.1000000   0.6350853   0.0000000  )
        21           C   tau(  21) = (  -0.2000000   0.6928203   0.0000000  )
        22           C   tau(  22) = (  -0.2000000   0.8082904   0.0000000  )
        23           C   tau(  23) = (   0.4000000   0.0000000   0.0000000  )
        24           C   tau(  24) = (   0.4000000   0.1154701   0.0000000  )
        25           C   tau(  25) = (   0.3000000   0.1732051   0.0000000  )
        26           C   tau(  26) = (   0.3000000   0.2886751   0.0000000  )
        27           C   tau(  27) = (   0.2000000   0.3464102   0.0000000  )
        28           Ni  tau(  28) = (   0.2000000   0.4618802   0.0000000  )
        29           C   tau(  29) = (   0.1000000   0.5196152   0.0000000  )
        30           C   tau(  30) = (   0.1000000   0.6350853   0.0000000  )
        31           C   tau(  31) = (   0.0000000   0.6928203   0.0000000  )
        32           C   tau(  32) = (   0.0000000   0.8082904   0.0000000  )
        33           C   tau(  33) = (   0.6000000   0.0000000   0.0000000  )
        34           C   tau(  34) = (   0.6000000   0.1154701   0.0000000  )
        35           C   tau(  35) = (   0.5000000   0.1732051   0.0000000  )
        36           C   tau(  36) = (   0.5000000   0.2886751   0.0000000  )
        37           C   tau(  37) = (   0.4000000   0.3464102   0.0000000  )
        38           C   tau(  38) = (   0.4000000   0.4618802   0.0000000  )
        39           C   tau(  39) = (   0.3000000   0.5196152   0.0000000  )
        40           C   tau(  40) = (   0.3000000   0.6350853   0.0000000  )
        41           C   tau(  41) = (   0.2000000   0.6928203   0.0000000  )
        42           C   tau(  42) = (   0.2000000   0.8082904   0.0000000  )
        43           C   tau(  43) = (   0.8000000   0.0000000   0.0000000  )
        44           C   tau(  44) = (   0.8000000   0.1154701   0.0000000  )
        45           C   tau(  45) = (   0.7000000   0.1732051   0.0000000  )
        46           C   tau(  46) = (   0.7000000   0.2886751   0.0000000  )
        47           C   tau(  47) = (   0.6000000   0.3464102   0.0000000  )
        48           C   tau(  48) = (   0.6000000   0.4618802   0.0000000  )
        49           C   tau(  49) = (   0.5000000   0.5196152   0.0000000  )
        50           C   tau(  50) = (   0.5000000   0.6350853   0.0000000  )
        51           C   tau(  51) = (   0.4000000   0.6928203   0.0000000  )
        52           C   tau(  52) = (   0.4000000   0.8082904   0.0000000  )

   Crystallographic axes

     site n.     atom                  positions (cryst. coord.)
         1           H   tau(   1) = (  0.5000000  0.5000000  0.2400000  )
         2           H   tau(   2) = (  0.5000000  0.5000000  0.3152072  )
         3           C   tau(   3) = (  0.0000000  0.0000000  0.0000000  )
         4           C   tau(   4) = (  0.0666667  0.1333333  0.0000000  )
         5           C   tau(   5) = (  0.0000000  0.2000000  0.0000000  )
         6           C   tau(   6) = (  0.0666667  0.3333333  0.0000000  )
         7           C   tau(   7) = (  0.0000000  0.4000000  0.0000000  )
         8           C   tau(   8) = (  0.0666667  0.5333333  0.0000000  )
         9           C   tau(   9) = (  0.0000000  0.6000000  0.0000000  )
        10           C   tau(  10) = (  0.0666667  0.7333333  0.0000000  )
        11           C   tau(  11) = (  0.0000000  0.8000000  0.0000000  )
        12           C   tau(  12) = (  0.0666667  0.9333333  0.0000000  )
        13           C   tau(  13) = (  0.2000000  0.0000000  0.0000000  )
        14           C   tau(  14) = (  0.2666667  0.1333333  0.0000000  )
        15           C   tau(  15) = (  0.2000000  0.2000000  0.0000000  )
        16           C   tau(  16) = (  0.2666667  0.3333333  0.0000000  )
        17           C   tau(  17) = (  0.2000000  0.4000000  0.0000000  )
        18           C   tau(  18) = (  0.2666667  0.5333333  0.0000000  )
        19           C   tau(  19) = (  0.2000000  0.6000000  0.0000000  )
        20           C   tau(  20) = (  0.2666667  0.7333333  0.0000000  )
        21           C   tau(  21) = (  0.2000000  0.8000000  0.0000000  )
        22           C   tau(  22) = (  0.2666667  0.9333333  0.0000000  )
        23           C   tau(  23) = (  0.4000000  0.0000000  0.0000000  )
        24           C   tau(  24) = (  0.4666667  0.1333333  0.0000000  )
        25           C   tau(  25) = (  0.4000000  0.2000000  0.0000000  )
        26           C   tau(  26) = (  0.4666667  0.3333333  0.0000000  )
        27           C   tau(  27) = (  0.4000000  0.4000000  0.0000000  )
        28           Ni  tau(  28) = (  0.4666667  0.5333333  0.0000000  )
        29           C   tau(  29) = (  0.4000000  0.6000000  0.0000000  )
        30           C   tau(  30) = (  0.4666667  0.7333333  0.0000000  )
        31           C   tau(  31) = (  0.4000000  0.8000000  0.0000000  )
        32           C   tau(  32) = (  0.4666667  0.9333333  0.0000000  )
        33           C   tau(  33) = (  0.6000000  0.0000000  0.0000000  )
        34           C   tau(  34) = (  0.6666667  0.1333333  0.0000000  )
        35           C   tau(  35) = (  0.6000000  0.2000000  0.0000000  )
        36           C   tau(  36) = (  0.6666667  0.3333333  0.0000000  )
        37           C   tau(  37) = (  0.6000000  0.4000000  0.0000000  )
        38           C   tau(  38) = (  0.6666667  0.5333333  0.0000000  )
        39           C   tau(  39) = (  0.6000000  0.6000000  0.0000000  )
        40           C   tau(  40) = (  0.6666667  0.7333333  0.0000000  )
        41           C   tau(  41) = (  0.6000000  0.8000000  0.0000000  )
        42           C   tau(  42) = (  0.6666667  0.9333333  0.0000000  )
        43           C   tau(  43) = (  0.8000000  0.0000000  0.0000000  )
        44           C   tau(  44) = (  0.8666667  0.1333333  0.0000000  )
        45           C   tau(  45) = (  0.8000000  0.2000000  0.0000000  )
        46           C   tau(  46) = (  0.8666667  0.3333333  0.0000000  )
        47           C   tau(  47) = (  0.8000000  0.4000000  0.0000000  )
        48           C   tau(  48) = (  0.8666667  0.5333333  0.0000000  )
        49           C   tau(  49) = (  0.8000000  0.6000000  0.0000000  )
        50           C   tau(  50) = (  0.8666667  0.7333333  0.0000000  )
        51           C   tau(  51) = (  0.8000000  0.8000000  0.0000000  )
        52           C   tau(  52) = (  0.8666667  0.9333333  0.0000000  )

     number of k points=     1  Marzari-Vanderbilt smearing, width (Ry)=  0.0010
                       cart. coord. in units 2pi/alat
        k(    1) = (   0.0000000   0.0000000   0.0000000), wk =   1.0000000

                       cryst. coord.
        k(    1) = (   0.0000000   0.0000000   0.0000000), wk =   1.0000000

     Dense  grid:  1626001 G-vectors     FFT dimensions: ( 180, 180, 135)

     Smooth grid:   702581 G-vectors     FFT dimensions: ( 125, 125, 108)

     Dynamical RAM for                 wfc:      29.03 MB

     Dynamical RAM for     wfc (w. buffer):      87.10 MB

     Dynamical RAM for           str. fact:      12.41 MB

     Dynamical RAM for           local pot:       0.00 MB

     Dynamical RAM for          nlocal pot:      92.46 MB

     Dynamical RAM for                qrad:      19.73 MB

     Dynamical RAM for          rho,v,vnew:      58.92 MB

     Dynamical RAM for               rhoin:      19.64 MB

     Dynamical RAM for            rho*nmix:     132.32 MB

     Dynamical RAM for           G-vectors:      16.40 MB

     Dynamical RAM for          h,s,v(r/c):      12.38 MB

     Dynamical RAM for          <psi|beta>:       0.82 MB

     Dynamical RAM for                 psi:     116.14 MB

     Dynamical RAM for                hpsi:     116.14 MB

     Dynamical RAM for                spsi:     116.14 MB

     Dynamical RAM for      wfcinit/wfcrot:      93.90 MB

     Dynamical RAM for           addusdens:     975.89 MB

     Estimated static dynamical RAM per process >     489.64 MB

     Estimated max dynamical RAM per process >       1.43 GB

     Estimated total dynamical RAM >       8.59 GB
     Generating pointlists ...
     new r_m :   0.0252 (alat units)  0.5862 (a.u.) for type    1
     new r_m :   0.0476 (alat units)  1.1095 (a.u.) for type    2
     new r_m :   0.0476 (alat units)  1.1095 (a.u.) for type    3

     Check: negative core charge=   -0.000002

     Initial potential from superposition of free atoms

     starting charge  215.80530, renormalised to  216.00000

     negative rho (up, down):  1.488E-04 1.643E-02


---------------------------------------------------------------------------------
Carrying out rVV10 run using the following parameters:
Nqs =      20    Nr_points =    1024   r_max =   100.000
b_value =  6.30000    beta =  0.00901
     q_mesh =  0.00010000  0.00030000  0.00058939  0.00100810
               0.00161396  0.00249058  0.00375900  0.00559430
               0.00824984  0.01209221  0.01765183  0.02569619
               0.03733578  0.05417739  0.07854596  0.11380545
               0.16482331  0.23864234  0.34545298  0.50000000

Gradients computed in Reciprocal space

---------------------------------------------------------------------------------


     Starting wfcs are  208 randomized atomic wfcs

     total cpu time spent up to now is       70.9 secs

     Self-consistent Calculation

     iteration #  1     ecut=    70.00 Ry     beta= 0.70
     Davidson diagonalization with overlap
     ethr =  1.00E-02,  avg # of iterations =  4.5

     negative rho (up, down):  2.924E-04 1.442E-02

     total cpu time spent up to now is      187.2 secs

     total energy              =    -946.87424659 Ry
     Harris-Foulkes estimate   =    -949.68783247 Ry
     estimated scf accuracy    <      13.96907850 Ry

     total magnetization       =     6.00 Bohr mag/cell
     absolute magnetization    =     6.76 Bohr mag/cell

     iteration #  2     ecut=    70.00 Ry     beta= 0.70
     Davidson diagonalization with overlap
     ethr =  6.47E-03,  avg # of iterations =  3.5

     negative rho (up, down):  1.389E-02 2.869E-01

     total cpu time spent up to now is      291.1 secs

     total energy              =    -950.01552034 Ry
     Harris-Foulkes estimate   =    -956.73704904 Ry
     estimated scf accuracy    <      39.85084968 Ry

     total magnetization       =     4.00 Bohr mag/cell
     absolute magnetization    =     8.53 Bohr mag/cell

     iteration #  3     ecut=    70.00 Ry     beta= 0.70
     Davidson diagonalization with overlap
     ethr =  6.47E-03,  avg # of iterations =  3.0

     negative rho (up, down):  1.086E-02 5.353E-01

     total cpu time spent up to now is      388.7 secs

     total energy              =    -952.46606404 Ry
     Harris-Foulkes estimate   =    -961.85785270 Ry
     estimated scf accuracy    <     574.81570746 Ry

     total magnetization       =    -0.00 Bohr mag/cell
     absolute magnetization    =    34.64 Bohr mag/cell

     iteration #  4     ecut=    70.00 Ry     beta= 0.70
     Davidson diagonalization with overlap
     ethr =  6.47E-03,  avg # of iterations =  3.5

     negative rho (up, down):  2.088E-03 5.147E-01

     total cpu time spent up to now is      479.6 secs

     total energy              =    -945.13640344 Ry
     Harris-Foulkes estimate   =    -954.81157154 Ry
     estimated scf accuracy    <     175.28987483 Ry

     total magnetization       =     1.93 Bohr mag/cell
     absolute magnetization    =    20.58 Bohr mag/cell

     iteration #  5     ecut=    70.00 Ry     beta= 0.70
     Davidson diagonalization with overlap
     ethr =  6.47E-03,  avg # of iterations =  3.5

     negative rho (up, down):  5.365E-02 4.373E-01

     total cpu time spent up to now is      592.3 secs

     total energy              =    -954.01092623 Ry
     Harris-Foulkes estimate   =    -955.43239664 Ry
     estimated scf accuracy    <     254.69636582 Ry

     total magnetization       =     2.00 Bohr mag/cell
     absolute magnetization    =    25.47 Bohr mag/cell

     iteration #  6     ecut=    70.00 Ry     beta= 0.70
     Davidson diagonalization with overlap
     ethr =  6.47E-03,  avg # of iterations =  1.5

     negative rho (up, down):  7.694E-02 4.680E-01

     total cpu time spent up to now is      675.6 secs

     total energy              =    -951.02685111 Ry
     Harris-Foulkes estimate   =    -954.24184256 Ry
     estimated scf accuracy    <     180.51325142 Ry

     total magnetization       =     2.00 Bohr mag/cell
     absolute magnetization    =    21.25 Bohr mag/cell

     iteration #  7     ecut=    70.00 Ry     beta= 0.70
     Davidson diagonalization with overlap
     ethr =  6.47E-03,  avg # of iterations =  2.0

     negative rho (up, down):  5.906E-02 4.478E-01

     total cpu time spent up to now is      765.1 secs

     total energy              =    -949.83188016 Ry
     Harris-Foulkes estimate   =    -952.75149784 Ry
     estimated scf accuracy    <      78.94824096 Ry

     total magnetization       =     2.00 Bohr mag/cell
     absolute magnetization    =    13.89 Bohr mag/cell

     iteration #  8     ecut=    70.00 Ry     beta= 0.70
     Davidson diagonalization with overlap
     ethr =  6.47E-03,  avg # of iterations =  2.5

     negative rho (up, down):  6.125E-02 2.625E-01

     total cpu time spent up to now is      851.7 secs

     total energy              =    -951.54716060 Ry
     Harris-Foulkes estimate   =    -951.88266296 Ry
     estimated scf accuracy    <       4.44918111 Ry

     total magnetization       =    -0.00 Bohr mag/cell
     absolute magnetization    =     1.68 Bohr mag/cell

     iteration #  9     ecut=    70.00 Ry     beta= 0.70
     Davidson diagonalization with overlap
     ethr =  2.06E-03,  avg # of iterations =  3.0

     negative rho (up, down):  5.730E-02 8.793E-02

     total cpu time spent up to now is      937.6 secs

     total energy              =    -951.68907799 Ry
     Harris-Foulkes estimate   =    -951.93285682 Ry
     estimated scf accuracy    <       7.42114489 Ry

     total magnetization       =    -0.00 Bohr mag/cell
     absolute magnetization    =     3.11 Bohr mag/cell

     iteration # 10     ecut=    70.00 Ry     beta= 0.70
     Davidson diagonalization with overlap
     ethr =  2.06E-03,  avg # of iterations =  2.0

     negative rho (up, down):  2.956E-02 1.928E-01

     total cpu time spent up to now is     1021.9 secs

     total energy              =    -951.78279715 Ry
     Harris-Foulkes estimate   =    -951.93098078 Ry
     estimated scf accuracy    <       2.14253168 Ry

     total magnetization       =     0.00 Bohr mag/cell
     absolute magnetization    =     1.61 Bohr mag/cell

     iteration # 11     ecut=    70.00 Ry     beta= 0.70
     Davidson diagonalization with overlap
     ethr =  9.92E-04,  avg # of iterations =  3.0

     negative rho (up, down):  1.679E-02 8.216E-02

     total cpu time spent up to now is     1106.1 secs

     total energy              =    -951.85056425 Ry
     Harris-Foulkes estimate   =    -951.89789831 Ry
     estimated scf accuracy    <       0.56390600 Ry

     total magnetization       =     0.00 Bohr mag/cell
     absolute magnetization    =     1.01 Bohr mag/cell

     iteration # 12     ecut=    70.00 Ry     beta= 0.70
     Davidson diagonalization with overlap
     ethr =  2.61E-04,  avg # of iterations =  8.0

     negative rho (up, down):  8.168E-03 1.513E-01

     total cpu time spent up to now is     1191.3 secs

     total energy              =    -951.87648310 Ry
     Harris-Foulkes estimate   =    -951.88071279 Ry
     estimated scf accuracy    <       0.09373185 Ry

     total magnetization       =     0.00 Bohr mag/cell
     absolute magnetization    =     0.51 Bohr mag/cell

     iteration # 13     ecut=    70.00 Ry     beta= 0.70
     Davidson diagonalization with overlap
     ethr =  4.34E-05,  avg # of iterations =  6.5

     negative rho (up, down):  2.853E-03 1.298E-01

     total cpu time spent up to now is     1279.0 secs

     total energy              =    -951.88118253 Ry
     Harris-Foulkes estimate   =    -951.88277356 Ry
     estimated scf accuracy    <       0.01937283 Ry

     total magnetization       =    -0.00 Bohr mag/cell
     absolute magnetization    =     0.22 Bohr mag/cell

     iteration # 14     ecut=    70.00 Ry     beta= 0.70
     Davidson diagonalization with overlap
     ethr =  8.97E-06,  avg # of iterations =  6.0

     negative rho (up, down):  2.569E-03 7.005E-02

     total cpu time spent up to now is     1368.9 secs

     total energy              =    -951.88288753 Ry
     Harris-Foulkes estimate   =    -951.88327570 Ry
     estimated scf accuracy    <       0.01507112 Ry

     total magnetization       =    -0.00 Bohr mag/cell
     absolute magnetization    =     0.20 Bohr mag/cell

     iteration # 15     ecut=    70.00 Ry     beta= 0.70
     Davidson diagonalization with overlap
     ethr =  6.98E-06,  avg # of iterations =  3.0

     negative rho (up, down):  1.286E-03 6.397E-02

     total cpu time spent up to now is     1453.9 secs

     total energy              =    -951.88399845 Ry
     Harris-Foulkes estimate   =    -951.88341288 Ry
     estimated scf accuracy    <       0.00290912 Ry

     total magnetization       =    -0.00 Bohr mag/cell
     absolute magnetization    =     0.12 Bohr mag/cell

     iteration # 16     ecut=    70.00 Ry     beta= 0.70
     Davidson diagonalization with overlap
     ethr =  1.35E-06,  avg # of iterations =  3.5

     negative rho (up, down):  1.590E-03 2.487E-01

     total cpu time spent up to now is     1555.8 secs

     total energy              =    -951.87897332 Ry
     Harris-Foulkes estimate   =    -951.88706525 Ry
     estimated scf accuracy    <       0.19139571 Ry

     total magnetization       =     0.00 Bohr mag/cell
     absolute magnetization    =     0.67 Bohr mag/cell

     iteration # 17     ecut=    70.00 Ry     beta= 0.70
     Davidson diagonalization with overlap
     ethr =  1.35E-06,  avg # of iterations =  4.0

     negative rho (up, down):  1.184E-03 1.585E-01

     total cpu time spent up to now is     1657.4 secs

     total energy              =    -951.88331754 Ry
     Harris-Foulkes estimate   =    -951.88200449 Ry
     estimated scf accuracy    <       0.00212953 Ry

     total magnetization       =     0.00 Bohr mag/cell
     absolute magnetization    =     0.10 Bohr mag/cell

     iteration # 18     ecut=    70.00 Ry     beta= 0.70
     Davidson diagonalization with overlap
     ethr =  9.86E-07,  avg # of iterations =  3.5

     negative rho (up, down):  1.167E-03 9.869E-02

     total cpu time spent up to now is     1743.9 secs

     total energy              =    -951.88385099 Ry
     Harris-Foulkes estimate   =    -951.88342782 Ry
     estimated scf accuracy    <       0.00211223 Ry

     total magnetization       =     0.00 Bohr mag/cell
     absolute magnetization    =     0.10 Bohr mag/cell

     iteration # 19     ecut=    70.00 Ry     beta= 0.70
     Davidson diagonalization with overlap
     ethr =  9.78E-07,  avg # of iterations =  2.0

     negative rho (up, down):  1.490E-03 1.499E-01

     total cpu time spent up to now is     1829.6 secs

     total energy              =    -951.88442249 Ry
     Harris-Foulkes estimate   =    -951.88402502 Ry
     estimated scf accuracy    <       0.01590458 Ry

     total magnetization       =    -0.00 Bohr mag/cell
     absolute magnetization    =     0.19 Bohr mag/cell

     iteration # 20     ecut=    70.00 Ry     beta= 0.70
     Davidson diagonalization with overlap
     ethr =  9.78E-07,  avg # of iterations =  3.0

     negative rho (up, down):  3.416E-03 2.140E-01

     total cpu time spent up to now is     1923.8 secs

     total energy              =    -951.88397937 Ry
     Harris-Foulkes estimate   =    -951.88518682 Ry
     estimated scf accuracy    <       0.10672738 Ry

     total magnetization       =    -0.00 Bohr mag/cell
     absolute magnetization    =     0.47 Bohr mag/cell

     iteration # 21     ecut=    70.00 Ry     beta= 0.70
     Davidson diagonalization with overlap
     ethr =  9.78E-07,  avg # of iterations =  3.5

     negative rho (up, down):  4.015E-03 2.318E-01

     total cpu time spent up to now is     2009.2 secs

     total energy              =    -951.88193174 Ry
     Harris-Foulkes estimate   =    -951.88400136 Ry
     estimated scf accuracy    <       0.10373487 Ry

     total magnetization       =     0.00 Bohr mag/cell
     absolute magnetization    =     0.46 Bohr mag/cell

     iteration # 22     ecut=    70.00 Ry     beta= 0.70
     Davidson diagonalization with overlap
     ethr =  9.78E-07,  avg # of iterations =  2.5

     negative rho (up, down):  2.645E-03 1.979E-01

     total cpu time spent up to now is     2098.1 secs

     total energy              =    -951.88234239 Ry
     Harris-Foulkes estimate   =    -951.88253718 Ry
     estimated scf accuracy    <       0.02151019 Ry

     total magnetization       =    -0.00 Bohr mag/cell
     absolute magnetization    =     0.21 Bohr mag/cell

     iteration # 23     ecut=    70.00 Ry     beta= 0.70
     Davidson diagonalization with overlap
     ethr =  9.78E-07,  avg # of iterations =  2.5

     negative rho (up, down):  1.275E-03 8.477E-02

     total cpu time spent up to now is     2188.3 secs

     total energy              =    -951.88375040 Ry
     Harris-Foulkes estimate   =    -951.88288176 Ry
     estimated scf accuracy    <       0.00039479 Ry

     total magnetization       =    -0.00 Bohr mag/cell
     absolute magnetization    =     0.04 Bohr mag/cell

     iteration # 24     ecut=    70.00 Ry     beta= 0.70
     Davidson diagonalization with overlap
     ethr =  1.83E-07,  avg # of iterations =  3.5

     negative rho (up, down):  1.190E-03 1.796E-02

     total cpu time spent up to now is     2277.7 secs

     total energy              =    -951.88388144 Ry
     Harris-Foulkes estimate   =    -951.88377619 Ry
     estimated scf accuracy    <       0.00015694 Ry

     total magnetization       =    -0.00 Bohr mag/cell
     absolute magnetization    =     0.03 Bohr mag/cell

     iteration # 25     ecut=    70.00 Ry     beta= 0.70
     Davidson diagonalization with overlap
     ethr =  7.27E-08,  avg # of iterations =  3.0

     negative rho (up, down):  1.172E-03 5.596E-03

     total cpu time spent up to now is     2363.9 secs

     total energy              =    -951.88388892 Ry
     Harris-Foulkes estimate   =    -951.88388850 Ry
     estimated scf accuracy    <       0.00004616 Ry

     total magnetization       =     0.00 Bohr mag/cell
     absolute magnetization    =     0.02 Bohr mag/cell

     iteration # 26     ecut=    70.00 Ry     beta= 0.70
     Davidson diagonalization with overlap
     ethr =  2.14E-08,  avg # of iterations =  2.5

     negative rho (up, down):  1.178E-03 3.520E-02

     total cpu time spent up to now is     2455.5 secs

     total energy              =    -951.88386791 Ry
     Harris-Foulkes estimate   =    -951.88390525 Ry
     estimated scf accuracy    <       0.00065996 Ry

     total magnetization       =     0.00 Bohr mag/cell
     absolute magnetization    =     0.05 Bohr mag/cell

     iteration # 27     ecut=    70.00 Ry     beta= 0.70
     Davidson diagonalization with overlap
     ethr =  2.14E-08,  avg # of iterations =  2.5

     negative rho (up, down):  1.174E-03 1.717E-02

     total cpu time spent up to now is     2543.7 secs

     total energy              =    -951.88388781 Ry
     Harris-Foulkes estimate   =    -951.88387561 Ry
     estimated scf accuracy    <       0.00002951 Ry

     total magnetization       =     0.00 Bohr mag/cell
     absolute magnetization    =     0.02 Bohr mag/cell

     iteration # 28     ecut=    70.00 Ry     beta= 0.70
     Davidson diagonalization with overlap
     ethr =  1.37E-08,  avg # of iterations =  2.0

     negative rho (up, down):  1.173E-03 8.230E-03

     total cpu time spent up to now is     2628.0 secs

     total energy              =    -951.88389135 Ry
     Harris-Foulkes estimate   =    -951.88389043 Ry
     estimated scf accuracy    <       0.00002808 Ry

     total magnetization       =     0.00 Bohr mag/cell
     absolute magnetization    =     0.01 Bohr mag/cell

     iteration # 29     ecut=    70.00 Ry     beta= 0.70
     Davidson diagonalization with overlap
     ethr =  1.30E-08,  avg # of iterations =  1.5

     negative rho (up, down):  1.170E-03 1.843E-03

     total cpu time spent up to now is     2711.1 secs

     total energy              =    -951.88389377 Ry
     Harris-Foulkes estimate   =    -951.88389258 Ry
     estimated scf accuracy    <       0.00000262 Ry

     total magnetization       =     0.00 Bohr mag/cell
     absolute magnetization    =     0.01 Bohr mag/cell

     iteration # 30     ecut=    70.00 Ry     beta= 0.70
     Davidson diagonalization with overlap
     ethr =  1.21E-09,  avg # of iterations =  2.0

     negative rho (up, down):  1.167E-03 4.824E-05

     Magnetic moment per site:
     atom:    1    charge:    0.2117    magn:    0.0000    constr:    0.0000
     atom:    2    charge:    0.2128    magn:   -0.0000    constr:    0.0000
     atom:    3    charge:    1.7155    magn:    0.0000    constr:    0.0000
     atom:    4    charge:    1.7152    magn:   -0.0001    constr:    0.0000
     atom:    5    charge:    1.7168    magn:    0.0000    constr:    0.0000
     atom:    6    charge:    1.7146    magn:   -0.0001    constr:    0.0000
     atom:    7    charge:    1.7168    magn:    0.0001    constr:    0.0000
     atom:    8    charge:    1.7152    magn:   -0.0001    constr:    0.0000
     atom:    9    charge:    1.7155    magn:    0.0001    constr:    0.0000
     atom:   10    charge:    1.7176    magn:   -0.0001    constr:    0.0000
     atom:   11    charge:    1.7156    magn:    0.0001    constr:    0.0000
     atom:   12    charge:    1.7177    magn:   -0.0000    constr:    0.0000
     atom:   13    charge:    1.7156    magn:    0.0001    constr:    0.0000
     atom:   14    charge:    1.7175    magn:   -0.0000    constr:    0.0000
     atom:   15    charge:    1.7117    magn:    0.0000    constr:    0.0000
     atom:   16    charge:    1.7113    magn:   -0.0000    constr:    0.0000
     atom:   17    charge:    1.7206    magn:    0.0001    constr:    0.0000
     atom:   18    charge:    1.7113    magn:   -0.0001    constr:    0.0000
     atom:   19    charge:    1.7117    magn:    0.0001    constr:    0.0000
     atom:   20    charge:    1.7175    magn:   -0.0001    constr:    0.0000
     atom:   21    charge:    1.7156    magn:    0.0001    constr:    0.0000
     atom:   22    charge:    1.7176    magn:   -0.0001    constr:    0.0000
     atom:   23    charge:    1.7155    magn:    0.0001    constr:    0.0000
     atom:   24    charge:    1.7152    magn:   -0.0000    constr:    0.0000
     atom:   25    charge:    1.7117    magn:    0.0000    constr:    0.0000
     atom:   26    charge:    1.7114    magn:   -0.0000    constr:    0.0000
     atom:   27    charge:    1.8190    magn:   -0.0001    constr:    0.0000
     atom:   28    charge:   13.4058    magn:    0.0003    constr:    0.0000
     atom:   29    charge:    1.8186    magn:    0.0000    constr:    0.0000
     atom:   30    charge:    1.7113    magn:   -0.0001    constr:    0.0000
     atom:   31    charge:    1.7117    magn:    0.0001    constr:    0.0000
     atom:   32    charge:    1.7152    magn:   -0.0001    constr:    0.0000
     atom:   33    charge:    1.7168    magn:    0.0001    constr:    0.0000
     atom:   34    charge:    1.7154    magn:   -0.0001    constr:    0.0000
     atom:   35    charge:    1.7168    magn:    0.0000    constr:    0.0000
     atom:   36    charge:    1.7146    magn:   -0.0000    constr:    0.0000
     atom:   37    charge:    1.7204    magn:    0.0000    constr:    0.0000
     atom:   38    charge:    1.7114    magn:   -0.0000    constr:    0.0000
     atom:   39    charge:    1.8190    magn:   -0.0001    constr:    0.0000
     atom:   40    charge:    1.7113    magn:   -0.0000    constr:    0.0000
     atom:   41    charge:    1.7206    magn:    0.0001    constr:    0.0000
     atom:   42    charge:    1.7146    magn:   -0.0001    constr:    0.0000
     atom:   43    charge:    1.7168    magn:    0.0000    constr:    0.0000
     atom:   44    charge:    1.7154    magn:   -0.0001    constr:    0.0000
     atom:   45    charge:    1.7212    magn:    0.0000    constr:    0.0000
     atom:   46    charge:    1.7154    magn:   -0.0001    constr:    0.0000
     atom:   47    charge:    1.7168    magn:    0.0000    constr:    0.0000
     atom:   48    charge:    1.7152    magn:   -0.0000    constr:    0.0000
     atom:   49    charge:    1.7117    magn:    0.0000    constr:    0.0000
     atom:   50    charge:    1.7175    magn:   -0.0000    constr:    0.0000
     atom:   51    charge:    1.7117    magn:    0.0000    constr:    0.0000
     atom:   52    charge:    1.7152    magn:   -0.0001    constr:    0.0000

     total cpu time spent up to now is     2794.3 secs

     End of self-consistent calculation

 ------ SPIN UP ------------


          k = 0.0000 0.0000 0.0000 ( 87777 PWs)   bands (ev):

  -107.9234 -69.0917 -69.0912 -67.0103 -19.8294 -19.0100 -19.0092 -18.8911
   -18.8908 -18.8063 -18.7401 -17.1661 -17.1653 -17.1306 -17.0832 -17.0815
   -16.7566 -16.3151 -16.3144 -16.1690 -16.1683 -16.1548 -15.6740 -14.3143
   -14.3130 -14.1524 -14.0189 -14.0186 -13.5177 -13.1314 -13.1309 -13.0794
   -12.9046 -12.9034 -12.5040 -12.0787 -12.0787 -11.7150 -11.5714 -11.5709
   -10.9383 -10.4353 -10.4351  -9.5798  -9.3684  -9.3679  -9.2289  -9.2142
    -9.2140  -9.1993  -8.9559  -8.9553  -8.5960  -8.5953  -8.4601  -7.9774
    -7.9044  -7.8766  -7.8583  -7.6673  -7.5455  -7.5440  -7.4511  -7.4509
    -6.9775  -6.8486  -6.8236  -6.8228  -6.7496  -6.6221  -6.6213  -6.5580
    -6.5527  -6.5526  -6.5211  -6.4383  -6.4291  -6.4251  -6.2949  -6.2918
    -6.2582  -5.5493  -5.5492  -5.0331  -4.9520  -4.8453  -4.8450  -4.7595
    -4.7183  -4.7181  -4.4165  -4.4013  -4.4002  -3.8388  -3.8386  -3.7666
    -3.7616  -3.7616  -3.6683  -3.4239  -3.4213  -3.3292  -1.8940  -1.8083
    -1.8082  -1.5963  -1.5924  -1.1567   0.0967   0.0976   0.9017   0.9592
     0.9608   1.2075   1.2089   1.5451   2.4989   2.7982   2.8007   2.8509
     3.0314   3.0336   3.4411   3.6161   3.6258   3.7367   3.7394   3.7623
     3.9102   4.2668

     occupation numbers 
     1.0000   1.0000   1.0000   1.0000   1.0000   1.0000   1.0000   1.0000
     1.0000   1.0000   1.0000   1.0000   1.0000   1.0000   1.0000   1.0000
     1.0000   1.0000   1.0000   1.0000   1.0000   1.0000   1.0000   1.0000
     1.0000   1.0000   1.0000   1.0000   1.0000   1.0000   1.0000   1.0000
     1.0000   1.0000   1.0000   1.0000   1.0000   1.0000   1.0000   1.0000
     1.0000   1.0000   1.0000   1.0000   1.0000   1.0000   1.0000   1.0000
     1.0000   1.0000   1.0000   1.0000   1.0000   1.0000   1.0000   1.0000
     1.0000   1.0000   1.0000   1.0000   1.0000   1.0000   1.0000   1.0000
     1.0000   1.0000   1.0000   1.0000   1.0000   1.0000   1.0000   1.0000
     1.0000   1.0000   1.0000   1.0000   1.0000   1.0000   1.0000   1.0000
     1.0000   1.0000   1.0000   1.0000   1.0000   1.0000   1.0000   1.0000
     1.0000   1.0000   1.0000   1.0000   1.0000   1.0000   1.0000   1.0000
     1.0000   1.0000   1.0000   1.0000   1.0000   1.0000   1.0000   1.0000
     1.0000   1.0000   1.0000   1.0000   0.0000   0.0000   0.0000   0.0000
     0.0000   0.0000   0.0000   0.0000   0.0000   0.0000   0.0000   0.0000
     0.0000   0.0000   0.0000   0.0000   0.0000   0.0000   0.0000   0.0000
     0.0000   0.0000

 ------ SPIN DOWN ----------


          k = 0.0000 0.0000 0.0000 ( 87777 PWs)   bands (ev):

  -107.9223 -69.0906 -69.0899 -67.0094 -19.8294 -19.0100 -19.0093 -18.8911
   -18.8908 -18.8063 -18.7402 -17.1661 -17.1653 -17.1306 -17.0833 -17.0816
   -16.7567 -16.3152 -16.3144 -16.1691 -16.1684 -16.1548 -15.6741 -14.3144
   -14.3130 -14.1525 -14.0189 -14.0185 -13.5176 -13.1314 -13.1310 -13.0794
   -12.9046 -12.9035 -12.5041 -12.0787 -12.0787 -11.7150 -11.5715 -11.5710
   -10.9385 -10.4353 -10.4350  -9.5798  -9.3684  -9.3679  -9.2289  -9.2142
    -9.2140  -9.1994  -8.9559  -8.9554  -8.5960  -8.5953  -8.4601  -7.9775
    -7.9044  -7.8764  -7.8582  -7.6673  -7.5455  -7.5441  -7.4510  -7.4508
    -6.9776  -6.8486  -6.8236  -6.8228  -6.7497  -6.6221  -6.6214  -6.5580
    -6.5527  -6.5526  -6.5211  -6.4382  -6.4290  -6.4250  -6.2948  -6.2918
    -6.2583  -5.5493  -5.5491  -5.0331  -4.9520  -4.8453  -4.8450  -4.7596
    -4.7184  -4.7182  -4.4165  -4.4013  -4.4002  -3.8388  -3.8387  -3.7666
    -3.7616  -3.7616  -3.6682  -3.4239  -3.4212  -3.3293  -1.8941  -1.8084
    -1.8081  -1.5966  -1.5925  -1.1565   0.0965   0.0974   0.9017   0.9591
     0.9609   1.2072   1.2090   1.5450   2.4988   2.7983   2.8005   2.8508
     3.0313   3.0335   3.4410   3.6161   3.6257   3.7366   3.7394   3.7621
     3.9101   4.2667

     occupation numbers 
     1.0000   1.0000   1.0000   1.0000   1.0000   1.0000   1.0000   1.0000
     1.0000   1.0000   1.0000   1.0000   1.0000   1.0000   1.0000   1.0000
     1.0000   1.0000   1.0000   1.0000   1.0000   1.0000   1.0000   1.0000
     1.0000   1.0000   1.0000   1.0000   1.0000   1.0000   1.0000   1.0000
     1.0000   1.0000   1.0000   1.0000   1.0000   1.0000   1.0000   1.0000
     1.0000   1.0000   1.0000   1.0000   1.0000   1.0000   1.0000   1.0000
     1.0000   1.0000   1.0000   1.0000   1.0000   1.0000   1.0000   1.0000
     1.0000   1.0000   1.0000   1.0000   1.0000   1.0000   1.0000   1.0000
     1.0000   1.0000   1.0000   1.0000   1.0000   1.0000   1.0000   1.0000
     1.0000   1.0000   1.0000   1.0000   1.0000   1.0000   1.0000   1.0000
     1.0000   1.0000   1.0000   1.0000   1.0000   1.0000   1.0000   1.0000
     1.0000   1.0000   1.0000   1.0000   1.0000   1.0000   1.0000   1.0000
     1.0000   1.0000   1.0000   1.0000   1.0000   1.0000   1.0000   1.0000
     1.0000   1.0000   1.0000   1.0000   0.0000   0.0000   0.0000   0.0000
     0.0000   0.0000   0.0000   0.0000   0.0000   0.0000   0.0000   0.0000
     0.0000   0.0000   0.0000   0.0000   0.0000   0.0000   0.0000   0.0000
     0.0000   0.0000

     the Fermi energy is    -0.9675 ev

!    total energy              =    -951.88389403 Ry
     Harris-Foulkes estimate   =    -951.88389394 Ry
     estimated scf accuracy    <       0.00000041 Ry

     The total energy is the sum of the following terms:

     one-electron contribution =   -2986.41290118 Ry
     hartree contribution      =    1535.83862278 Ry
     xc contribution           =    -265.74186051 Ry
     ewald contribution        =     764.43224488 Ry
     smearing contrib. (-TS)   =       0.00000000 Ry

     total magnetization       =     0.00 Bohr mag/cell
     absolute magnetization    =     0.01 Bohr mag/cell

     convergence has been achieved in  30 iterations

     Writing output data file distance-2.4.save/

     init_run     :     68.56s CPU     69.78s WALL (       1 calls)
     electrons    :   2674.64s CPU   2723.55s WALL (       1 calls)

     Called by init_run:
     wfcinit      :     35.84s CPU     36.09s WALL (       1 calls)
     wfcinit:atom :      0.05s CPU      0.08s WALL (       2 calls)
     wfcinit:wfcr :     35.46s CPU     35.62s WALL (       2 calls)
     potinit      :     13.48s CPU     13.84s WALL (       1 calls)
     hinit0       :     11.74s CPU     11.79s WALL (       1 calls)

     Called by electrons:
     c_bands      :   1698.00s CPU   1707.55s WALL (      30 calls)
     sum_band     :    560.30s CPU    576.28s WALL (      30 calls)
     v_of_rho     :    207.89s CPU    217.29s WALL (      31 calls)
     v_h          :      2.10s CPU      2.14s WALL (      31 calls)
     v_xc         :    205.79s CPU    215.15s WALL (      31 calls)
     newd         :    202.91s CPU    217.44s WALL (      31 calls)
     mix_rho      :     12.08s CPU     12.24s WALL (      30 calls)

     Called by c_bands:
     init_us_2    :      5.17s CPU      5.21s WALL (     122 calls)
     cegterg      :   1685.53s CPU   1695.01s WALL (      60 calls)

     Called by sum_band:
     sum_band:bec :      0.06s CPU      0.06s WALL (      60 calls)
     addusdens    :    349.16s CPU    363.79s WALL (      30 calls)

     Called by *egterg:
     h_psi        :    875.27s CPU    881.76s WALL (     256 calls)
     s_psi        :    289.93s CPU    290.09s WALL (     256 calls)
     g_psi        :      1.07s CPU      1.07s WALL (     194 calls)
     cdiaghg      :     17.16s CPU     17.17s WALL (     254 calls)
     cegterg:over :    218.81s CPU    218.93s WALL (     194 calls)
     cegterg:upda :    130.23s CPU    130.99s WALL (     194 calls)
     cegterg:last :     92.77s CPU     92.79s WALL (      60 calls)

     Called by h_psi:
     h_psi:pot    :    874.24s CPU    879.59s WALL (     256 calls)
     h_psi:calbec :    290.50s CPU    290.63s WALL (     256 calls)
     vloc_psi     :    294.16s CPU    299.27s WALL (     256 calls)
     add_vuspsi   :    289.58s CPU    289.69s WALL (     256 calls)

     General routines
     calbec       :    415.32s CPU    415.51s WALL (     316 calls)
     fft          :    114.01s CPU    117.54s WALL (    2319 calls)
     ffts         :      2.00s CPU      2.05s WALL (     122 calls)
     fftw         :    315.12s CPU    320.68s WALL (   44296 calls)
     interpolate  :      4.75s CPU      4.86s WALL (      62 calls)

     Parallel routines
     fft_scatt_xy :     74.51s CPU     75.52s WALL (   46737 calls)
     fft_scatt_yz :    145.12s CPU    151.79s WALL (   46737 calls)

     PWSCF        :  45m44.54s CPU  46m34.97s WALL


   This run was terminated on:  15:36: 5  24Dec2022            

=------------------------------------------------------------------------------=
   JOB DONE.
=------------------------------------------------------------------------------=
