
     Program PWSCF v.6.4.1 starts on 29Aug2022 at 22:32:23 

     This program is part of the open-source Quantum ESPRESSO suite
     for quantum simulation of materials; please cite
         "P. Giannozzi et al., J. Phys.:Condens. Matter 21 395502 (2009);
         "P. Giannozzi et al., J. Phys.:Condens. Matter 29 465901 (2017);
          URL http://www.quantum-espresso.org", 
     in publications or presentations arising from this work. More details at
     http://www.quantum-espresso.org/quote

     Parallel version (MPI), running on     5 processors

     MPI processes distributed on     1 nodes
     R & G space division:  proc/nbgrp/npool/nimage =       5
     Reading input from distance-3.0.in

     Current dimensions of program PWSCF are:
     Max number of different atomic species (ntypx) = 10
     Max number of k-points (npk) =  40000
     Max angular momentum in pseudopotentials (lmaxx) =  3

     IMPORTANT: XC functional enforced from input :
     Exchange-correlation      = RVV10 ( 1  4 13  4 3 0)
     Any further DFT definition will be discarded
     Please, verify this is what you really want

               file H.pbe-rrkjus.UPF: wavefunction(s)  1S renormalized
               file Cr.pbe-spn-rrkjus_psl.1.0.0.UPF: wavefunction(s)  3P renormalized

     Subspace diagonalization in iterative solution of the eigenvalue problem:
     a serial algorithm will be used


     Parallelization info
     --------------------
     sticks:   dense  smooth     PW     G-vecs:    dense   smooth      PW
     Min        3662    2095    522               487824   210779   26336
     Max        3663    2096    523               487829   210784   26338
     Sum       18313   10477   2611              2439139  1053907  131685



     bravais-lattice index     =            4
     lattice parameter (alat)  =      23.2937  a.u.
     unit-cell volume          =   13319.7822 (a.u.)^3
     number of atoms/cell      =           52
     number of atomic types    =            3
     number of electrons       =       212.00
     number of Kohn-Sham states=          127
     kinetic-energy cutoff     =      70.0000  Ry
     charge density cutoff     =     490.0000  Ry
     convergence threshold     =      1.0E-06
     mixing beta               =       0.7000
     number of iterations used =            8  plain     mixing
     Exchange-correlation      = RVV10 ( 1  4 13  4 3 0)

     celldm(1)=  23.293684  celldm(2)=   0.000000  celldm(3)=   1.216892
     celldm(4)=   0.000000  celldm(5)=   0.000000  celldm(6)=   0.000000

     crystal axes: (cart. coord. in units of alat)
               a(1) = (   1.000000   0.000000   0.000000 )  
               a(2) = (  -0.500000   0.866025   0.000000 )  
               a(3) = (   0.000000   0.000000   1.216892 )  

     reciprocal axes: (cart. coord. in units 2 pi/alat)
               b(1) = (  1.000000  0.577350 -0.000000 )  
               b(2) = (  0.000000  1.154701  0.000000 )  
               b(3) = (  0.000000 -0.000000  0.821766 )  


     PseudoPot. # 1 for H  read from file:
     /home/cristian/Escritorio/Proyecto_Grafeno/pseudopotenciales/H.pbe-rrkjus.UPF
     MD5 check sum: 7cc9d459525c9a0585f487a71c3c9563
     Pseudo is Ultrasoft, Zval =  1.0
     Generated by new atomic code, or converted to UPF format
     Using radial grid of 1061 points,  2 beta functions with: 
                l(1) =   0
                l(2) =   0
     Q(r) pseudized with 0 coefficients 


     PseudoPot. # 2 for C  read from file:
     /home/cristian/Escritorio/Proyecto_Grafeno/pseudopotenciales/C.pbe-n-rrkjus_psl.1.0.0.UPF
     MD5 check sum: 1fdd950c42eb37d8afe3dd2f8d12311e
     Pseudo is Ultrasoft + core correction, Zval =  4.0
     Generated using "atomic" code by A. Dal Corso v.6.3MaX
     Using radial grid of 1073 points,  4 beta functions with: 
                l(1) =   0
                l(2) =   0
                l(3) =   1
                l(4) =   1
     Q(r) pseudized with 0 coefficients 


     PseudoPot. # 3 for Cr read from file:
     /home/cristian/Escritorio/Proyecto_Grafeno/pseudopotenciales/Cr.pbe-spn-rrkjus_psl.1.0.0.UPF
     MD5 check sum: 793d051e4f89dd1e3290b85340a92c0a
     Pseudo is Ultrasoft + core correction, Zval = 14.0
     Generated using "atomic" code by A. Dal Corso v.6.2.2
     Using radial grid of 1183 points,  6 beta functions with: 
                l(1) =   0
                l(2) =   0
                l(3) =   1
                l(4) =   1
                l(5) =   2
                l(6) =   2
     Q(r) pseudized with 0 coefficients 


     vdW kernel table read from file rVV10_kernel_table
     MD5 check sum: b8e2538accc0c0b3206b45ba4daaba6c

     atomic species   valence    mass     pseudopotential
        H              1.00     1.00794     H ( 1.00)
        C              4.00    12.01070     C ( 1.00)
        Cr            14.00    51.99610     Cr( 1.00)

     No symmetry found



   Cartesian axes

     site n.     atom                  positions (alat units)
         1           H   tau(   1) = (   0.1694937   0.4618802   0.2433783  )
         2           H   tau(   2) = (   0.2305063   0.4618802   0.2433783  )
         3           C   tau(   3) = (   0.0000000   0.0000000   0.0000000  )
         4           C   tau(   4) = (   0.0000000   0.1154701   0.0000000  )
         5           C   tau(   5) = (  -0.1000000   0.1732051   0.0000000  )
         6           C   tau(   6) = (  -0.1000000   0.2886751   0.0000000  )
         7           C   tau(   7) = (  -0.2000000   0.3464102   0.0000000  )
         8           C   tau(   8) = (  -0.2000000   0.4618802   0.0000000  )
         9           C   tau(   9) = (  -0.3000000   0.5196152   0.0000000  )
        10           C   tau(  10) = (  -0.3000000   0.6350853   0.0000000  )
        11           C   tau(  11) = (  -0.4000000   0.6928203   0.0000000  )
        12           C   tau(  12) = (  -0.4000000   0.8082904   0.0000000  )
        13           C   tau(  13) = (   0.2000000   0.0000000   0.0000000  )
        14           C   tau(  14) = (   0.2000000   0.1154701   0.0000000  )
        15           C   tau(  15) = (   0.1000000   0.1732051   0.0000000  )
        16           C   tau(  16) = (   0.1000000   0.2886751   0.0000000  )
        17           C   tau(  17) = (   0.0000000   0.3464102   0.0000000  )
        18           C   tau(  18) = (   0.0000000   0.4618802   0.0000000  )
        19           C   tau(  19) = (  -0.1000000   0.5196152   0.0000000  )
        20           C   tau(  20) = (  -0.1000000   0.6350853   0.0000000  )
        21           C   tau(  21) = (  -0.2000000   0.6928203   0.0000000  )
        22           C   tau(  22) = (  -0.2000000   0.8082904   0.0000000  )
        23           C   tau(  23) = (   0.4000000   0.0000000   0.0000000  )
        24           C   tau(  24) = (   0.4000000   0.1154701   0.0000000  )
        25           C   tau(  25) = (   0.3000000   0.1732051   0.0000000  )
        26           C   tau(  26) = (   0.3000000   0.2886751   0.0000000  )
        27           C   tau(  27) = (   0.2000000   0.3464102   0.0000000  )
        28           Cr  tau(  28) = (   0.2000000   0.4618802   0.0000000  )
        29           C   tau(  29) = (   0.1000000   0.5196152   0.0000000  )
        30           C   tau(  30) = (   0.1000000   0.6350853   0.0000000  )
        31           C   tau(  31) = (   0.0000000   0.6928203   0.0000000  )
        32           C   tau(  32) = (   0.0000000   0.8082904   0.0000000  )
        33           C   tau(  33) = (   0.6000000   0.0000000   0.0000000  )
        34           C   tau(  34) = (   0.6000000   0.1154701   0.0000000  )
        35           C   tau(  35) = (   0.5000000   0.1732051   0.0000000  )
        36           C   tau(  36) = (   0.5000000   0.2886751   0.0000000  )
        37           C   tau(  37) = (   0.4000000   0.3464102   0.0000000  )
        38           C   tau(  38) = (   0.4000000   0.4618802   0.0000000  )
        39           C   tau(  39) = (   0.3000000   0.5196152   0.0000000  )
        40           C   tau(  40) = (   0.3000000   0.6350853   0.0000000  )
        41           C   tau(  41) = (   0.2000000   0.6928203   0.0000000  )
        42           C   tau(  42) = (   0.2000000   0.8082904   0.0000000  )
        43           C   tau(  43) = (   0.8000000   0.0000000   0.0000000  )
        44           C   tau(  44) = (   0.8000000   0.1154701   0.0000000  )
        45           C   tau(  45) = (   0.7000000   0.1732051   0.0000000  )
        46           C   tau(  46) = (   0.7000000   0.2886751   0.0000000  )
        47           C   tau(  47) = (   0.6000000   0.3464102   0.0000000  )
        48           C   tau(  48) = (   0.6000000   0.4618802   0.0000000  )
        49           C   tau(  49) = (   0.5000000   0.5196152   0.0000000  )
        50           C   tau(  50) = (   0.5000000   0.6350853   0.0000000  )
        51           C   tau(  51) = (   0.4000000   0.6928203   0.0000000  )
        52           C   tau(  52) = (   0.4000000   0.8082904   0.0000000  )

     number of k points=     1  Marzari-Vanderbilt smearing, width (Ry)=  0.0010
                       cart. coord. in units 2pi/alat
        k(    1) = (   0.0000000   0.0000000   0.0000000), wk =   2.0000000

     Dense  grid:  2439139 G-vectors     FFT dimensions: ( 180, 180, 200)

     Smooth grid:  1053907 G-vectors     FFT dimensions: ( 125, 125, 160)

     Estimated max dynamical RAM per process >       2.25 GB

     Estimated total dynamical RAM >      11.26 GB

     Check: negative core charge=   -0.000001

     Initial potential from superposition of free atoms

     starting charge  211.80478, renormalised to  212.00000

     negative rho (up, down):  4.141E-03 0.000E+00


---------------------------------------------------------------------------------
Carrying out rVV10 run using the following parameters:
Nqs =      20    Nr_points =    1024   r_max =   100.000
b_value =  6.30000    beta =  0.00901
     q_mesh =  0.00010000  0.00030000  0.00058939  0.00100810
               0.00161396  0.00249058  0.00375900  0.00559430
               0.00824984  0.01209221  0.01765183  0.02569619
               0.03733578  0.05417739  0.07854596  0.11380545
               0.16482331  0.23864234  0.34545298  0.50000000

Gradients computed in Reciprocal space

---------------------------------------------------------------------------------


     Starting wfcs are  208 randomized atomic wfcs

     total cpu time spent up to now is       76.6 secs

     Self-consistent Calculation

     iteration #  1     ecut=    70.00 Ry     beta= 0.70
     Davidson diagonalization with overlap
     ethr =  1.00E-02,  avg # of iterations =  2.0

     negative rho (up, down):  4.754E-03 0.000E+00

     total cpu time spent up to now is      194.7 secs

     total energy              =    -783.47862755 Ry
     Harris-Foulkes estimate   =    -789.98485747 Ry
     estimated scf accuracy    <       9.34276754 Ry

     iteration #  2     ecut=    70.00 Ry     beta= 0.70
     Davidson diagonalization with overlap
     ethr =  4.41E-03,  avg # of iterations =  8.0

     negative rho (up, down):  5.057E-03 0.000E+00

     total cpu time spent up to now is      312.8 secs

     total energy              =    -777.25910354 Ry
     Harris-Foulkes estimate   =    -797.79345048 Ry
     estimated scf accuracy    <      76.17056260 Ry

     iteration #  3     ecut=    70.00 Ry     beta= 0.70
     Davidson diagonalization with overlap
     ethr =  4.41E-03,  avg # of iterations =  5.0

     negative rho (up, down):  5.123E-03 0.000E+00

     total cpu time spent up to now is      481.2 secs

     total energy              =    -785.65741067 Ry
     Harris-Foulkes estimate   =    -787.78928712 Ry
     estimated scf accuracy    <       8.72559216 Ry

     iteration #  4     ecut=    70.00 Ry     beta= 0.70
     Davidson diagonalization with overlap
     ethr =  4.12E-03,  avg # of iterations =  3.0

     negative rho (up, down):  6.747E-03 0.000E+00

     total cpu time spent up to now is      574.3 secs

     total energy              =    -786.71517987 Ry
     Harris-Foulkes estimate   =    -787.36946335 Ry
     estimated scf accuracy    <       2.07178924 Ry

     iteration #  5     ecut=    70.00 Ry     beta= 0.70
     Davidson diagonalization with overlap
     ethr =  9.77E-04,  avg # of iterations =  2.0

     negative rho (up, down):  7.340E-03 0.000E+00

     total cpu time spent up to now is      670.1 secs

     total energy              =    -786.92322094 Ry
     Harris-Foulkes estimate   =    -786.98737071 Ry
     estimated scf accuracy    <       0.25171762 Ry

     iteration #  6     ecut=    70.00 Ry     beta= 0.70
     Davidson diagonalization with overlap
     ethr =  1.19E-04,  avg # of iterations = 11.0

     negative rho (up, down):  6.939E-03 0.000E+00

     total cpu time spent up to now is      776.2 secs

     total energy              =    -786.93181005 Ry
     Harris-Foulkes estimate   =    -786.98917597 Ry
     estimated scf accuracy    <       0.24026200 Ry

     iteration #  7     ecut=    70.00 Ry     beta= 0.70
     Davidson diagonalization with overlap
     ethr =  1.13E-04,  avg # of iterations =  2.0

     negative rho (up, down):  6.407E-03 0.000E+00

     total cpu time spent up to now is      866.8 secs

     total energy              =    -786.93437471 Ry
     Harris-Foulkes estimate   =    -786.96193793 Ry
     estimated scf accuracy    <       0.12215440 Ry

     iteration #  8     ecut=    70.00 Ry     beta= 0.70
     Davidson diagonalization with overlap
     ethr =  5.76E-05,  avg # of iterations =  2.0

     negative rho (up, down):  6.857E-03 0.000E+00

     total cpu time spent up to now is      957.0 secs

     total energy              =    -786.94132444 Ry
     Harris-Foulkes estimate   =    -786.95462363 Ry
     estimated scf accuracy    <       0.08487327 Ry

     iteration #  9     ecut=    70.00 Ry     beta= 0.70
     Davidson diagonalization with overlap
     ethr =  4.00E-05,  avg # of iterations =  3.0

     negative rho (up, down):  6.941E-03 0.000E+00

     total cpu time spent up to now is     1045.8 secs

     total energy              =    -786.94325095 Ry
     Harris-Foulkes estimate   =    -786.94838502 Ry
     estimated scf accuracy    <       0.03825667 Ry

     iteration # 10     ecut=    70.00 Ry     beta= 0.70
     Davidson diagonalization with overlap
     ethr =  1.80E-05,  avg # of iterations =  4.0

     negative rho (up, down):  7.010E-03 0.000E+00

     total cpu time spent up to now is     1137.2 secs

     total energy              =    -786.94557829 Ry
     Harris-Foulkes estimate   =    -786.95319091 Ry
     estimated scf accuracy    <       0.07186660 Ry

     iteration # 11     ecut=    70.00 Ry     beta= 0.70
     Davidson diagonalization with overlap
     ethr =  1.80E-05,  avg # of iterations =  1.0

     negative rho (up, down):  6.927E-03 0.000E+00

     total cpu time spent up to now is     1225.7 secs

     total energy              =    -786.94663059 Ry
     Harris-Foulkes estimate   =    -786.94744732 Ry
     estimated scf accuracy    <       0.01101493 Ry

     iteration # 12     ecut=    70.00 Ry     beta= 0.70
     Davidson diagonalization with overlap
     c_bands:  1 eigenvalues not converged
     ethr =  5.20E-06,  avg # of iterations = 20.0

     negative rho (up, down):  6.983E-03 0.000E+00

     total cpu time spent up to now is     1322.0 secs

     total energy              =    -786.94694758 Ry
     Harris-Foulkes estimate   =    -786.94729348 Ry
     estimated scf accuracy    <       0.00634437 Ry

     iteration # 13     ecut=    70.00 Ry     beta= 0.70
     Davidson diagonalization with overlap
     ethr =  2.99E-06,  avg # of iterations =  3.0

     negative rho (up, down):  6.988E-03 0.000E+00

     total cpu time spent up to now is     1411.2 secs

     total energy              =    -786.94717129 Ry
     Harris-Foulkes estimate   =    -786.94725221 Ry
     estimated scf accuracy    <       0.00237491 Ry

     iteration # 14     ecut=    70.00 Ry     beta= 0.70
     Davidson diagonalization with overlap
     ethr =  1.12E-06,  avg # of iterations =  1.0

     negative rho (up, down):  7.010E-03 0.000E+00

     total cpu time spent up to now is     1500.6 secs

     total energy              =    -786.94722401 Ry
     Harris-Foulkes estimate   =    -786.94722368 Ry
     estimated scf accuracy    <       0.00010885 Ry

     iteration # 15     ecut=    70.00 Ry     beta= 0.70
     Davidson diagonalization with overlap
     ethr =  5.13E-08,  avg # of iterations =  4.0

     negative rho (up, down):  7.023E-03 0.000E+00

     total cpu time spent up to now is     1594.7 secs

     total energy              =    -786.94724351 Ry
     Harris-Foulkes estimate   =    -786.94724066 Ry
     estimated scf accuracy    <       0.00004693 Ry

     iteration # 16     ecut=    70.00 Ry     beta= 0.70
     Davidson diagonalization with overlap
     ethr =  2.21E-08,  avg # of iterations =  3.0

     negative rho (up, down):  7.033E-03 0.000E+00

     total cpu time spent up to now is     1690.0 secs

     total energy              =    -786.94725516 Ry
     Harris-Foulkes estimate   =    -786.94725238 Ry
     estimated scf accuracy    <       0.00002663 Ry

     iteration # 17     ecut=    70.00 Ry     beta= 0.70
     Davidson diagonalization with overlap
     ethr =  1.26E-08,  avg # of iterations =  3.0

     negative rho (up, down):  7.038E-03 0.000E+00

     total cpu time spent up to now is     1786.3 secs

     total energy              =    -786.94726448 Ry
     Harris-Foulkes estimate   =    -786.94726065 Ry
     estimated scf accuracy    <       0.00001219 Ry

     iteration # 18     ecut=    70.00 Ry     beta= 0.70
     Davidson diagonalization with overlap
     ethr =  5.75E-09,  avg # of iterations =  4.0

     negative rho (up, down):  7.047E-03 0.000E+00

     total cpu time spent up to now is     1890.4 secs

     total energy              =    -786.94727023 Ry
     Harris-Foulkes estimate   =    -786.94727166 Ry
     estimated scf accuracy    <       0.00004359 Ry

     iteration # 19     ecut=    70.00 Ry     beta= 0.70
     Davidson diagonalization with overlap
     ethr =  5.75E-09,  avg # of iterations =  3.0

     negative rho (up, down):  7.054E-03 0.000E+00

     total cpu time spent up to now is     1986.9 secs

     total energy              =    -786.94727315 Ry
     Harris-Foulkes estimate   =    -786.94727408 Ry
     estimated scf accuracy    <       0.00002155 Ry

     iteration # 20     ecut=    70.00 Ry     beta= 0.70
     Davidson diagonalization with overlap
     ethr =  5.75E-09,  avg # of iterations =  3.0

     negative rho (up, down):  7.064E-03 0.000E+00

     total cpu time spent up to now is     2086.2 secs

     total energy              =    -786.94728326 Ry
     Harris-Foulkes estimate   =    -786.94728428 Ry
     estimated scf accuracy    <       0.00001756 Ry

     iteration # 21     ecut=    70.00 Ry     beta= 0.70
     Davidson diagonalization with overlap
     ethr =  5.75E-09,  avg # of iterations =  3.0

     negative rho (up, down):  7.072E-03 0.000E+00

     total cpu time spent up to now is     2184.5 secs

     total energy              =    -786.94728720 Ry
     Harris-Foulkes estimate   =    -786.94728879 Ry
     estimated scf accuracy    <       0.00000325 Ry

     iteration # 22     ecut=    70.00 Ry     beta= 0.70
     Davidson diagonalization with overlap
     ethr =  1.53E-09,  avg # of iterations =  4.0

     negative rho (up, down):  7.082E-03 0.000E+00

     total cpu time spent up to now is     2290.2 secs

     total energy              =    -786.94729007 Ry
     Harris-Foulkes estimate   =    -786.94729245 Ry
     estimated scf accuracy    <       0.00002440 Ry

     iteration # 23     ecut=    70.00 Ry     beta= 0.70
     Davidson diagonalization with overlap
     ethr =  1.53E-09,  avg # of iterations =  2.0

     negative rho (up, down):  7.084E-03 0.000E+00

     total cpu time spent up to now is     2376.0 secs

     total energy              =    -786.94728270 Ry
     Harris-Foulkes estimate   =    -786.94729118 Ry
     estimated scf accuracy    <       0.00002317 Ry

     iteration # 24     ecut=    70.00 Ry     beta= 0.70
     Davidson diagonalization with overlap
     ethr =  1.53E-09,  avg # of iterations =  4.0

     negative rho (up, down):  7.095E-03 0.000E+00

     total cpu time spent up to now is     2476.8 secs

     total energy              =    -786.94729151 Ry
     Harris-Foulkes estimate   =    -786.94729545 Ry
     estimated scf accuracy    <       0.00000144 Ry

     iteration # 25     ecut=    70.00 Ry     beta= 0.70
     Davidson diagonalization with overlap
     ethr =  6.78E-10,  avg # of iterations =  4.0

     negative rho (up, down):  7.111E-03 0.000E+00

     total cpu time spent up to now is     2576.0 secs

     End of self-consistent calculation

          k = 0.0000 0.0000 0.0000 (131685 PWs)   bands (ev):

   -73.1174 -45.4095 -45.4086 -44.2951 -20.9222 -20.0832 -20.0825 -19.9914
   -19.9913 -19.9907 -19.6150 -18.2357 -18.2355 -18.2314 -18.1241 -18.1234
   -17.8237 -17.3821 -17.3817 -17.2830 -17.2004 -17.1995 -16.4851 -15.2423
   -15.2421 -15.2015 -15.1534 -15.1531 -14.4880 -14.2268 -14.2266 -14.1976
   -13.8715 -13.8710 -13.4338 -12.9854 -12.9854 -12.8222 -12.5153 -12.5149
   -11.5489 -10.7637 -10.7632 -10.6045 -10.4738 -10.4737 -10.3823 -10.3510
   -10.3509 -10.3397  -9.8234  -9.8232  -9.2779  -9.2776  -9.1809  -9.0984
    -8.9907  -8.6846  -8.5720  -8.5716  -8.3175  -8.3130  -8.2610  -7.9882
    -7.9880  -7.9787  -7.9780  -7.9512  -7.8809  -7.7200  -7.7196  -7.6922
    -7.6877  -7.6873  -7.6387  -7.6230  -6.6758  -6.6721  -6.6105  -6.6104
    -6.3454  -6.3450  -6.1438  -6.0508  -5.8976  -5.8745  -5.8739  -5.5414
    -5.5332  -5.3243  -5.3242  -5.0080  -5.0076  -4.9269  -4.8262  -4.8261
    -4.7529  -4.7528  -4.2742  -3.7186  -3.7174  -3.0078  -2.9652  -2.9649
    -1.9851  -1.8209  -1.8208  -1.6327  -0.2229  -0.2033  -0.2024   0.5026
     0.5827   0.5834   1.2342   1.6320   1.6365   1.6998   1.8910   1.9473
     2.1456   2.2025   2.4033   2.4900   2.4907   2.5096   2.5130

     the Fermi energy is    -1.8190 ev

!    total energy              =    -786.94729481 Ry
     Harris-Foulkes estimate   =    -786.94729659 Ry
     estimated scf accuracy    <       0.00000061 Ry

     The total energy is the sum of the following terms:

     one-electron contribution =   -4508.14083388 Ry
     hartree contribution      =    2289.68374586 Ry
     xc contribution           =    -254.33948465 Ry
     ewald contribution        =    1685.84993423 Ry
     smearing contrib. (-TS)   =      -0.00065636 Ry

     convergence has been achieved in  25 iterations

     Writing output data file cromo-top-distance-3.0.save/

     init_run     :     73.42s CPU     75.46s WALL (       1 calls)
     electrons    :   2429.40s CPU   2499.52s WALL (       1 calls)

     Called by init_run:
     wfcinit      :     36.91s CPU     37.19s WALL (       1 calls)
     potinit      :     17.12s CPU     17.88s WALL (       1 calls)
     hinit0       :     10.93s CPU     11.00s WALL (       1 calls)

     Called by electrons:
     c_bands      :   1471.93s CPU   1479.48s WALL (      25 calls)
     sum_band     :    480.20s CPU    504.28s WALL (      25 calls)
     v_of_rho     :    285.57s CPU    301.75s WALL (      26 calls)
     newd         :    195.62s CPU    219.20s WALL (      26 calls)
     mix_rho      :      9.41s CPU      9.57s WALL (      25 calls)

     Called by c_bands:
     init_us_2    :      3.77s CPU      3.84s WALL (      51 calls)
     cegterg      :   1462.00s CPU   1469.51s WALL (      25 calls)

     Called by sum_band:
     sum_band:bec :      0.02s CPU      0.02s WALL (      25 calls)
     addusdens    :    303.78s CPU    326.68s WALL (      25 calls)

     Called by *egterg:
     h_psi        :    785.40s CPU    790.77s WALL (     130 calls)
     s_psi        :    249.92s CPU    250.03s WALL (     130 calls)
     g_psi        :      0.88s CPU      0.88s WALL (     104 calls)
     cdiaghg      :      9.57s CPU      9.57s WALL (     129 calls)

     Called by h_psi:
     h_psi:pot    :    784.49s CPU    788.93s WALL (     130 calls)
     h_psi:calbec :    248.83s CPU    248.93s WALL (     130 calls)
     vloc_psi     :    285.60s CPU    289.83s WALL (     130 calls)
     add_vuspsi   :    250.06s CPU    250.17s WALL (     130 calls)

     General routines
     calbec       :    351.00s CPU    351.16s WALL (     155 calls)
     fft          :    156.33s CPU    162.11s WALL (    1636 calls)
     ffts         :      1.85s CPU      1.91s WALL (      51 calls)
     fftw         :    296.06s CPU    300.67s WALL (   18617 calls)
     interpolate  :      4.02s CPU      4.14s WALL (      26 calls)

     Parallel routines
     fft_scatt_xy :     94.29s CPU     94.64s WALL (   20304 calls)
     fft_scatt_yz :    130.33s CPU    138.51s WALL (   20304 calls)

     PWSCF        :  41m44.08s CPU  42m56.56s WALL


   This run was terminated on:  23:15:19  29Aug2022            

=------------------------------------------------------------------------------=
   JOB DONE.
=------------------------------------------------------------------------------=
