
     Program PWSCF v.6.4.1 starts on 29Aug2022 at 21:51:27 

     This program is part of the open-source Quantum ESPRESSO suite
     for quantum simulation of materials; please cite
         "P. Giannozzi et al., J. Phys.:Condens. Matter 21 395502 (2009);
         "P. Giannozzi et al., J. Phys.:Condens. Matter 29 465901 (2017);
          URL http://www.quantum-espresso.org", 
     in publications or presentations arising from this work. More details at
     http://www.quantum-espresso.org/quote

     Parallel version (MPI), running on     5 processors

     MPI processes distributed on     1 nodes
     R & G space division:  proc/nbgrp/npool/nimage =       5
     Reading input from distance-3.5.in

     Current dimensions of program PWSCF are:
     Max number of different atomic species (ntypx) = 10
     Max number of k-points (npk) =  40000
     Max angular momentum in pseudopotentials (lmaxx) =  3

     IMPORTANT: XC functional enforced from input :
     Exchange-correlation      = RVV10 ( 1  4 13  4 3 0)
     Any further DFT definition will be discarded
     Please, verify this is what you really want

               file H.pbe-rrkjus.UPF: wavefunction(s)  1S renormalized
               file Cr.pbe-spn-rrkjus_psl.1.0.0.UPF: wavefunction(s)  3P renormalized

     Subspace diagonalization in iterative solution of the eigenvalue problem:
     a serial algorithm will be used


     Parallelization info
     --------------------
     sticks:   dense  smooth     PW     G-vecs:    dense   smooth      PW
     Min        3662    2095    522               487824   210779   26336
     Max        3663    2096    523               487829   210784   26338
     Sum       18313   10477   2611              2439139  1053907  131685



     bravais-lattice index     =            4
     lattice parameter (alat)  =      23.2937  a.u.
     unit-cell volume          =   13319.7822 (a.u.)^3
     number of atoms/cell      =           52
     number of atomic types    =            3
     number of electrons       =       212.00
     number of Kohn-Sham states=          127
     kinetic-energy cutoff     =      70.0000  Ry
     charge density cutoff     =     490.0000  Ry
     convergence threshold     =      1.0E-06
     mixing beta               =       0.7000
     number of iterations used =            8  plain     mixing
     Exchange-correlation      = RVV10 ( 1  4 13  4 3 0)

     celldm(1)=  23.293684  celldm(2)=   0.000000  celldm(3)=   1.216892
     celldm(4)=   0.000000  celldm(5)=   0.000000  celldm(6)=   0.000000

     crystal axes: (cart. coord. in units of alat)
               a(1) = (   1.000000   0.000000   0.000000 )  
               a(2) = (  -0.500000   0.866025   0.000000 )  
               a(3) = (   0.000000   0.000000   1.216892 )  

     reciprocal axes: (cart. coord. in units 2 pi/alat)
               b(1) = (  1.000000  0.577350 -0.000000 )  
               b(2) = (  0.000000  1.154701  0.000000 )  
               b(3) = (  0.000000 -0.000000  0.821766 )  


     PseudoPot. # 1 for H  read from file:
     /home/cristian/Escritorio/Proyecto_Grafeno/pseudopotenciales/H.pbe-rrkjus.UPF
     MD5 check sum: 7cc9d459525c9a0585f487a71c3c9563
     Pseudo is Ultrasoft, Zval =  1.0
     Generated by new atomic code, or converted to UPF format
     Using radial grid of 1061 points,  2 beta functions with: 
                l(1) =   0
                l(2) =   0
     Q(r) pseudized with 0 coefficients 


     PseudoPot. # 2 for C  read from file:
     /home/cristian/Escritorio/Proyecto_Grafeno/pseudopotenciales/C.pbe-n-rrkjus_psl.1.0.0.UPF
     MD5 check sum: 1fdd950c42eb37d8afe3dd2f8d12311e
     Pseudo is Ultrasoft + core correction, Zval =  4.0
     Generated using "atomic" code by A. Dal Corso v.6.3MaX
     Using radial grid of 1073 points,  4 beta functions with: 
                l(1) =   0
                l(2) =   0
                l(3) =   1
                l(4) =   1
     Q(r) pseudized with 0 coefficients 


     PseudoPot. # 3 for Cr read from file:
     /home/cristian/Escritorio/Proyecto_Grafeno/pseudopotenciales/Cr.pbe-spn-rrkjus_psl.1.0.0.UPF
     MD5 check sum: 793d051e4f89dd1e3290b85340a92c0a
     Pseudo is Ultrasoft + core correction, Zval = 14.0
     Generated using "atomic" code by A. Dal Corso v.6.2.2
     Using radial grid of 1183 points,  6 beta functions with: 
                l(1) =   0
                l(2) =   0
                l(3) =   1
                l(4) =   1
                l(5) =   2
                l(6) =   2
     Q(r) pseudized with 0 coefficients 


     vdW kernel table read from file rVV10_kernel_table
     MD5 check sum: b8e2538accc0c0b3206b45ba4daaba6c

     atomic species   valence    mass     pseudopotential
        H              1.00     1.00794     H ( 1.00)
        C              4.00    12.01070     C ( 1.00)
        Cr            14.00    51.99610     Cr( 1.00)

     No symmetry found



   Cartesian axes

     site n.     atom                  positions (alat units)
         1           H   tau(   1) = (   0.1694937   0.4618802   0.2839414  )
         2           H   tau(   2) = (   0.2305063   0.4618802   0.2839414  )
         3           C   tau(   3) = (   0.0000000   0.0000000   0.0000000  )
         4           C   tau(   4) = (   0.0000000   0.1154701   0.0000000  )
         5           C   tau(   5) = (  -0.1000000   0.1732051   0.0000000  )
         6           C   tau(   6) = (  -0.1000000   0.2886751   0.0000000  )
         7           C   tau(   7) = (  -0.2000000   0.3464102   0.0000000  )
         8           C   tau(   8) = (  -0.2000000   0.4618802   0.0000000  )
         9           C   tau(   9) = (  -0.3000000   0.5196152   0.0000000  )
        10           C   tau(  10) = (  -0.3000000   0.6350853   0.0000000  )
        11           C   tau(  11) = (  -0.4000000   0.6928203   0.0000000  )
        12           C   tau(  12) = (  -0.4000000   0.8082904   0.0000000  )
        13           C   tau(  13) = (   0.2000000   0.0000000   0.0000000  )
        14           C   tau(  14) = (   0.2000000   0.1154701   0.0000000  )
        15           C   tau(  15) = (   0.1000000   0.1732051   0.0000000  )
        16           C   tau(  16) = (   0.1000000   0.2886751   0.0000000  )
        17           C   tau(  17) = (   0.0000000   0.3464102   0.0000000  )
        18           C   tau(  18) = (   0.0000000   0.4618802   0.0000000  )
        19           C   tau(  19) = (  -0.1000000   0.5196152   0.0000000  )
        20           C   tau(  20) = (  -0.1000000   0.6350853   0.0000000  )
        21           C   tau(  21) = (  -0.2000000   0.6928203   0.0000000  )
        22           C   tau(  22) = (  -0.2000000   0.8082904   0.0000000  )
        23           C   tau(  23) = (   0.4000000   0.0000000   0.0000000  )
        24           C   tau(  24) = (   0.4000000   0.1154701   0.0000000  )
        25           C   tau(  25) = (   0.3000000   0.1732051   0.0000000  )
        26           C   tau(  26) = (   0.3000000   0.2886751   0.0000000  )
        27           C   tau(  27) = (   0.2000000   0.3464102   0.0000000  )
        28           Cr  tau(  28) = (   0.2000000   0.4618802   0.0000000  )
        29           C   tau(  29) = (   0.1000000   0.5196152   0.0000000  )
        30           C   tau(  30) = (   0.1000000   0.6350853   0.0000000  )
        31           C   tau(  31) = (   0.0000000   0.6928203   0.0000000  )
        32           C   tau(  32) = (   0.0000000   0.8082904   0.0000000  )
        33           C   tau(  33) = (   0.6000000   0.0000000   0.0000000  )
        34           C   tau(  34) = (   0.6000000   0.1154701   0.0000000  )
        35           C   tau(  35) = (   0.5000000   0.1732051   0.0000000  )
        36           C   tau(  36) = (   0.5000000   0.2886751   0.0000000  )
        37           C   tau(  37) = (   0.4000000   0.3464102   0.0000000  )
        38           C   tau(  38) = (   0.4000000   0.4618802   0.0000000  )
        39           C   tau(  39) = (   0.3000000   0.5196152   0.0000000  )
        40           C   tau(  40) = (   0.3000000   0.6350853   0.0000000  )
        41           C   tau(  41) = (   0.2000000   0.6928203   0.0000000  )
        42           C   tau(  42) = (   0.2000000   0.8082904   0.0000000  )
        43           C   tau(  43) = (   0.8000000   0.0000000   0.0000000  )
        44           C   tau(  44) = (   0.8000000   0.1154701   0.0000000  )
        45           C   tau(  45) = (   0.7000000   0.1732051   0.0000000  )
        46           C   tau(  46) = (   0.7000000   0.2886751   0.0000000  )
        47           C   tau(  47) = (   0.6000000   0.3464102   0.0000000  )
        48           C   tau(  48) = (   0.6000000   0.4618802   0.0000000  )
        49           C   tau(  49) = (   0.5000000   0.5196152   0.0000000  )
        50           C   tau(  50) = (   0.5000000   0.6350853   0.0000000  )
        51           C   tau(  51) = (   0.4000000   0.6928203   0.0000000  )
        52           C   tau(  52) = (   0.4000000   0.8082904   0.0000000  )

     number of k points=     1  Marzari-Vanderbilt smearing, width (Ry)=  0.0010
                       cart. coord. in units 2pi/alat
        k(    1) = (   0.0000000   0.0000000   0.0000000), wk =   2.0000000

     Dense  grid:  2439139 G-vectors     FFT dimensions: ( 180, 180, 200)

     Smooth grid:  1053907 G-vectors     FFT dimensions: ( 125, 125, 160)

     Estimated max dynamical RAM per process >       2.25 GB

     Estimated total dynamical RAM >      11.26 GB

     Check: negative core charge=   -0.000001

     Initial potential from superposition of free atoms

     starting charge  211.80478, renormalised to  212.00000

     negative rho (up, down):  3.839E-03 0.000E+00


---------------------------------------------------------------------------------
Carrying out rVV10 run using the following parameters:
Nqs =      20    Nr_points =    1024   r_max =   100.000
b_value =  6.30000    beta =  0.00901
     q_mesh =  0.00010000  0.00030000  0.00058939  0.00100810
               0.00161396  0.00249058  0.00375900  0.00559430
               0.00824984  0.01209221  0.01765183  0.02569619
               0.03733578  0.05417739  0.07854596  0.11380545
               0.16482331  0.23864234  0.34545298  0.50000000

Gradients computed in Reciprocal space

---------------------------------------------------------------------------------


     Starting wfcs are  208 randomized atomic wfcs

     total cpu time spent up to now is       72.9 secs

     Self-consistent Calculation

     iteration #  1     ecut=    70.00 Ry     beta= 0.70
     Davidson diagonalization with overlap
     ethr =  1.00E-02,  avg # of iterations =  2.0

     negative rho (up, down):  4.425E-03 0.000E+00

     total cpu time spent up to now is      184.0 secs

     total energy              =    -783.87524957 Ry
     Harris-Foulkes estimate   =    -789.93011615 Ry
     estimated scf accuracy    <       8.84028537 Ry

     iteration #  2     ecut=    70.00 Ry     beta= 0.70
     Davidson diagonalization with overlap
     ethr =  4.17E-03,  avg # of iterations =  7.0

     negative rho (up, down):  4.633E-03 0.000E+00

     total cpu time spent up to now is      301.0 secs

     total energy              =    -777.48958988 Ry
     Harris-Foulkes estimate   =    -796.33988334 Ry
     estimated scf accuracy    <      70.65986691 Ry

     iteration #  3     ecut=    70.00 Ry     beta= 0.70
     Davidson diagonalization with overlap
     ethr =  4.17E-03,  avg # of iterations =  5.0

     negative rho (up, down):  4.778E-03 0.000E+00

     total cpu time spent up to now is      463.6 secs

     total energy              =    -785.60145347 Ry
     Harris-Foulkes estimate   =    -787.91703458 Ry
     estimated scf accuracy    <      10.03334549 Ry

     iteration #  4     ecut=    70.00 Ry     beta= 0.70
     Davidson diagonalization with overlap
     ethr =  4.17E-03,  avg # of iterations =  4.0

     negative rho (up, down):  6.449E-03 0.000E+00

     total cpu time spent up to now is      553.3 secs

     total energy              =    -786.71450180 Ry
     Harris-Foulkes estimate   =    -787.39735289 Ry
     estimated scf accuracy    <       2.25791663 Ry

     iteration #  5     ecut=    70.00 Ry     beta= 0.70
     Davidson diagonalization with overlap
     ethr =  1.07E-03,  avg # of iterations =  4.0

     negative rho (up, down):  7.045E-03 0.000E+00

     total cpu time spent up to now is      646.9 secs

     total energy              =    -786.92167568 Ry
     Harris-Foulkes estimate   =    -786.99009898 Ry
     estimated scf accuracy    <       0.28374360 Ry

     iteration #  6     ecut=    70.00 Ry     beta= 0.70
     Davidson diagonalization with overlap
     ethr =  1.34E-04,  avg # of iterations = 10.0

     negative rho (up, down):  6.707E-03 0.000E+00

     total cpu time spent up to now is      749.8 secs

     total energy              =    -786.92970312 Ry
     Harris-Foulkes estimate   =    -786.98752217 Ry
     estimated scf accuracy    <       0.24810241 Ry

     iteration #  7     ecut=    70.00 Ry     beta= 0.70
     Davidson diagonalization with overlap
     ethr =  1.17E-04,  avg # of iterations =  2.0

     negative rho (up, down):  6.163E-03 0.000E+00

     total cpu time spent up to now is      840.4 secs

     total energy              =    -786.93109689 Ry
     Harris-Foulkes estimate   =    -786.96145739 Ry
     estimated scf accuracy    <       0.13689177 Ry

     iteration #  8     ecut=    70.00 Ry     beta= 0.70
     Davidson diagonalization with overlap
     ethr =  6.46E-05,  avg # of iterations =  2.0

     negative rho (up, down):  6.859E-03 0.000E+00

     total cpu time spent up to now is      930.0 secs

     total energy              =    -786.93680514 Ry
     Harris-Foulkes estimate   =    -786.95026185 Ry
     estimated scf accuracy    <       0.08159948 Ry

     iteration #  9     ecut=    70.00 Ry     beta= 0.70
     Davidson diagonalization with overlap
     ethr =  3.85E-05,  avg # of iterations =  3.0

     negative rho (up, down):  6.839E-03 0.000E+00

     total cpu time spent up to now is     1021.2 secs

     total energy              =    -786.93954889 Ry
     Harris-Foulkes estimate   =    -786.94567462 Ry
     estimated scf accuracy    <       0.04950467 Ry

     iteration # 10     ecut=    70.00 Ry     beta= 0.70
     Davidson diagonalization with overlap
     ethr =  2.34E-05,  avg # of iterations =  3.0

     negative rho (up, down):  6.816E-03 0.000E+00

     total cpu time spent up to now is     1110.7 secs

     total energy              =    -786.94170631 Ry
     Harris-Foulkes estimate   =    -786.94942353 Ry
     estimated scf accuracy    <       0.07080983 Ry

     iteration # 11     ecut=    70.00 Ry     beta= 0.70
     Davidson diagonalization with overlap
     ethr =  2.34E-05,  avg # of iterations =  1.0

     negative rho (up, down):  6.781E-03 0.000E+00

     total cpu time spent up to now is     1200.8 secs

     total energy              =    -786.94322535 Ry
     Harris-Foulkes estimate   =    -786.94366049 Ry
     estimated scf accuracy    <       0.00270469 Ry

     iteration # 12     ecut=    70.00 Ry     beta= 0.70
     Davidson diagonalization with overlap
     ethr =  1.28E-06,  avg # of iterations = 12.0

     negative rho (up, down):  6.842E-03 0.000E+00

     total cpu time spent up to now is     1307.0 secs

     total energy              =    -786.94338097 Ry
     Harris-Foulkes estimate   =    -786.94362514 Ry
     estimated scf accuracy    <       0.00381693 Ry

     iteration # 13     ecut=    70.00 Ry     beta= 0.70
     Davidson diagonalization with overlap
     ethr =  1.28E-06,  avg # of iterations =  1.0

     negative rho (up, down):  6.840E-03 0.000E+00

     total cpu time spent up to now is     1397.3 secs

     total energy              =    -786.94349886 Ry
     Harris-Foulkes estimate   =    -786.94360133 Ry
     estimated scf accuracy    <       0.00195032 Ry

     iteration # 14     ecut=    70.00 Ry     beta= 0.70
     Davidson diagonalization with overlap
     ethr =  9.20E-07,  avg # of iterations =  1.0

     negative rho (up, down):  6.860E-03 0.000E+00

     total cpu time spent up to now is     1486.5 secs

     total energy              =    -786.94356564 Ry
     Harris-Foulkes estimate   =    -786.94356868 Ry
     estimated scf accuracy    <       0.00009562 Ry

     iteration # 15     ecut=    70.00 Ry     beta= 0.70
     Davidson diagonalization with overlap
     ethr =  4.51E-08,  avg # of iterations =  3.0

     negative rho (up, down):  6.878E-03 0.000E+00

     total cpu time spent up to now is     1582.0 secs

     total energy              =    -786.94358461 Ry
     Harris-Foulkes estimate   =    -786.94358239 Ry
     estimated scf accuracy    <       0.00006545 Ry

     iteration # 16     ecut=    70.00 Ry     beta= 0.70
     Davidson diagonalization with overlap
     ethr =  3.09E-08,  avg # of iterations =  3.0

     negative rho (up, down):  6.888E-03 0.000E+00

     total cpu time spent up to now is     1674.9 secs

     total energy              =    -786.94359860 Ry
     Harris-Foulkes estimate   =    -786.94359328 Ry
     estimated scf accuracy    <       0.00003020 Ry

     iteration # 17     ecut=    70.00 Ry     beta= 0.70
     Davidson diagonalization with overlap
     ethr =  1.42E-08,  avg # of iterations =  3.0

     negative rho (up, down):  6.894E-03 0.000E+00

     total cpu time spent up to now is     1770.6 secs

     total energy              =    -786.94360754 Ry
     Harris-Foulkes estimate   =    -786.94360503 Ry
     estimated scf accuracy    <       0.00002028 Ry

     iteration # 18     ecut=    70.00 Ry     beta= 0.70
     Davidson diagonalization with overlap
     ethr =  9.57E-09,  avg # of iterations =  3.0

     negative rho (up, down):  6.901E-03 0.000E+00

     total cpu time spent up to now is     1867.2 secs

     total energy              =    -786.94361328 Ry
     Harris-Foulkes estimate   =    -786.94361377 Ry
     estimated scf accuracy    <       0.00004250 Ry

     iteration # 19     ecut=    70.00 Ry     beta= 0.70
     Davidson diagonalization with overlap
     ethr =  9.57E-09,  avg # of iterations =  3.0

     negative rho (up, down):  6.908E-03 0.000E+00

     total cpu time spent up to now is     1959.2 secs

     total energy              =    -786.94361290 Ry
     Harris-Foulkes estimate   =    -786.94361697 Ry
     estimated scf accuracy    <       0.00003729 Ry

     iteration # 20     ecut=    70.00 Ry     beta= 0.70
     Davidson diagonalization with overlap
     ethr =  9.57E-09,  avg # of iterations =  4.0

     negative rho (up, down):  6.917E-03 0.000E+00

     total cpu time spent up to now is     2057.6 secs

     total energy              =    -786.94362249 Ry
     Harris-Foulkes estimate   =    -786.94362573 Ry
     estimated scf accuracy    <       0.00000900 Ry

     iteration # 21     ecut=    70.00 Ry     beta= 0.70
     Davidson diagonalization with overlap
     ethr =  4.25E-09,  avg # of iterations =  3.0

     negative rho (up, down):  6.928E-03 0.000E+00

     total cpu time spent up to now is     2158.0 secs

     total energy              =    -786.94362664 Ry
     Harris-Foulkes estimate   =    -786.94363014 Ry
     estimated scf accuracy    <       0.00000289 Ry

     iteration # 22     ecut=    70.00 Ry     beta= 0.70
     Davidson diagonalization with overlap
     ethr =  1.36E-09,  avg # of iterations =  4.0

     negative rho (up, down):  6.938E-03 0.000E+00

     total cpu time spent up to now is     2260.4 secs

     total energy              =    -786.94363057 Ry
     Harris-Foulkes estimate   =    -786.94363209 Ry
     estimated scf accuracy    <       0.00000435 Ry

     iteration # 23     ecut=    70.00 Ry     beta= 0.70
     Davidson diagonalization with overlap
     ethr =  1.36E-09,  avg # of iterations =  3.0

     negative rho (up, down):  6.945E-03 0.000E+00

     total cpu time spent up to now is     2357.7 secs

     total energy              =    -786.94363132 Ry
     Harris-Foulkes estimate   =    -786.94363214 Ry
     estimated scf accuracy    <       0.00000139 Ry

     iteration # 24     ecut=    70.00 Ry     beta= 0.70
     Davidson diagonalization with overlap
     ethr =  6.57E-10,  avg # of iterations =  3.0

     negative rho (up, down):  6.952E-03 0.000E+00

     total cpu time spent up to now is     2455.0 secs

     End of self-consistent calculation

          k = 0.0000 0.0000 0.0000 (131685 PWs)   bands (ev):

   -73.1389 -45.4312 -45.4306 -44.3192 -20.9333 -20.0947 -20.0942 -20.0021
   -20.0020 -20.0014 -19.6281 -18.2471 -18.2468 -18.2424 -18.1358 -18.1353
   -17.8349 -17.3936 -17.3934 -17.2938 -17.2121 -17.2117 -16.4977 -15.2553
   -15.2552 -15.2132 -15.1640 -15.1638 -14.4994 -14.2381 -14.2379 -14.2088
   -13.8831 -13.8828 -13.4453 -12.9976 -12.9975 -12.8335 -12.5269 -12.5267
   -11.5606 -10.7767 -10.7764 -10.6178 -10.4853 -10.4852 -10.3933 -10.3618
   -10.3618 -10.3505  -9.8346  -9.8346  -9.2901  -9.2899  -9.1920  -9.0893
    -9.0026  -8.5830  -8.5828  -8.3286  -8.3263  -8.2974  -8.2661  -8.0003
    -8.0002  -7.9884  -7.9880  -7.9628  -7.8937  -7.7312  -7.7309  -7.7031
    -7.6984  -7.6980  -7.6628  -7.6496  -6.6889  -6.6874  -6.6219  -6.6218
    -6.3573  -6.3570  -6.1555  -6.0617  -5.9078  -5.8845  -5.8840  -5.5605
    -5.5495  -5.3353  -5.3352  -5.0182  -5.0180  -4.9370  -4.8378  -4.8377
    -4.7688  -4.7688  -4.2973  -3.7309  -3.7302  -3.0184  -2.9753  -2.9750
    -2.0069  -1.8350  -1.8350  -1.7430  -0.2335  -0.2129  -0.2124   0.4847
     0.5713   0.5716   1.2421   1.6251   1.6265   1.6892   1.9416   1.9947
     2.1431   2.2266   2.3936   2.4884   2.4901   2.5006   2.5021

     the Fermi energy is    -1.8331 ev

!    total energy              =    -786.94363121 Ry
     Harris-Foulkes estimate   =    -786.94363212 Ry
     estimated scf accuracy    <       0.00000056 Ry

     The total energy is the sum of the following terms:

     one-electron contribution =   -4494.62971378 Ry
     hartree contribution      =    2282.85652949 Ry
     xc contribution           =    -254.33482166 Ry
     ewald contribution        =    1679.16503110 Ry
     smearing contrib. (-TS)   =      -0.00065636 Ry

     convergence has been achieved in  24 iterations

     Writing output data file cromo-top-distance-3.5.save/

     init_run     :     69.79s CPU     71.72s WALL (       1 calls)
     electrons    :   2315.07s CPU   2382.21s WALL (       1 calls)

     Called by init_run:
     wfcinit      :     33.76s CPU     33.97s WALL (       1 calls)
     potinit      :     16.60s CPU     17.34s WALL (       1 calls)
     hinit0       :     11.53s CPU     11.58s WALL (       1 calls)

     Called by electrons:
     c_bands      :   1395.31s CPU   1403.13s WALL (      24 calls)
     sum_band     :    460.65s CPU    483.65s WALL (      24 calls)
     v_of_rho     :    275.02s CPU    290.43s WALL (      25 calls)
     newd         :    187.55s CPU    209.73s WALL (      25 calls)
     mix_rho      :      8.87s CPU      9.01s WALL (      24 calls)

     Called by c_bands:
     init_us_2    :      3.55s CPU      3.61s WALL (      49 calls)
     cegterg      :   1384.98s CPU   1392.75s WALL (      24 calls)

     Called by sum_band:
     sum_band:bec :      0.02s CPU      0.02s WALL (      24 calls)
     addusdens    :    289.44s CPU    311.24s WALL (      24 calls)

     Called by *egterg:
     h_psi        :    741.63s CPU    747.20s WALL (     114 calls)
     s_psi        :    234.03s CPU    234.17s WALL (     114 calls)
     g_psi        :      0.86s CPU      0.87s WALL (      89 calls)
     cdiaghg      :      8.41s CPU      8.42s WALL (     113 calls)

     Called by h_psi:
     h_psi:pot    :    740.78s CPU    745.48s WALL (     114 calls)
     h_psi:calbec :    236.24s CPU    236.34s WALL (     114 calls)
     vloc_psi     :    271.05s CPU    275.58s WALL (     114 calls)
     add_vuspsi   :    233.49s CPU    233.56s WALL (     114 calls)

     General routines
     calbec       :    335.26s CPU    335.39s WALL (     138 calls)
     fft          :    151.01s CPU    156.65s WALL (    1573 calls)
     ffts         :      1.85s CPU      1.90s WALL (      49 calls)
     fftw         :    282.94s CPU    287.84s WALL (   17774 calls)
     interpolate  :      3.85s CPU      3.96s WALL (      25 calls)

     Parallel routines
     fft_scatt_xy :     89.38s CPU     89.75s WALL (   19396 calls)
     fft_scatt_yz :    129.06s CPU    137.32s WALL (   19396 calls)

     PWSCF        :  39m46.16s CPU  40m55.55s WALL


   This run was terminated on:  22:32:22  29Aug2022            

=------------------------------------------------------------------------------=
   JOB DONE.
=------------------------------------------------------------------------------=
