
     Program PWSCF v.6.4.1 starts on 19Jun2022 at  5:37:31 

     This program is part of the open-source Quantum ESPRESSO suite
     for quantum simulation of materials; please cite
         "P. Giannozzi et al., J. Phys.:Condens. Matter 21 395502 (2009);
         "P. Giannozzi et al., J. Phys.:Condens. Matter 29 465901 (2017);
          URL http://www.quantum-espresso.org", 
     in publications or presentations arising from this work. More details at
     http://www.quantum-espresso.org/quote

     Parallel version (MPI), running on     5 processors

     MPI processes distributed on     1 nodes
     R & G space division:  proc/nbgrp/npool/nimage =       5
     Reading input from distance-6.0.in

     Current dimensions of program PWSCF are:
     Max number of different atomic species (ntypx) = 10
     Max number of k-points (npk) =  40000
     Max angular momentum in pseudopotentials (lmaxx) =  3

     IMPORTANT: XC functional enforced from input :
     Exchange-correlation      = RVV10 ( 1  4 13  4 3 0)
     Any further DFT definition will be discarded
     Please, verify this is what you really want

               file H.pbe-rrkjus.UPF: wavefunction(s)  1S renormalized
               file H.pbe-rrkjus.UPF: wavefunction(s)  1S renormalized

     Subspace diagonalization in iterative solution of the eigenvalue problem:
     a serial algorithm will be used


     Parallelization info
     --------------------
     sticks:   dense  smooth     PW     G-vecs:    dense   smooth      PW
     Min        3662    2095    542               487826   210779   27834
     Max        3663    2096    543               487829   210784   27841
     Sum       18313   10477   2713              2439139  1053907  139193



     bravais-lattice index     =            4
     lattice parameter (alat)  =      23.2937  a.u.
     unit-cell volume          =   13319.7822 (a.u.)^3
     number of atoms/cell      =           52
     number of atomic types    =            3
     number of electrons       =       202.00
     number of Kohn-Sham states=          121
     kinetic-energy cutoff     =      70.0000  Ry
     charge density cutoff     =     490.0000  Ry
     convergence threshold     =      1.0E-06
     mixing beta               =       0.7000
     number of iterations used =            8  plain     mixing
     Exchange-correlation      = RVV10 ( 1  4 13  4 3 0)

     celldm(1)=  23.293684  celldm(2)=   0.000000  celldm(3)=   1.216892
     celldm(4)=   0.000000  celldm(5)=   0.000000  celldm(6)=   0.000000

     crystal axes: (cart. coord. in units of alat)
               a(1) = (   1.000000   0.000000   0.000000 )  
               a(2) = (  -0.500000   0.866025   0.000000 )  
               a(3) = (   0.000000   0.000000   1.216892 )  

     reciprocal axes: (cart. coord. in units 2 pi/alat)
               b(1) = (  1.000000  0.577350 -0.000000 )  
               b(2) = (  0.000000  1.154701  0.000000 )  
               b(3) = (  0.000000 -0.000000  0.821766 )  


     PseudoPot. # 1 for H  read from file:
     /home/cristian/Escritorio/Proyecto_Grafeno/pseudopotenciales/H.pbe-rrkjus.UPF
     MD5 check sum: 7cc9d459525c9a0585f487a71c3c9563
     Pseudo is Ultrasoft, Zval =  1.0
     Generated by new atomic code, or converted to UPF format
     Using radial grid of 1061 points,  2 beta functions with: 
                l(1) =   0
                l(2) =   0
     Q(r) pseudized with 0 coefficients 


     PseudoPot. # 2 for H  read from file:
     /home/cristian/Escritorio/Proyecto_Grafeno/pseudopotenciales/H.pbe-rrkjus.UPF
     MD5 check sum: 7cc9d459525c9a0585f487a71c3c9563
     Pseudo is Ultrasoft, Zval =  1.0
     Generated by new atomic code, or converted to UPF format
     Using radial grid of 1061 points,  2 beta functions with: 
                l(1) =   0
                l(2) =   0
     Q(r) pseudized with 0 coefficients 


     PseudoPot. # 3 for C  read from file:
     /home/cristian/Escritorio/Proyecto_Grafeno/pseudopotenciales/C.pbe-n-rrkjus_psl.1.0.0.UPF
     MD5 check sum: 1fdd950c42eb37d8afe3dd2f8d12311e
     Pseudo is Ultrasoft + core correction, Zval =  4.0
     Generated using "atomic" code by A. Dal Corso v.6.3MaX
     Using radial grid of 1073 points,  4 beta functions with: 
                l(1) =   0
                l(2) =   0
                l(3) =   1
                l(4) =   1
     Q(r) pseudized with 0 coefficients 


     vdW kernel table read from file rVV10_kernel_table
     MD5 check sum: b8e2538accc0c0b3206b45ba4daaba6c

     atomic species   valence    mass     pseudopotential
        H1             1.00     1.00794     H ( 1.00)
        H2             1.00     1.00794     H ( 1.00)
        C              4.00    12.01070     C ( 1.00)

      4 Sym. Ops. (no inversion) found ( 2 have fractional translation)



   Cartesian axes

     site n.     atom                  positions (alat units)
         1           H1  tau(   1) = (   0.3000000   0.4041452   0.4867567  )
         2           H2  tau(   2) = (   0.3000000   0.4041452   0.5477694  )
         3           C   tau(   3) = (   0.0000000   0.0000000   0.0000000  )
         4           C   tau(   4) = (   0.0000000   0.1154701   0.0000000  )
         5           C   tau(   5) = (  -0.1000000   0.1732051   0.0000000  )
         6           C   tau(   6) = (  -0.1000000   0.2886751   0.0000000  )
         7           C   tau(   7) = (  -0.2000000   0.3464102   0.0000000  )
         8           C   tau(   8) = (  -0.2000000   0.4618802   0.0000000  )
         9           C   tau(   9) = (  -0.3000000   0.5196152   0.0000000  )
        10           C   tau(  10) = (  -0.3000000   0.6350853   0.0000000  )
        11           C   tau(  11) = (  -0.4000000   0.6928203   0.0000000  )
        12           C   tau(  12) = (  -0.4000000   0.8082904   0.0000000  )
        13           C   tau(  13) = (   0.2000000   0.0000000   0.0000000  )
        14           C   tau(  14) = (   0.2000000   0.1154701   0.0000000  )
        15           C   tau(  15) = (   0.1000000   0.1732051   0.0000000  )
        16           C   tau(  16) = (   0.1000000   0.2886751   0.0000000  )
        17           C   tau(  17) = (   0.0000000   0.3464102   0.0000000  )
        18           C   tau(  18) = (   0.0000000   0.4618802   0.0000000  )
        19           C   tau(  19) = (  -0.1000000   0.5196152   0.0000000  )
        20           C   tau(  20) = (  -0.1000000   0.6350853   0.0000000  )
        21           C   tau(  21) = (  -0.2000000   0.6928203   0.0000000  )
        22           C   tau(  22) = (  -0.2000000   0.8082904   0.0000000  )
        23           C   tau(  23) = (   0.4000000   0.0000000   0.0000000  )
        24           C   tau(  24) = (   0.4000000   0.1154701   0.0000000  )
        25           C   tau(  25) = (   0.3000000   0.1732051   0.0000000  )
        26           C   tau(  26) = (   0.3000000   0.2886751   0.0000000  )
        27           C   tau(  27) = (   0.2000000   0.3464102   0.0000000  )
        28           C   tau(  28) = (   0.2000000   0.4618802   0.0000000  )
        29           C   tau(  29) = (   0.1000000   0.5196152   0.0000000  )
        30           C   tau(  30) = (   0.1000000   0.6350853   0.0000000  )
        31           C   tau(  31) = (   0.0000000   0.6928203   0.0000000  )
        32           C   tau(  32) = (   0.0000000   0.8082904   0.0000000  )
        33           C   tau(  33) = (   0.6000000   0.0000000   0.0000000  )
        34           C   tau(  34) = (   0.6000000   0.1154701   0.0000000  )
        35           C   tau(  35) = (   0.5000000   0.1732051   0.0000000  )
        36           C   tau(  36) = (   0.5000000   0.2886751   0.0000000  )
        37           C   tau(  37) = (   0.4000000   0.3464102   0.0000000  )
        38           C   tau(  38) = (   0.4000000   0.4618802   0.0000000  )
        39           C   tau(  39) = (   0.3000000   0.5196152   0.0000000  )
        40           C   tau(  40) = (   0.3000000   0.6350853   0.0000000  )
        41           C   tau(  41) = (   0.2000000   0.6928203   0.0000000  )
        42           C   tau(  42) = (   0.2000000   0.8082904   0.0000000  )
        43           C   tau(  43) = (   0.8000000   0.0000000   0.0000000  )
        44           C   tau(  44) = (   0.8000000   0.1154701   0.0000000  )
        45           C   tau(  45) = (   0.7000000   0.1732051   0.0000000  )
        46           C   tau(  46) = (   0.7000000   0.2886751   0.0000000  )
        47           C   tau(  47) = (   0.6000000   0.3464102   0.0000000  )
        48           C   tau(  48) = (   0.6000000   0.4618802   0.0000000  )
        49           C   tau(  49) = (   0.5000000   0.5196152   0.0000000  )
        50           C   tau(  50) = (   0.5000000   0.6350853   0.0000000  )
        51           C   tau(  51) = (   0.4000000   0.6928203   0.0000000  )
        52           C   tau(  52) = (   0.4000000   0.8082904   0.0000000  )

     number of k points=     3  Marzari-Vanderbilt smearing, width (Ry)=  0.0010
                       cart. coord. in units 2pi/alat
        k(    1) = (   0.0000000   0.0000000   0.0000000), wk =   0.5000000
        k(    2) = (   0.0000000  -0.5773503   0.0000000), wk =   1.0000000
        k(    3) = (   0.5000000  -0.2886751   0.0000000), wk =   0.5000000

     Dense  grid:  2439139 G-vectors     FFT dimensions: ( 180, 180, 200)

     Smooth grid:  1053907 G-vectors     FFT dimensions: ( 135, 135, 160)

     Estimated max dynamical RAM per process >       1.34 GB

     Estimated total dynamical RAM >       6.71 GB

     Check: negative core charge=   -0.000001

     Initial potential from superposition of free atoms

     starting charge  201.80551, renormalised to  202.00000

     negative rho (up, down):  6.811E-04 0.000E+00


---------------------------------------------------------------------------------
Carrying out rVV10 run using the following parameters:
Nqs =      20    Nr_points =    1024   r_max =   100.000
b_value =  6.30000    beta =  0.00901
     q_mesh =  0.00010000  0.00030000  0.00058939  0.00100810
               0.00161396  0.00249058  0.00375900  0.00559430
               0.00824984  0.01209221  0.01765183  0.02569619
               0.03733578  0.05417739  0.07854596  0.11380545
               0.16482331  0.23864234  0.34545298  0.50000000

Gradients computed in Reciprocal space

---------------------------------------------------------------------------------


     Starting wfcs are  202 randomized atomic wfcs

     total cpu time spent up to now is      133.1 secs

     Self-consistent Calculation

     iteration #  1     ecut=    70.00 Ry     beta= 0.70
     Davidson diagonalization with overlap
     ethr =  1.00E-02,  avg # of iterations =  2.0

     negative rho (up, down):  6.455E-04 0.000E+00

     total cpu time spent up to now is      356.8 secs

     total energy              =    -624.75518641 Ry
     Harris-Foulkes estimate   =    -628.30196695 Ry
     estimated scf accuracy    <       5.89258127 Ry

     iteration #  2     ecut=    70.00 Ry     beta= 0.70
     Davidson diagonalization with overlap
     ethr =  2.92E-03,  avg # of iterations =  7.0

     negative rho (up, down):  7.721E-04 0.000E+00

     total cpu time spent up to now is      559.5 secs

     total energy              =    -625.64629884 Ry
     Harris-Foulkes estimate   =    -625.67456833 Ry
     estimated scf accuracy    <       0.10823059 Ry

     iteration #  3     ecut=    70.00 Ry     beta= 0.70
     Davidson diagonalization with overlap
     c_bands:  2 eigenvalues not converged
     c_bands:  1 eigenvalues not converged
     ethr =  5.36E-05,  avg # of iterations = 16.7

     negative rho (up, down):  9.046E-04 0.000E+00

     total cpu time spent up to now is      773.4 secs

     total energy              =    -625.65449513 Ry
     Harris-Foulkes estimate   =    -625.65897964 Ry
     estimated scf accuracy    <       0.01173421 Ry

     iteration #  4     ecut=    70.00 Ry     beta= 0.70
     Davidson diagonalization with overlap
     ethr =  5.81E-06,  avg # of iterations =  8.3

     negative rho (up, down):  1.082E-03 0.000E+00

     total cpu time spent up to now is     1010.6 secs

     total energy              =    -625.65210792 Ry
     Harris-Foulkes estimate   =    -625.66538880 Ry
     estimated scf accuracy    <       0.03451617 Ry

     iteration #  5     ecut=    70.00 Ry     beta= 0.70
     Davidson diagonalization with overlap
     c_bands:  3 eigenvalues not converged
     ethr =  5.81E-06,  avg # of iterations =  9.3

     negative rho (up, down):  1.527E-03 0.000E+00

     total cpu time spent up to now is     1221.0 secs

     total energy              =    -625.65835473 Ry
     Harris-Foulkes estimate   =    -625.65852896 Ry
     estimated scf accuracy    <       0.00031972 Ry

     iteration #  6     ecut=    70.00 Ry     beta= 0.70
     Davidson diagonalization with overlap
     ethr =  1.58E-07,  avg # of iterations =  8.3

     negative rho (up, down):  1.595E-03 0.000E+00

     total cpu time spent up to now is     1429.8 secs

     total energy              =    -625.65841304 Ry
     Harris-Foulkes estimate   =    -625.65844602 Ry
     estimated scf accuracy    <       0.00004809 Ry

     iteration #  7     ecut=    70.00 Ry     beta= 0.70
     Davidson diagonalization with overlap
     ethr =  2.38E-08,  avg # of iterations =  2.0

     negative rho (up, down):  1.616E-03 0.000E+00

     total cpu time spent up to now is     1616.0 secs

     End of self-consistent calculation

          k = 0.0000 0.0000 0.0000 (131685 PWs)   bands (ev):

   -21.1895 -20.2529 -20.2528 -20.2527 -20.2527 -20.2526 -20.2526 -18.4175
   -18.4174 -18.4174 -18.4173 -18.4173 -18.4172 -17.5248 -17.5248 -17.5248
   -17.5247 -17.5246 -17.5246 -15.3802 -15.3801 -15.3801 -15.3800 -15.3800
   -15.3800 -14.3722 -14.3721 -14.3720 -14.3720 -14.3719 -14.3719 -13.0313
   -13.0313 -13.0313 -13.0313 -13.0312 -13.0312 -10.6708 -10.6708 -10.6708
   -10.6707 -10.6707 -10.6707 -10.5485 -10.5485 -10.5485 -10.5484 -10.5484
   -10.5484  -9.3222  -9.1758  -9.1758  -9.1757  -9.1757  -9.1757  -9.1756
    -8.2044  -8.2043  -8.2042  -8.2040  -8.2039  -8.2038  -7.9283  -7.9283
    -7.9283  -7.9283  -7.9282  -7.9282  -7.8803  -7.8763  -7.8762  -7.8761
    -7.8761  -7.8760  -7.8759  -6.2815  -6.2815  -6.2815  -6.2815  -6.2814
    -6.2814  -6.0729  -6.0729  -6.0728  -6.0728  -6.0728  -6.0727  -5.1749
    -5.1749  -5.1749  -5.1747  -5.1747  -5.1746  -4.8100  -4.8100  -3.1895
    -3.1895  -3.1894  -3.1894  -3.1893  -3.1893  -0.3943  -0.3943  -0.3943
    -0.3942  -0.3942  -0.3942   1.3048   1.4617   1.4617   1.4617   1.4619
     1.4620   1.4621   2.1538   2.5561   2.5571   2.5571   2.5966   2.5966
     2.5995

          k = 0.0000-0.5774 0.0000 (131762 PWs)   bands (ev):

   -20.9544 -20.9543 -20.4860 -20.4859 -19.5578 -19.5577 -19.5577 -19.5576
   -19.0979 -19.0979 -18.1915 -18.1915 -18.1914 -18.1914 -16.8744 -16.8742
   -16.8742 -16.8741 -16.4687 -16.4687 -16.4687 -16.4687 -15.9844 -15.2576
   -15.2574 -14.9172 -14.0525 -14.0524 -14.0524 -14.0524 -13.5812 -13.5812
   -12.6473 -12.6473 -12.6471 -12.6471 -11.8507 -11.8507 -11.6914 -11.6914
   -11.6913 -11.6912 -10.4721 -10.4721 -10.2433 -10.2432 -10.2432 -10.2431
    -9.2001  -9.2001  -9.2001  -9.2001  -9.0400  -9.0397  -8.8278  -8.8277
    -8.8277  -8.8277  -8.4804  -8.4804  -8.3529  -8.3529  -8.3528  -8.3527
    -8.1603  -7.8803  -7.4404  -7.4404  -7.4404  -7.4403  -7.3869  -7.3868
    -7.3868  -7.3868  -7.2631  -7.2630  -7.0560  -7.0558  -6.8613  -6.8613
    -6.2090  -6.2088  -5.8405  -5.8405  -5.8402  -5.8402  -5.7165  -5.7164
    -5.2766  -5.2764  -4.3992  -4.3990  -4.3989  -4.3989  -4.1952  -4.1952
    -4.1951  -4.1950  -4.0487  -2.7135  -2.7134  -0.6770  -0.6770  -0.0243
     0.3614   0.3614   0.3615   0.3616   1.0095   1.0097   1.0098   1.0098
     1.6180   1.6287   2.2565   2.2569   2.3889   2.5555   2.6283   2.6284
     2.6285

          k = 0.5000-0.2887 0.0000 (131762 PWs)   bands (ev):

   -20.9544 -20.9543 -20.4860 -20.4859 -19.5578 -19.5577 -19.5577 -19.5576
   -19.0979 -19.0979 -18.1915 -18.1914 -18.1914 -18.1914 -16.8743 -16.8743
   -16.8742 -16.8741 -16.4687 -16.4687 -16.4687 -16.4687 -15.9844 -15.2576
   -15.2574 -14.9172 -14.0525 -14.0525 -14.0524 -14.0524 -13.5812 -13.5812
   -12.6472 -12.6472 -12.6472 -12.6472 -11.8507 -11.8507 -11.6914 -11.6914
   -11.6913 -11.6912 -10.4721 -10.4721 -10.2432 -10.2432 -10.2432 -10.2431
    -9.2001  -9.2001  -9.2001  -9.2001  -9.0400  -9.0397  -8.8278  -8.8277
    -8.8277  -8.8277  -8.4805  -8.4804  -8.3529  -8.3529  -8.3528  -8.3527
    -8.1603  -7.8803  -7.4404  -7.4403  -7.4403  -7.4403  -7.3869  -7.3869
    -7.3868  -7.3867  -7.2631  -7.2630  -7.0559  -7.0559  -6.8613  -6.8612
    -6.2089  -6.2089  -5.8405  -5.8404  -5.8402  -5.8402  -5.7165  -5.7164
    -5.2766  -5.2765  -4.3991  -4.3991  -4.3990  -4.3988  -4.1952  -4.1952
    -4.1951  -4.1950  -4.0487  -2.7135  -2.7134  -0.6770  -0.6770  -0.0243
     0.3614   0.3614   0.3615   0.3616   1.0096   1.0096   1.0097   1.0099
     1.6180   1.6287   2.2565   2.2570   2.3889   2.5555   2.6283   2.6284
     2.6285

     the Fermi energy is    -1.8204 ev

!    total energy              =    -625.65842078 Ry
     Harris-Foulkes estimate   =    -625.65842376 Ry
     estimated scf accuracy    <       0.00000053 Ry

     The total energy is the sum of the following terms:

     one-electron contribution =   -3886.56991752 Ry
     hartree contribution      =    1980.20224696 Ry
     xc contribution           =    -235.29663433 Ry
     ewald contribution        =    1516.00588411 Ry
     smearing contrib. (-TS)   =       0.00000000 Ry

     convergence has been achieved in   7 iterations

     Writing output data file gr-12-sixhollow.save/

     init_run     :    131.25s CPU    132.57s WALL (       1 calls)
     electrons    :   1469.15s CPU   1483.03s WALL (       1 calls)

     Called by init_run:
     wfcinit      :     89.18s CPU     89.68s WALL (       1 calls)
     potinit      :     21.36s CPU     21.87s WALL (       1 calls)
     hinit0       :     15.26s CPU     15.28s WALL (       1 calls)

     Called by electrons:
     c_bands      :   1201.28s CPU   1207.48s WALL (       7 calls)
     sum_band     :    166.81s CPU    169.15s WALL (       7 calls)
     v_of_rho     :     76.62s CPU     80.78s WALL (       8 calls)
     newd         :     35.80s CPU     37.62s WALL (       8 calls)
     mix_rho      :      1.60s CPU      1.63s WALL (       7 calls)

     Called by c_bands:
     init_us_2    :      2.71s CPU      2.75s WALL (      45 calls)
     cegterg      :   1193.70s CPU   1199.87s WALL (      21 calls)

     Called by sum_band:
     sum_band:bec :      0.01s CPU      0.01s WALL (      21 calls)
     addusdens    :     46.03s CPU     47.74s WALL (       7 calls)

     Called by *egterg:
     h_psi        :    672.03s CPU    676.70s WALL (     185 calls)
     s_psi        :    195.11s CPU    195.18s WALL (     185 calls)
     g_psi        :      0.85s CPU      0.85s WALL (     161 calls)
     cdiaghg      :     16.56s CPU     16.56s WALL (     182 calls)

     Called by h_psi:
     h_psi:pot    :    671.25s CPU    675.19s WALL (     185 calls)
     h_psi:calbec :    199.99s CPU    200.06s WALL (     185 calls)
     vloc_psi     :    274.90s CPU    278.78s WALL (     185 calls)
     add_vuspsi   :    196.35s CPU    196.36s WALL (     185 calls)

     General routines
     calbec       :    265.10s CPU    265.17s WALL (     206 calls)
     fft          :     42.70s CPU     44.22s WALL (     502 calls)
     ffts         :      0.50s CPU      0.50s WALL (      15 calls)
     fftw         :    278.46s CPU    282.32s WALL (   18101 calls)
     interpolate  :      1.02s CPU      1.05s WALL (       8 calls)

     Parallel routines
     fft_scatt_xy :     70.52s CPU     70.77s WALL (   18618 calls)
     fft_scatt_yz :     96.84s CPU    100.85s WALL (   18618 calls)

     PWSCF        :  26m41.15s CPU  26m56.92s WALL


   This run was terminated on:   6: 4:28  19Jun2022            

=------------------------------------------------------------------------------=
   JOB DONE.
=------------------------------------------------------------------------------=
