
     Program PWSCF v.6.4.1 starts on 19Jun2022 at  7: 5:28 

     This program is part of the open-source Quantum ESPRESSO suite
     for quantum simulation of materials; please cite
         "P. Giannozzi et al., J. Phys.:Condens. Matter 21 395502 (2009);
         "P. Giannozzi et al., J. Phys.:Condens. Matter 29 465901 (2017);
          URL http://www.quantum-espresso.org", 
     in publications or presentations arising from this work. More details at
     http://www.quantum-espresso.org/quote

     Parallel version (MPI), running on     5 processors

     MPI processes distributed on     1 nodes
     R & G space division:  proc/nbgrp/npool/nimage =       5
     Reading input from distance-4.0.in

     Current dimensions of program PWSCF are:
     Max number of different atomic species (ntypx) = 10
     Max number of k-points (npk) =  40000
     Max angular momentum in pseudopotentials (lmaxx) =  3

     IMPORTANT: XC functional enforced from input :
     Exchange-correlation      = RVV10 ( 1  4 13  4 3 0)
     Any further DFT definition will be discarded
     Please, verify this is what you really want

               file H.pbe-rrkjus.UPF: wavefunction(s)  1S renormalized
               file H.pbe-rrkjus.UPF: wavefunction(s)  1S renormalized

     Subspace diagonalization in iterative solution of the eigenvalue problem:
     a serial algorithm will be used


     Parallelization info
     --------------------
     sticks:   dense  smooth     PW     G-vecs:    dense   smooth      PW
     Min        3662    2095    542               487826   210779   27834
     Max        3663    2096    543               487829   210784   27841
     Sum       18313   10477   2713              2439139  1053907  139193



     bravais-lattice index     =            4
     lattice parameter (alat)  =      23.2937  a.u.
     unit-cell volume          =   13319.7822 (a.u.)^3
     number of atoms/cell      =           52
     number of atomic types    =            3
     number of electrons       =       202.00
     number of Kohn-Sham states=          121
     kinetic-energy cutoff     =      70.0000  Ry
     charge density cutoff     =     490.0000  Ry
     convergence threshold     =      1.0E-06
     mixing beta               =       0.7000
     number of iterations used =            8  plain     mixing
     Exchange-correlation      = RVV10 ( 1  4 13  4 3 0)

     celldm(1)=  23.293684  celldm(2)=   0.000000  celldm(3)=   1.216892
     celldm(4)=   0.000000  celldm(5)=   0.000000  celldm(6)=   0.000000

     crystal axes: (cart. coord. in units of alat)
               a(1) = (   1.000000   0.000000   0.000000 )  
               a(2) = (  -0.500000   0.866025   0.000000 )  
               a(3) = (   0.000000   0.000000   1.216892 )  

     reciprocal axes: (cart. coord. in units 2 pi/alat)
               b(1) = (  1.000000  0.577350 -0.000000 )  
               b(2) = (  0.000000  1.154701  0.000000 )  
               b(3) = (  0.000000 -0.000000  0.821766 )  


     PseudoPot. # 1 for H  read from file:
     /home/cristian/Escritorio/Proyecto_Grafeno/pseudopotenciales/H.pbe-rrkjus.UPF
     MD5 check sum: 7cc9d459525c9a0585f487a71c3c9563
     Pseudo is Ultrasoft, Zval =  1.0
     Generated by new atomic code, or converted to UPF format
     Using radial grid of 1061 points,  2 beta functions with: 
                l(1) =   0
                l(2) =   0
     Q(r) pseudized with 0 coefficients 


     PseudoPot. # 2 for H  read from file:
     /home/cristian/Escritorio/Proyecto_Grafeno/pseudopotenciales/H.pbe-rrkjus.UPF
     MD5 check sum: 7cc9d459525c9a0585f487a71c3c9563
     Pseudo is Ultrasoft, Zval =  1.0
     Generated by new atomic code, or converted to UPF format
     Using radial grid of 1061 points,  2 beta functions with: 
                l(1) =   0
                l(2) =   0
     Q(r) pseudized with 0 coefficients 


     PseudoPot. # 3 for C  read from file:
     /home/cristian/Escritorio/Proyecto_Grafeno/pseudopotenciales/C.pbe-n-rrkjus_psl.1.0.0.UPF
     MD5 check sum: 1fdd950c42eb37d8afe3dd2f8d12311e
     Pseudo is Ultrasoft + core correction, Zval =  4.0
     Generated using "atomic" code by A. Dal Corso v.6.3MaX
     Using radial grid of 1073 points,  4 beta functions with: 
                l(1) =   0
                l(2) =   0
                l(3) =   1
                l(4) =   1
     Q(r) pseudized with 0 coefficients 


     vdW kernel table read from file rVV10_kernel_table
     MD5 check sum: b8e2538accc0c0b3206b45ba4daaba6c

     atomic species   valence    mass     pseudopotential
        H1             1.00     1.00794     H ( 1.00)
        H2             1.00     1.00794     H ( 1.00)
        C              4.00    12.01070     C ( 1.00)

      4 Sym. Ops. (no inversion) found ( 2 have fractional translation)



   Cartesian axes

     site n.     atom                  positions (alat units)
         1           H1  tau(   1) = (   0.3000000   0.4041452   0.3245045  )
         2           H2  tau(   2) = (   0.3000000   0.4041452   0.3855171  )
         3           C   tau(   3) = (   0.0000000   0.0000000   0.0000000  )
         4           C   tau(   4) = (   0.0000000   0.1154701   0.0000000  )
         5           C   tau(   5) = (  -0.1000000   0.1732051   0.0000000  )
         6           C   tau(   6) = (  -0.1000000   0.2886751   0.0000000  )
         7           C   tau(   7) = (  -0.2000000   0.3464102   0.0000000  )
         8           C   tau(   8) = (  -0.2000000   0.4618802   0.0000000  )
         9           C   tau(   9) = (  -0.3000000   0.5196152   0.0000000  )
        10           C   tau(  10) = (  -0.3000000   0.6350853   0.0000000  )
        11           C   tau(  11) = (  -0.4000000   0.6928203   0.0000000  )
        12           C   tau(  12) = (  -0.4000000   0.8082904   0.0000000  )
        13           C   tau(  13) = (   0.2000000   0.0000000   0.0000000  )
        14           C   tau(  14) = (   0.2000000   0.1154701   0.0000000  )
        15           C   tau(  15) = (   0.1000000   0.1732051   0.0000000  )
        16           C   tau(  16) = (   0.1000000   0.2886751   0.0000000  )
        17           C   tau(  17) = (   0.0000000   0.3464102   0.0000000  )
        18           C   tau(  18) = (   0.0000000   0.4618802   0.0000000  )
        19           C   tau(  19) = (  -0.1000000   0.5196152   0.0000000  )
        20           C   tau(  20) = (  -0.1000000   0.6350853   0.0000000  )
        21           C   tau(  21) = (  -0.2000000   0.6928203   0.0000000  )
        22           C   tau(  22) = (  -0.2000000   0.8082904   0.0000000  )
        23           C   tau(  23) = (   0.4000000   0.0000000   0.0000000  )
        24           C   tau(  24) = (   0.4000000   0.1154701   0.0000000  )
        25           C   tau(  25) = (   0.3000000   0.1732051   0.0000000  )
        26           C   tau(  26) = (   0.3000000   0.2886751   0.0000000  )
        27           C   tau(  27) = (   0.2000000   0.3464102   0.0000000  )
        28           C   tau(  28) = (   0.2000000   0.4618802   0.0000000  )
        29           C   tau(  29) = (   0.1000000   0.5196152   0.0000000  )
        30           C   tau(  30) = (   0.1000000   0.6350853   0.0000000  )
        31           C   tau(  31) = (   0.0000000   0.6928203   0.0000000  )
        32           C   tau(  32) = (   0.0000000   0.8082904   0.0000000  )
        33           C   tau(  33) = (   0.6000000   0.0000000   0.0000000  )
        34           C   tau(  34) = (   0.6000000   0.1154701   0.0000000  )
        35           C   tau(  35) = (   0.5000000   0.1732051   0.0000000  )
        36           C   tau(  36) = (   0.5000000   0.2886751   0.0000000  )
        37           C   tau(  37) = (   0.4000000   0.3464102   0.0000000  )
        38           C   tau(  38) = (   0.4000000   0.4618802   0.0000000  )
        39           C   tau(  39) = (   0.3000000   0.5196152   0.0000000  )
        40           C   tau(  40) = (   0.3000000   0.6350853   0.0000000  )
        41           C   tau(  41) = (   0.2000000   0.6928203   0.0000000  )
        42           C   tau(  42) = (   0.2000000   0.8082904   0.0000000  )
        43           C   tau(  43) = (   0.8000000   0.0000000   0.0000000  )
        44           C   tau(  44) = (   0.8000000   0.1154701   0.0000000  )
        45           C   tau(  45) = (   0.7000000   0.1732051   0.0000000  )
        46           C   tau(  46) = (   0.7000000   0.2886751   0.0000000  )
        47           C   tau(  47) = (   0.6000000   0.3464102   0.0000000  )
        48           C   tau(  48) = (   0.6000000   0.4618802   0.0000000  )
        49           C   tau(  49) = (   0.5000000   0.5196152   0.0000000  )
        50           C   tau(  50) = (   0.5000000   0.6350853   0.0000000  )
        51           C   tau(  51) = (   0.4000000   0.6928203   0.0000000  )
        52           C   tau(  52) = (   0.4000000   0.8082904   0.0000000  )

     number of k points=     3  Marzari-Vanderbilt smearing, width (Ry)=  0.0010
                       cart. coord. in units 2pi/alat
        k(    1) = (   0.0000000   0.0000000   0.0000000), wk =   0.5000000
        k(    2) = (   0.0000000  -0.5773503   0.0000000), wk =   1.0000000
        k(    3) = (   0.5000000  -0.2886751   0.0000000), wk =   0.5000000

     Dense  grid:  2439139 G-vectors     FFT dimensions: ( 180, 180, 200)

     Smooth grid:  1053907 G-vectors     FFT dimensions: ( 135, 135, 160)

     Estimated max dynamical RAM per process >       1.34 GB

     Estimated total dynamical RAM >       6.71 GB

     Check: negative core charge=   -0.000001

     Initial potential from superposition of free atoms

     starting charge  201.80551, renormalised to  202.00000

     negative rho (up, down):  8.692E-04 0.000E+00


---------------------------------------------------------------------------------
Carrying out rVV10 run using the following parameters:
Nqs =      20    Nr_points =    1024   r_max =   100.000
b_value =  6.30000    beta =  0.00901
     q_mesh =  0.00010000  0.00030000  0.00058939  0.00100810
               0.00161396  0.00249058  0.00375900  0.00559430
               0.00824984  0.01209221  0.01765183  0.02569619
               0.03733578  0.05417739  0.07854596  0.11380545
               0.16482331  0.23864234  0.34545298  0.50000000

Gradients computed in Reciprocal space

---------------------------------------------------------------------------------


     Starting wfcs are  202 randomized atomic wfcs

     total cpu time spent up to now is      135.8 secs

     Self-consistent Calculation

     iteration #  1     ecut=    70.00 Ry     beta= 0.70
     Davidson diagonalization with overlap
     ethr =  1.00E-02,  avg # of iterations =  2.0

     negative rho (up, down):  8.981E-04 0.000E+00

     total cpu time spent up to now is      358.8 secs

     total energy              =    -624.76127384 Ry
     Harris-Foulkes estimate   =    -628.28239020 Ry
     estimated scf accuracy    <       5.86310643 Ry

     iteration #  2     ecut=    70.00 Ry     beta= 0.70
     Davidson diagonalization with overlap
     ethr =  2.90E-03,  avg # of iterations =  7.3

     negative rho (up, down):  1.076E-03 0.000E+00

     total cpu time spent up to now is      560.5 secs

     total energy              =    -625.63673808 Ry
     Harris-Foulkes estimate   =    -625.67970916 Ry
     estimated scf accuracy    <       0.12447781 Ry

     iteration #  3     ecut=    70.00 Ry     beta= 0.70
     Davidson diagonalization with overlap
     ethr =  6.16E-05,  avg # of iterations = 11.7

     negative rho (up, down):  1.135E-03 0.000E+00

     total cpu time spent up to now is      780.3 secs

     total energy              =    -625.62837934 Ry
     Harris-Foulkes estimate   =    -625.67424300 Ry
     estimated scf accuracy    <       0.07958792 Ry

     iteration #  4     ecut=    70.00 Ry     beta= 0.70
     Davidson diagonalization with overlap
     ethr =  3.94E-05,  avg # of iterations =  5.7

     negative rho (up, down):  1.342E-03 0.000E+00

     total cpu time spent up to now is      980.6 secs

     total energy              =    -625.64824202 Ry
     Harris-Foulkes estimate   =    -625.67271052 Ry
     estimated scf accuracy    <       0.06759708 Ry

     iteration #  5     ecut=    70.00 Ry     beta= 0.70
     Davidson diagonalization with overlap
     ethr =  3.35E-05,  avg # of iterations =  8.0

     negative rho (up, down):  1.544E-03 0.000E+00

     total cpu time spent up to now is     1163.4 secs

     total energy              =    -625.65933230 Ry
     Harris-Foulkes estimate   =    -625.65976819 Ry
     estimated scf accuracy    <       0.00074805 Ry

     iteration #  6     ecut=    70.00 Ry     beta= 0.70
     Davidson diagonalization with overlap
     ethr =  3.70E-07,  avg # of iterations = 12.3

     negative rho (up, down):  1.742E-03 0.000E+00

     total cpu time spent up to now is     1392.2 secs

     total energy              =    -625.65958543 Ry
     Harris-Foulkes estimate   =    -625.65967634 Ry
     estimated scf accuracy    <       0.00014063 Ry

     iteration #  7     ecut=    70.00 Ry     beta= 0.70
     Davidson diagonalization with overlap
     ethr =  6.96E-08,  avg # of iterations =  3.0

     negative rho (up, down):  1.759E-03 0.000E+00

     total cpu time spent up to now is     1582.0 secs

     total energy              =    -625.65961336 Ry
     Harris-Foulkes estimate   =    -625.65962379 Ry
     estimated scf accuracy    <       0.00001758 Ry

     iteration #  8     ecut=    70.00 Ry     beta= 0.70
     Davidson diagonalization with overlap
     ethr =  8.70E-09,  avg # of iterations =  2.7

     negative rho (up, down):  1.768E-03 0.000E+00

     total cpu time spent up to now is     1765.3 secs

     End of self-consistent calculation

          k = 0.0000 0.0000 0.0000 (131685 PWs)   bands (ev):

   -21.1895 -20.2545 -20.2529 -20.2529 -20.2521 -20.2521 -20.2520 -18.4179
   -18.4176 -18.4176 -18.4171 -18.4171 -18.4168 -17.5250 -17.5250 -17.5249
   -17.5246 -17.5244 -17.5244 -15.3806 -15.3806 -15.3801 -15.3801 -15.3798
   -15.3793 -14.3724 -14.3722 -14.3722 -14.3718 -14.3718 -14.3718 -13.0315
   -13.0315 -13.0314 -13.0311 -13.0311 -13.0311 -10.6710 -10.6710 -10.6708
   -10.6707 -10.6707 -10.6704 -10.5491 -10.5488 -10.5484 -10.5484 -10.5481
   -10.5481  -9.3224  -9.1759  -9.1758  -9.1757  -9.1757  -9.1756  -9.1756
    -8.2105  -8.2042  -8.2042  -8.2032  -8.2032  -8.2032  -7.9289  -7.9288
    -7.9288  -7.9278  -7.9278  -7.9277  -7.8897  -7.8765  -7.8765  -7.8763
    -7.8759  -7.8759  -7.8756  -6.2819  -6.2819  -6.2816  -6.2814  -6.2814
    -6.2810  -6.0735  -6.0733  -6.0733  -6.0725  -6.0725  -6.0720  -5.1755
    -5.1755  -5.1749  -5.1747  -5.1742  -5.1742  -4.8100  -4.8100  -3.1902
    -3.1902  -3.1893  -3.1893  -3.1890  -3.1884  -0.3948  -0.3948  -0.3944
    -0.3942  -0.3942  -0.3934   1.3121   1.4605   1.4613   1.4613   1.4622
     1.4624   1.4624   2.2360   2.3896   2.5110   2.5111   2.5960   2.5960
     2.6003

          k = 0.0000-0.5774 0.0000 (131762 PWs)   bands (ev):

   -20.9549 -20.9538 -20.4862 -20.4857 -19.5581 -19.5578 -19.5576 -19.5573
   -19.0979 -19.0979 -18.1920 -18.1920 -18.1910 -18.1908 -16.8747 -16.8743
   -16.8741 -16.8739 -16.4689 -16.4689 -16.4685 -16.4684 -15.9844 -15.2575
   -15.2575 -14.9172 -14.0528 -14.0526 -14.0523 -14.0521 -13.5812 -13.5812
   -12.6476 -12.6473 -12.6471 -12.6468 -11.8507 -11.8507 -11.6916 -11.6915
   -11.6911 -11.6911 -10.4721 -10.4721 -10.2439 -10.2435 -10.2428 -10.2426
    -9.2002  -9.2001  -9.2001  -9.2001  -9.0411  -9.0391  -8.8282  -8.8282
    -8.8274  -8.8273  -8.4816  -8.4800  -8.3533  -8.3529  -8.3528  -8.3524
    -8.1603  -7.8934  -7.4405  -7.4405  -7.4403  -7.4403  -7.3870  -7.3867
    -7.3866  -7.3863  -7.2632  -7.2630  -7.0561  -7.0558  -6.8613  -6.8611
    -6.2091  -6.2088  -5.8413  -5.8409  -5.8398  -5.8395  -5.7169  -5.7161
    -5.2770  -5.2761  -4.3999  -4.3989  -4.3988  -4.3984  -4.1958  -4.1956
    -4.1946  -4.1945  -4.0487  -2.7135  -2.7134  -0.6771  -0.6770  -0.0244
     0.3604   0.3610   0.3620   0.3621   1.0088   1.0096   1.0099   1.0103
     1.6215   1.6264   2.2334   2.2460   2.5105   2.6276   2.6278   2.6280
     2.6289

          k = 0.5000-0.2887 0.0000 (131762 PWs)   bands (ev):

   -20.9549 -20.9538 -20.4862 -20.4857 -19.5581 -19.5578 -19.5576 -19.5573
   -19.0979 -19.0979 -18.1920 -18.1920 -18.1910 -18.1908 -16.8747 -16.8743
   -16.8741 -16.8739 -16.4689 -16.4689 -16.4685 -16.4684 -15.9844 -15.2575
   -15.2575 -14.9172 -14.0528 -14.0526 -14.0523 -14.0521 -13.5812 -13.5812
   -12.6476 -12.6473 -12.6472 -12.6468 -11.8507 -11.8507 -11.6916 -11.6915
   -11.6911 -11.6911 -10.4721 -10.4721 -10.2439 -10.2435 -10.2428 -10.2426
    -9.2002  -9.2001  -9.2001  -9.2001  -9.0411  -9.0391  -8.8282  -8.8282
    -8.8274  -8.8273  -8.4816  -8.4800  -8.3533  -8.3529  -8.3528  -8.3524
    -8.1603  -7.8934  -7.4405  -7.4405  -7.4403  -7.4403  -7.3870  -7.3867
    -7.3866  -7.3863  -7.2632  -7.2630  -7.0561  -7.0558  -6.8613  -6.8611
    -6.2091  -6.2088  -5.8413  -5.8409  -5.8398  -5.8395  -5.7169  -5.7161
    -5.2770  -5.2761  -4.3999  -4.3989  -4.3988  -4.3984  -4.1958  -4.1956
    -4.1946  -4.1945  -4.0487  -2.7135  -2.7134  -0.6771  -0.6770  -0.0244
     0.3604   0.3610   0.3620   0.3621   1.0088   1.0096   1.0099   1.0103
     1.6215   1.6264   2.2334   2.2460   2.5105   2.6276   2.6278   2.6280
     2.6289

     the Fermi energy is    -1.8200 ev

!    total energy              =    -625.65961596 Ry
     Harris-Foulkes estimate   =    -625.65961713 Ry
     estimated scf accuracy    <       0.00000035 Ry

     The total energy is the sum of the following terms:

     one-electron contribution =   -3909.46832870 Ry
     hartree contribution      =    1991.64985268 Ry
     xc contribution           =    -235.29620115 Ry
     ewald contribution        =    1527.45506121 Ry
     smearing contrib. (-TS)   =       0.00000000 Ry

     convergence has been achieved in   8 iterations

     Writing output data file gr-12-sixhollow.save/

     init_run     :    133.60s CPU    135.27s WALL (       1 calls)
     electrons    :   1614.47s CPU   1629.65s WALL (       1 calls)

     Called by init_run:
     wfcinit      :     88.78s CPU     89.40s WALL (       1 calls)
     potinit      :     22.10s CPU     22.81s WALL (       1 calls)
     hinit0       :     17.22s CPU     17.28s WALL (       1 calls)

     Called by electrons:
     c_bands      :   1305.50s CPU   1312.11s WALL (       8 calls)
     sum_band     :    192.99s CPU    195.64s WALL (       8 calls)
     v_of_rho     :     84.44s CPU     89.01s WALL (       9 calls)
     newd         :     41.77s CPU     43.86s WALL (       9 calls)
     mix_rho      :      1.87s CPU      1.91s WALL (       8 calls)

     Called by c_bands:
     init_us_2    :      3.14s CPU      3.17s WALL (      51 calls)
     cegterg      :   1297.58s CPU   1304.16s WALL (      24 calls)

     Called by sum_band:
     sum_band:bec :      0.02s CPU      0.02s WALL (      24 calls)
     addusdens    :     57.60s CPU     59.48s WALL (       8 calls)

     Called by *egterg:
     h_psi        :    730.96s CPU    736.00s WALL (     185 calls)
     s_psi        :    215.45s CPU    215.45s WALL (     185 calls)
     g_psi        :      0.91s CPU      0.91s WALL (     158 calls)
     cdiaghg      :     15.01s CPU     15.01s WALL (     182 calls)

     Called by h_psi:
     h_psi:pot    :    730.11s CPU    734.31s WALL (     185 calls)
     h_psi:calbec :    217.69s CPU    217.70s WALL (     185 calls)
     vloc_psi     :    296.80s CPU    301.01s WALL (     185 calls)
     add_vuspsi   :    215.62s CPU    215.60s WALL (     185 calls)

     General routines
     calbec       :    291.76s CPU    291.77s WALL (     209 calls)
     fft          :     46.50s CPU     48.11s WALL (     565 calls)
     ffts         :      0.52s CPU      0.52s WALL (      17 calls)
     fftw         :    296.87s CPU    301.02s WALL (   19926 calls)
     interpolate  :      1.17s CPU      1.19s WALL (       9 calls)

     Parallel routines
     fft_scatt_xy :     78.45s CPU     78.73s WALL (   20508 calls)
     fft_scatt_yz :     89.43s CPU     93.67s WALL (   20508 calls)

     PWSCF        :  29m 8.94s CPU  29m26.40s WALL


   This run was terminated on:   7:34:54  19Jun2022            

=------------------------------------------------------------------------------=
   JOB DONE.
=------------------------------------------------------------------------------=
