
     Program PWSCF v.6.4.1 starts on 19Jun2022 at 11:19:58 

     This program is part of the open-source Quantum ESPRESSO suite
     for quantum simulation of materials; please cite
         "P. Giannozzi et al., J. Phys.:Condens. Matter 21 395502 (2009);
         "P. Giannozzi et al., J. Phys.:Condens. Matter 29 465901 (2017);
          URL http://www.quantum-espresso.org", 
     in publications or presentations arising from this work. More details at
     http://www.quantum-espresso.org/quote

     Parallel version (MPI), running on     5 processors

     MPI processes distributed on     1 nodes
     R & G space division:  proc/nbgrp/npool/nimage =       5
     Reading input from distance-2.0.in

     Current dimensions of program PWSCF are:
     Max number of different atomic species (ntypx) = 10
     Max number of k-points (npk) =  40000
     Max angular momentum in pseudopotentials (lmaxx) =  3

     IMPORTANT: XC functional enforced from input :
     Exchange-correlation      = RVV10 ( 1  4 13  4 3 0)
     Any further DFT definition will be discarded
     Please, verify this is what you really want

               file H.pbe-rrkjus.UPF: wavefunction(s)  1S renormalized
               file H.pbe-rrkjus.UPF: wavefunction(s)  1S renormalized

     Subspace diagonalization in iterative solution of the eigenvalue problem:
     a serial algorithm will be used


     Parallelization info
     --------------------
     sticks:   dense  smooth     PW     G-vecs:    dense   smooth      PW
     Min        3662    2095    542               487826   210779   27834
     Max        3663    2096    543               487829   210784   27841
     Sum       18313   10477   2713              2439139  1053907  139193



     bravais-lattice index     =            4
     lattice parameter (alat)  =      23.2937  a.u.
     unit-cell volume          =   13319.7822 (a.u.)^3
     number of atoms/cell      =           52
     number of atomic types    =            3
     number of electrons       =       202.00
     number of Kohn-Sham states=          121
     kinetic-energy cutoff     =      70.0000  Ry
     charge density cutoff     =     490.0000  Ry
     convergence threshold     =      1.0E-06
     mixing beta               =       0.7000
     number of iterations used =            8  plain     mixing
     Exchange-correlation      = RVV10 ( 1  4 13  4 3 0)

     celldm(1)=  23.293684  celldm(2)=   0.000000  celldm(3)=   1.216892
     celldm(4)=   0.000000  celldm(5)=   0.000000  celldm(6)=   0.000000

     crystal axes: (cart. coord. in units of alat)
               a(1) = (   1.000000   0.000000   0.000000 )  
               a(2) = (  -0.500000   0.866025   0.000000 )  
               a(3) = (   0.000000   0.000000   1.216892 )  

     reciprocal axes: (cart. coord. in units 2 pi/alat)
               b(1) = (  1.000000  0.577350 -0.000000 )  
               b(2) = (  0.000000  1.154701  0.000000 )  
               b(3) = (  0.000000 -0.000000  0.821766 )  


     PseudoPot. # 1 for H  read from file:
     /home/cristian/Escritorio/Proyecto_Grafeno/pseudopotenciales/H.pbe-rrkjus.UPF
     MD5 check sum: 7cc9d459525c9a0585f487a71c3c9563
     Pseudo is Ultrasoft, Zval =  1.0
     Generated by new atomic code, or converted to UPF format
     Using radial grid of 1061 points,  2 beta functions with: 
                l(1) =   0
                l(2) =   0
     Q(r) pseudized with 0 coefficients 


     PseudoPot. # 2 for H  read from file:
     /home/cristian/Escritorio/Proyecto_Grafeno/pseudopotenciales/H.pbe-rrkjus.UPF
     MD5 check sum: 7cc9d459525c9a0585f487a71c3c9563
     Pseudo is Ultrasoft, Zval =  1.0
     Generated by new atomic code, or converted to UPF format
     Using radial grid of 1061 points,  2 beta functions with: 
                l(1) =   0
                l(2) =   0
     Q(r) pseudized with 0 coefficients 


     PseudoPot. # 3 for C  read from file:
     /home/cristian/Escritorio/Proyecto_Grafeno/pseudopotenciales/C.pbe-n-rrkjus_psl.1.0.0.UPF
     MD5 check sum: 1fdd950c42eb37d8afe3dd2f8d12311e
     Pseudo is Ultrasoft + core correction, Zval =  4.0
     Generated using "atomic" code by A. Dal Corso v.6.3MaX
     Using radial grid of 1073 points,  4 beta functions with: 
                l(1) =   0
                l(2) =   0
                l(3) =   1
                l(4) =   1
     Q(r) pseudized with 0 coefficients 


     vdW kernel table read from file rVV10_kernel_table
     MD5 check sum: b8e2538accc0c0b3206b45ba4daaba6c

     atomic species   valence    mass     pseudopotential
        H1             1.00     1.00794     H ( 1.00)
        H2             1.00     1.00794     H ( 1.00)
        C              4.00    12.01070     C ( 1.00)

      4 Sym. Ops. (no inversion) found ( 2 have fractional translation)



   Cartesian axes

     site n.     atom                  positions (alat units)
         1           H1  tau(   1) = (   0.3000000   0.4041452   0.1622522  )
         2           H2  tau(   2) = (   0.3000000   0.4041452   0.2232649  )
         3           C   tau(   3) = (   0.0000000   0.0000000   0.0000000  )
         4           C   tau(   4) = (   0.0000000   0.1154701   0.0000000  )
         5           C   tau(   5) = (  -0.1000000   0.1732051   0.0000000  )
         6           C   tau(   6) = (  -0.1000000   0.2886751   0.0000000  )
         7           C   tau(   7) = (  -0.2000000   0.3464102   0.0000000  )
         8           C   tau(   8) = (  -0.2000000   0.4618802   0.0000000  )
         9           C   tau(   9) = (  -0.3000000   0.5196152   0.0000000  )
        10           C   tau(  10) = (  -0.3000000   0.6350853   0.0000000  )
        11           C   tau(  11) = (  -0.4000000   0.6928203   0.0000000  )
        12           C   tau(  12) = (  -0.4000000   0.8082904   0.0000000  )
        13           C   tau(  13) = (   0.2000000   0.0000000   0.0000000  )
        14           C   tau(  14) = (   0.2000000   0.1154701   0.0000000  )
        15           C   tau(  15) = (   0.1000000   0.1732051   0.0000000  )
        16           C   tau(  16) = (   0.1000000   0.2886751   0.0000000  )
        17           C   tau(  17) = (   0.0000000   0.3464102   0.0000000  )
        18           C   tau(  18) = (   0.0000000   0.4618802   0.0000000  )
        19           C   tau(  19) = (  -0.1000000   0.5196152   0.0000000  )
        20           C   tau(  20) = (  -0.1000000   0.6350853   0.0000000  )
        21           C   tau(  21) = (  -0.2000000   0.6928203   0.0000000  )
        22           C   tau(  22) = (  -0.2000000   0.8082904   0.0000000  )
        23           C   tau(  23) = (   0.4000000   0.0000000   0.0000000  )
        24           C   tau(  24) = (   0.4000000   0.1154701   0.0000000  )
        25           C   tau(  25) = (   0.3000000   0.1732051   0.0000000  )
        26           C   tau(  26) = (   0.3000000   0.2886751   0.0000000  )
        27           C   tau(  27) = (   0.2000000   0.3464102   0.0000000  )
        28           C   tau(  28) = (   0.2000000   0.4618802   0.0000000  )
        29           C   tau(  29) = (   0.1000000   0.5196152   0.0000000  )
        30           C   tau(  30) = (   0.1000000   0.6350853   0.0000000  )
        31           C   tau(  31) = (   0.0000000   0.6928203   0.0000000  )
        32           C   tau(  32) = (   0.0000000   0.8082904   0.0000000  )
        33           C   tau(  33) = (   0.6000000   0.0000000   0.0000000  )
        34           C   tau(  34) = (   0.6000000   0.1154701   0.0000000  )
        35           C   tau(  35) = (   0.5000000   0.1732051   0.0000000  )
        36           C   tau(  36) = (   0.5000000   0.2886751   0.0000000  )
        37           C   tau(  37) = (   0.4000000   0.3464102   0.0000000  )
        38           C   tau(  38) = (   0.4000000   0.4618802   0.0000000  )
        39           C   tau(  39) = (   0.3000000   0.5196152   0.0000000  )
        40           C   tau(  40) = (   0.3000000   0.6350853   0.0000000  )
        41           C   tau(  41) = (   0.2000000   0.6928203   0.0000000  )
        42           C   tau(  42) = (   0.2000000   0.8082904   0.0000000  )
        43           C   tau(  43) = (   0.8000000   0.0000000   0.0000000  )
        44           C   tau(  44) = (   0.8000000   0.1154701   0.0000000  )
        45           C   tau(  45) = (   0.7000000   0.1732051   0.0000000  )
        46           C   tau(  46) = (   0.7000000   0.2886751   0.0000000  )
        47           C   tau(  47) = (   0.6000000   0.3464102   0.0000000  )
        48           C   tau(  48) = (   0.6000000   0.4618802   0.0000000  )
        49           C   tau(  49) = (   0.5000000   0.5196152   0.0000000  )
        50           C   tau(  50) = (   0.5000000   0.6350853   0.0000000  )
        51           C   tau(  51) = (   0.4000000   0.6928203   0.0000000  )
        52           C   tau(  52) = (   0.4000000   0.8082904   0.0000000  )

     number of k points=     3  Marzari-Vanderbilt smearing, width (Ry)=  0.0010
                       cart. coord. in units 2pi/alat
        k(    1) = (   0.0000000   0.0000000   0.0000000), wk =   0.5000000
        k(    2) = (   0.0000000  -0.5773503   0.0000000), wk =   1.0000000
        k(    3) = (   0.5000000  -0.2886751   0.0000000), wk =   0.5000000

     Dense  grid:  2439139 G-vectors     FFT dimensions: ( 180, 180, 200)

     Smooth grid:  1053907 G-vectors     FFT dimensions: ( 135, 135, 160)

     Estimated max dynamical RAM per process >       1.34 GB

     Estimated total dynamical RAM >       6.71 GB

     Check: negative core charge=   -0.000001

     Initial potential from superposition of free atoms

     starting charge  201.80551, renormalised to  202.00000

     negative rho (up, down):  1.083E-03 0.000E+00


---------------------------------------------------------------------------------
Carrying out rVV10 run using the following parameters:
Nqs =      20    Nr_points =    1024   r_max =   100.000
b_value =  6.30000    beta =  0.00901
     q_mesh =  0.00010000  0.00030000  0.00058939  0.00100810
               0.00161396  0.00249058  0.00375900  0.00559430
               0.00824984  0.01209221  0.01765183  0.02569619
               0.03733578  0.05417739  0.07854596  0.11380545
               0.16482331  0.23864234  0.34545298  0.50000000

Gradients computed in Reciprocal space

---------------------------------------------------------------------------------


     Starting wfcs are  202 randomized atomic wfcs

     total cpu time spent up to now is      135.5 secs

     Self-consistent Calculation

     iteration #  1     ecut=    70.00 Ry     beta= 0.70
     Davidson diagonalization with overlap
     ethr =  1.00E-02,  avg # of iterations =  2.0

     negative rho (up, down):  1.199E-03 0.000E+00

     total cpu time spent up to now is      358.4 secs

     total energy              =    -624.58468953 Ry
     Harris-Foulkes estimate   =    -628.30008568 Ry
     estimated scf accuracy    <       6.07672806 Ry

     iteration #  2     ecut=    70.00 Ry     beta= 0.70
     Davidson diagonalization with overlap
     ethr =  3.01E-03,  avg # of iterations =  7.7

     negative rho (up, down):  1.377E-03 0.000E+00

     total cpu time spent up to now is      572.2 secs

     total energy              =    -625.03700653 Ry
     Harris-Foulkes estimate   =    -625.89022995 Ry
     estimated scf accuracy    <       1.19249258 Ry

     iteration #  3     ecut=    70.00 Ry     beta= 0.70
     Davidson diagonalization with overlap
     ethr =  5.90E-04,  avg # of iterations = 11.7

     negative rho (up, down):  1.456E-03 0.000E+00

     total cpu time spent up to now is      822.4 secs

     total energy              =    -625.10159495 Ry
     Harris-Foulkes estimate   =    -626.21583325 Ry
     estimated scf accuracy    <       3.08299318 Ry

     iteration #  4     ecut=    70.00 Ry     beta= 0.70
     Davidson diagonalization with overlap
     ethr =  5.90E-04,  avg # of iterations =  4.0

     negative rho (up, down):  1.529E-03 0.000E+00

     total cpu time spent up to now is     1010.2 secs

     total energy              =    -625.63987698 Ry
     Harris-Foulkes estimate   =    -625.65878762 Ry
     estimated scf accuracy    <       0.04020929 Ry

     iteration #  5     ecut=    70.00 Ry     beta= 0.70
     Davidson diagonalization with overlap
     ethr =  1.99E-05,  avg # of iterations =  8.7

     negative rho (up, down):  1.703E-03 0.000E+00

     total cpu time spent up to now is     1230.4 secs

     total energy              =    -625.65009069 Ry
     Harris-Foulkes estimate   =    -625.65481180 Ry
     estimated scf accuracy    <       0.01071040 Ry

     iteration #  6     ecut=    70.00 Ry     beta= 0.70
     Davidson diagonalization with overlap
     ethr =  5.30E-06,  avg # of iterations =  4.0

     negative rho (up, down):  1.870E-03 0.000E+00

     total cpu time spent up to now is     1426.3 secs

     total energy              =    -625.65220536 Ry
     Harris-Foulkes estimate   =    -625.65256130 Ry
     estimated scf accuracy    <       0.00065482 Ry

     iteration #  7     ecut=    70.00 Ry     beta= 0.70
     Davidson diagonalization with overlap
     ethr =  3.24E-07,  avg # of iterations =  7.0

     negative rho (up, down):  1.922E-03 0.000E+00

     total cpu time spent up to now is     1627.7 secs

     total energy              =    -625.65236704 Ry
     Harris-Foulkes estimate   =    -625.65240190 Ry
     estimated scf accuracy    <       0.00005438 Ry

     iteration #  8     ecut=    70.00 Ry     beta= 0.70
     Davidson diagonalization with overlap
     ethr =  2.69E-08,  avg # of iterations =  2.0

     negative rho (up, down):  1.932E-03 0.000E+00

     total cpu time spent up to now is     1818.0 secs

     total energy              =    -625.65238070 Ry
     Harris-Foulkes estimate   =    -625.65238440 Ry
     estimated scf accuracy    <       0.00000467 Ry

     iteration #  9     ecut=    70.00 Ry     beta= 0.70
     Davidson diagonalization with overlap
     ethr =  2.31E-09,  avg # of iterations =  2.3

     negative rho (up, down):  1.933E-03 0.000E+00

     total cpu time spent up to now is     2012.2 secs

     End of self-consistent calculation

          k = 0.0000 0.0000 0.0000 (131685 PWs)   bands (ev):

   -21.2054 -20.2830 -20.2663 -20.2662 -20.2653 -20.2652 -20.2646 -18.4416
   -18.4327 -18.4327 -18.4301 -18.4301 -18.4298 -17.5467 -17.5410 -17.5410
   -17.5373 -17.5373 -17.5368 -15.3986 -15.3986 -15.3933 -15.3932 -15.3924
   -15.3924 -14.3958 -14.3862 -14.3862 -14.3861 -14.3861 -14.3848 -13.0509
   -13.0462 -13.0462 -13.0456 -13.0456 -13.0442 -10.6867 -10.6867 -10.6857
   -10.6857 -10.6836 -10.6832 -10.5710 -10.5635 -10.5635 -10.5633 -10.5613
   -10.5613  -9.4166  -9.1974  -9.1909  -9.1909  -9.1904  -9.1889  -9.1889
    -8.6695  -8.2187  -8.2186  -8.2156  -8.2155  -8.2152  -7.9449  -7.9448
    -7.9437  -7.9413  -7.9412  -7.9408  -7.8918  -7.8918  -7.8903  -7.8903
    -7.8900  -7.8893  -7.4018  -6.2968  -6.2968  -6.2959  -6.2959  -6.2954
    -6.2943  -6.0940  -6.0940  -6.0845  -6.0845  -6.0838  -5.9704  -5.1993
    -5.1993  -5.1863  -5.1863  -5.1855  -5.1417  -4.8242  -4.8242  -3.2171
    -3.2171  -3.2022  -3.2021  -3.2009  -3.2008  -0.4131  -0.4130  -0.4121
    -0.4114  -0.4113  -0.4054   1.3508   1.4380   1.4437   1.4437   1.4478
     1.4479   1.4491   2.2245   2.5115   2.5115   2.5921   2.5921   2.5939
     2.6538

          k = 0.0000-0.5774 0.0000 (131762 PWs)   bands (ev):

   -20.9736 -20.9668 -20.5044 -20.4990 -19.5805 -19.5715 -19.5714 -19.5701
   -19.1149 -19.1119 -18.2118 -18.2078 -18.2040 -18.2038 -16.8921 -16.8912
   -16.8876 -16.8871 -16.4849 -16.4847 -16.4837 -16.4816 -15.9991 -15.2731
   -15.2716 -14.9330 -14.0723 -14.0678 -14.0661 -14.0649 -13.5969 -13.5948
   -12.6640 -12.6625 -12.6617 -12.6601 -11.8694 -11.8646 -11.7070 -11.7064
   -11.7061 -11.7055 -10.4875 -10.4865 -10.2631 -10.2604 -10.2564 -10.2558
    -9.2335  -9.2159  -9.2145  -9.2132  -9.2078  -9.0516  -8.8443  -8.8431
    -8.8428  -8.8404  -8.6428  -8.4934  -8.3688  -8.3678  -8.3676  -8.3659
    -8.1748  -7.9247  -7.4566  -7.4547  -7.4540  -7.4538  -7.4025  -7.4018
    -7.3979  -7.2785  -7.2764  -7.1455  -7.0707  -7.0698  -6.8778  -6.7433
    -6.2234  -6.2231  -5.8646  -5.8528  -5.8517  -5.7860  -5.7319  -5.7295
    -5.2919  -5.2897  -4.4266  -4.4128  -4.4111  -4.3967  -4.2202  -4.2135
    -4.2071  -4.2004  -4.0656  -2.7343  -2.7259  -0.6965  -0.6915  -0.0416
     0.3342   0.3445   0.3463   0.3495   0.9881   0.9906   0.9943   0.9971
     1.6172   1.7326   2.2313   2.3539   2.5097   2.5467   2.6091   2.6105
     2.6474

          k = 0.5000-0.2887 0.0000 (131762 PWs)   bands (ev):

   -20.9736 -20.9669 -20.5044 -20.4990 -19.5805 -19.5715 -19.5714 -19.5701
   -19.1149 -19.1119 -18.2117 -18.2077 -18.2041 -18.2039 -16.8921 -16.8911
   -16.8876 -16.8871 -16.4849 -16.4847 -16.4837 -16.4816 -15.9991 -15.2731
   -15.2716 -14.9330 -14.0724 -14.0678 -14.0662 -14.0649 -13.5969 -13.5948
   -12.6639 -12.6625 -12.6617 -12.6602 -11.8694 -11.8646 -11.7070 -11.7064
   -11.7061 -11.7055 -10.4875 -10.4865 -10.2630 -10.2603 -10.2564 -10.2558
    -9.2335  -9.2159  -9.2145  -9.2132  -9.2078  -9.0517  -8.8443  -8.8432
    -8.8428  -8.8403  -8.6427  -8.4934  -8.3688  -8.3678  -8.3676  -8.3659
    -8.1748  -7.9247  -7.4566  -7.4547  -7.4540  -7.4538  -7.4025  -7.4018
    -7.3979  -7.2785  -7.2764  -7.1454  -7.0707  -7.0698  -6.8778  -6.7433
    -6.2234  -6.2231  -5.8646  -5.8529  -5.8518  -5.7860  -5.7318  -5.7296
    -5.2918  -5.2898  -4.4266  -4.4129  -4.4110  -4.3967  -4.2202  -4.2135
    -4.2071  -4.2004  -4.0656  -2.7343  -2.7259  -0.6965  -0.6915  -0.0416
     0.3341   0.3444   0.3463   0.3495   0.9882   0.9906   0.9943   0.9970
     1.6171   1.7327   2.2313   2.3539   2.5097   2.5466   2.6091   2.6106
     2.6474

     the Fermi energy is    -1.8028 ev

!    total energy              =    -625.65238151 Ry
     Harris-Foulkes estimate   =    -625.65238210 Ry
     estimated scf accuracy    <       0.00000049 Ry

     The total energy is the sum of the following terms:

     one-electron contribution =   -3953.62081405 Ry
     hartree contribution      =    2013.64879904 Ry
     xc contribution           =    -235.33447167 Ry
     ewald contribution        =    1549.65410517 Ry
     smearing contrib. (-TS)   =       0.00000000 Ry

     convergence has been achieved in   9 iterations

     Writing output data file gr-12-sixhollow.save/

     init_run     :    133.58s CPU    135.00s WALL (       1 calls)
     electrons    :   1859.80s CPU   1876.83s WALL (       1 calls)

     Called by init_run:
     wfcinit      :     89.08s CPU     89.61s WALL (       1 calls)
     potinit      :     21.87s CPU     22.44s WALL (       1 calls)
     hinit0       :     17.19s CPU     17.22s WALL (       1 calls)

     Called by electrons:
     c_bands      :   1517.60s CPU   1525.24s WALL (       9 calls)
     sum_band     :    214.15s CPU    217.12s WALL (       9 calls)
     v_of_rho     :     92.68s CPU     97.46s WALL (      10 calls)
     newd         :     45.16s CPU     47.51s WALL (      10 calls)
     mix_rho      :      2.25s CPU      2.28s WALL (       9 calls)

     Called by c_bands:
     init_us_2    :      3.57s CPU      3.60s WALL (      57 calls)
     cegterg      :   1509.03s CPU   1516.63s WALL (      27 calls)

     Called by sum_band:
     sum_band:bec :      0.02s CPU      0.02s WALL (      27 calls)
     addusdens    :     61.28s CPU     63.46s WALL (       9 calls)

     Called by *egterg:
     h_psi        :    842.25s CPU    847.80s WALL (     178 calls)
     s_psi        :    249.21s CPU    249.22s WALL (     178 calls)
     g_psi        :      1.08s CPU      1.08s WALL (     148 calls)
     cdiaghg      :     15.43s CPU     15.43s WALL (     175 calls)

     Called by h_psi:
     h_psi:pot    :    841.32s CPU    845.85s WALL (     178 calls)
     h_psi:calbec :    249.88s CPU    249.89s WALL (     178 calls)
     vloc_psi     :    341.50s CPU    346.04s WALL (     178 calls)
     add_vuspsi   :    249.93s CPU    249.92s WALL (     178 calls)

     General routines
     calbec       :    333.24s CPU    333.25s WALL (     205 calls)
     fft          :     50.04s CPU     51.78s WALL (     628 calls)
     ffts         :      0.60s CPU      0.62s WALL (      19 calls)
     fftw         :    340.62s CPU    344.98s WALL (   22765 calls)
     interpolate  :      1.27s CPU      1.30s WALL (      10 calls)

     Parallel routines
     fft_scatt_xy :     91.02s CPU     91.28s WALL (   23412 calls)
     fft_scatt_yz :     94.77s CPU     99.27s WALL (   23412 calls)

     PWSCF        :  33m14.22s CPU  33m33.23s WALL


   This run was terminated on:  11:53:31  19Jun2022            

=------------------------------------------------------------------------------=
   JOB DONE.
=------------------------------------------------------------------------------=
