
     Program PWSCF v.6.4.1 starts on 19Jun2022 at  7:34:55 

     This program is part of the open-source Quantum ESPRESSO suite
     for quantum simulation of materials; please cite
         "P. Giannozzi et al., J. Phys.:Condens. Matter 21 395502 (2009);
         "P. Giannozzi et al., J. Phys.:Condens. Matter 29 465901 (2017);
          URL http://www.quantum-espresso.org", 
     in publications or presentations arising from this work. More details at
     http://www.quantum-espresso.org/quote

     Parallel version (MPI), running on     5 processors

     MPI processes distributed on     1 nodes
     R & G space division:  proc/nbgrp/npool/nimage =       5
     Reading input from distance-3.5.in

     Current dimensions of program PWSCF are:
     Max number of different atomic species (ntypx) = 10
     Max number of k-points (npk) =  40000
     Max angular momentum in pseudopotentials (lmaxx) =  3

     IMPORTANT: XC functional enforced from input :
     Exchange-correlation      = RVV10 ( 1  4 13  4 3 0)
     Any further DFT definition will be discarded
     Please, verify this is what you really want

               file H.pbe-rrkjus.UPF: wavefunction(s)  1S renormalized
               file H.pbe-rrkjus.UPF: wavefunction(s)  1S renormalized

     Subspace diagonalization in iterative solution of the eigenvalue problem:
     a serial algorithm will be used


     Parallelization info
     --------------------
     sticks:   dense  smooth     PW     G-vecs:    dense   smooth      PW
     Min        3662    2095    542               487826   210779   27834
     Max        3663    2096    543               487829   210784   27841
     Sum       18313   10477   2713              2439139  1053907  139193



     bravais-lattice index     =            4
     lattice parameter (alat)  =      23.2937  a.u.
     unit-cell volume          =   13319.7822 (a.u.)^3
     number of atoms/cell      =           52
     number of atomic types    =            3
     number of electrons       =       202.00
     number of Kohn-Sham states=          121
     kinetic-energy cutoff     =      70.0000  Ry
     charge density cutoff     =     490.0000  Ry
     convergence threshold     =      1.0E-06
     mixing beta               =       0.7000
     number of iterations used =            8  plain     mixing
     Exchange-correlation      = RVV10 ( 1  4 13  4 3 0)

     celldm(1)=  23.293684  celldm(2)=   0.000000  celldm(3)=   1.216892
     celldm(4)=   0.000000  celldm(5)=   0.000000  celldm(6)=   0.000000

     crystal axes: (cart. coord. in units of alat)
               a(1) = (   1.000000   0.000000   0.000000 )  
               a(2) = (  -0.500000   0.866025   0.000000 )  
               a(3) = (   0.000000   0.000000   1.216892 )  

     reciprocal axes: (cart. coord. in units 2 pi/alat)
               b(1) = (  1.000000  0.577350 -0.000000 )  
               b(2) = (  0.000000  1.154701  0.000000 )  
               b(3) = (  0.000000 -0.000000  0.821766 )  


     PseudoPot. # 1 for H  read from file:
     /home/cristian/Escritorio/Proyecto_Grafeno/pseudopotenciales/H.pbe-rrkjus.UPF
     MD5 check sum: 7cc9d459525c9a0585f487a71c3c9563
     Pseudo is Ultrasoft, Zval =  1.0
     Generated by new atomic code, or converted to UPF format
     Using radial grid of 1061 points,  2 beta functions with: 
                l(1) =   0
                l(2) =   0
     Q(r) pseudized with 0 coefficients 


     PseudoPot. # 2 for H  read from file:
     /home/cristian/Escritorio/Proyecto_Grafeno/pseudopotenciales/H.pbe-rrkjus.UPF
     MD5 check sum: 7cc9d459525c9a0585f487a71c3c9563
     Pseudo is Ultrasoft, Zval =  1.0
     Generated by new atomic code, or converted to UPF format
     Using radial grid of 1061 points,  2 beta functions with: 
                l(1) =   0
                l(2) =   0
     Q(r) pseudized with 0 coefficients 


     PseudoPot. # 3 for C  read from file:
     /home/cristian/Escritorio/Proyecto_Grafeno/pseudopotenciales/C.pbe-n-rrkjus_psl.1.0.0.UPF
     MD5 check sum: 1fdd950c42eb37d8afe3dd2f8d12311e
     Pseudo is Ultrasoft + core correction, Zval =  4.0
     Generated using "atomic" code by A. Dal Corso v.6.3MaX
     Using radial grid of 1073 points,  4 beta functions with: 
                l(1) =   0
                l(2) =   0
                l(3) =   1
                l(4) =   1
     Q(r) pseudized with 0 coefficients 


     vdW kernel table read from file rVV10_kernel_table
     MD5 check sum: b8e2538accc0c0b3206b45ba4daaba6c

     atomic species   valence    mass     pseudopotential
        H1             1.00     1.00794     H ( 1.00)
        H2             1.00     1.00794     H ( 1.00)
        C              4.00    12.01070     C ( 1.00)

      4 Sym. Ops. (no inversion) found ( 2 have fractional translation)



   Cartesian axes

     site n.     atom                  positions (alat units)
         1           H1  tau(   1) = (   0.3000000   0.4041452   0.2839414  )
         2           H2  tau(   2) = (   0.3000000   0.4041452   0.3449541  )
         3           C   tau(   3) = (   0.0000000   0.0000000   0.0000000  )
         4           C   tau(   4) = (   0.0000000   0.1154701   0.0000000  )
         5           C   tau(   5) = (  -0.1000000   0.1732051   0.0000000  )
         6           C   tau(   6) = (  -0.1000000   0.2886751   0.0000000  )
         7           C   tau(   7) = (  -0.2000000   0.3464102   0.0000000  )
         8           C   tau(   8) = (  -0.2000000   0.4618802   0.0000000  )
         9           C   tau(   9) = (  -0.3000000   0.5196152   0.0000000  )
        10           C   tau(  10) = (  -0.3000000   0.6350853   0.0000000  )
        11           C   tau(  11) = (  -0.4000000   0.6928203   0.0000000  )
        12           C   tau(  12) = (  -0.4000000   0.8082904   0.0000000  )
        13           C   tau(  13) = (   0.2000000   0.0000000   0.0000000  )
        14           C   tau(  14) = (   0.2000000   0.1154701   0.0000000  )
        15           C   tau(  15) = (   0.1000000   0.1732051   0.0000000  )
        16           C   tau(  16) = (   0.1000000   0.2886751   0.0000000  )
        17           C   tau(  17) = (   0.0000000   0.3464102   0.0000000  )
        18           C   tau(  18) = (   0.0000000   0.4618802   0.0000000  )
        19           C   tau(  19) = (  -0.1000000   0.5196152   0.0000000  )
        20           C   tau(  20) = (  -0.1000000   0.6350853   0.0000000  )
        21           C   tau(  21) = (  -0.2000000   0.6928203   0.0000000  )
        22           C   tau(  22) = (  -0.2000000   0.8082904   0.0000000  )
        23           C   tau(  23) = (   0.4000000   0.0000000   0.0000000  )
        24           C   tau(  24) = (   0.4000000   0.1154701   0.0000000  )
        25           C   tau(  25) = (   0.3000000   0.1732051   0.0000000  )
        26           C   tau(  26) = (   0.3000000   0.2886751   0.0000000  )
        27           C   tau(  27) = (   0.2000000   0.3464102   0.0000000  )
        28           C   tau(  28) = (   0.2000000   0.4618802   0.0000000  )
        29           C   tau(  29) = (   0.1000000   0.5196152   0.0000000  )
        30           C   tau(  30) = (   0.1000000   0.6350853   0.0000000  )
        31           C   tau(  31) = (   0.0000000   0.6928203   0.0000000  )
        32           C   tau(  32) = (   0.0000000   0.8082904   0.0000000  )
        33           C   tau(  33) = (   0.6000000   0.0000000   0.0000000  )
        34           C   tau(  34) = (   0.6000000   0.1154701   0.0000000  )
        35           C   tau(  35) = (   0.5000000   0.1732051   0.0000000  )
        36           C   tau(  36) = (   0.5000000   0.2886751   0.0000000  )
        37           C   tau(  37) = (   0.4000000   0.3464102   0.0000000  )
        38           C   tau(  38) = (   0.4000000   0.4618802   0.0000000  )
        39           C   tau(  39) = (   0.3000000   0.5196152   0.0000000  )
        40           C   tau(  40) = (   0.3000000   0.6350853   0.0000000  )
        41           C   tau(  41) = (   0.2000000   0.6928203   0.0000000  )
        42           C   tau(  42) = (   0.2000000   0.8082904   0.0000000  )
        43           C   tau(  43) = (   0.8000000   0.0000000   0.0000000  )
        44           C   tau(  44) = (   0.8000000   0.1154701   0.0000000  )
        45           C   tau(  45) = (   0.7000000   0.1732051   0.0000000  )
        46           C   tau(  46) = (   0.7000000   0.2886751   0.0000000  )
        47           C   tau(  47) = (   0.6000000   0.3464102   0.0000000  )
        48           C   tau(  48) = (   0.6000000   0.4618802   0.0000000  )
        49           C   tau(  49) = (   0.5000000   0.5196152   0.0000000  )
        50           C   tau(  50) = (   0.5000000   0.6350853   0.0000000  )
        51           C   tau(  51) = (   0.4000000   0.6928203   0.0000000  )
        52           C   tau(  52) = (   0.4000000   0.8082904   0.0000000  )

     number of k points=     3  Marzari-Vanderbilt smearing, width (Ry)=  0.0010
                       cart. coord. in units 2pi/alat
        k(    1) = (   0.0000000   0.0000000   0.0000000), wk =   0.5000000
        k(    2) = (   0.0000000  -0.5773503   0.0000000), wk =   1.0000000
        k(    3) = (   0.5000000  -0.2886751   0.0000000), wk =   0.5000000

     Dense  grid:  2439139 G-vectors     FFT dimensions: ( 180, 180, 200)

     Smooth grid:  1053907 G-vectors     FFT dimensions: ( 135, 135, 160)

     Estimated max dynamical RAM per process >       1.34 GB

     Estimated total dynamical RAM >       6.71 GB

     Check: negative core charge=   -0.000001

     Initial potential from superposition of free atoms

     starting charge  201.80551, renormalised to  202.00000

     negative rho (up, down):  9.254E-04 0.000E+00


---------------------------------------------------------------------------------
Carrying out rVV10 run using the following parameters:
Nqs =      20    Nr_points =    1024   r_max =   100.000
b_value =  6.30000    beta =  0.00901
     q_mesh =  0.00010000  0.00030000  0.00058939  0.00100810
               0.00161396  0.00249058  0.00375900  0.00559430
               0.00824984  0.01209221  0.01765183  0.02569619
               0.03733578  0.05417739  0.07854596  0.11380545
               0.16482331  0.23864234  0.34545298  0.50000000

Gradients computed in Reciprocal space

---------------------------------------------------------------------------------


     Starting wfcs are  202 randomized atomic wfcs

     total cpu time spent up to now is      136.4 secs

     Self-consistent Calculation

     iteration #  1     ecut=    70.00 Ry     beta= 0.70
     Davidson diagonalization with overlap
     ethr =  1.00E-02,  avg # of iterations =  2.0

     negative rho (up, down):  9.756E-04 0.000E+00

     total cpu time spent up to now is      359.2 secs

     total energy              =    -624.76099880 Ry
     Harris-Foulkes estimate   =    -628.27293971 Ry
     estimated scf accuracy    <       5.85116916 Ry

     iteration #  2     ecut=    70.00 Ry     beta= 0.70
     Davidson diagonalization with overlap
     ethr =  2.90E-03,  avg # of iterations =  7.3

     negative rho (up, down):  1.164E-03 0.000E+00

     total cpu time spent up to now is      561.9 secs

     total energy              =    -625.62058327 Ry
     Harris-Foulkes estimate   =    -625.68750804 Ry
     estimated scf accuracy    <       0.15256690 Ry

     iteration #  3     ecut=    70.00 Ry     beta= 0.70
     Davidson diagonalization with overlap
     c_bands:  2 eigenvalues not converged
     ethr =  7.55E-05,  avg # of iterations = 19.3

     negative rho (up, down):  1.213E-03 0.000E+00

     total cpu time spent up to now is      806.0 secs

     total energy              =    -625.60333653 Ry
     Harris-Foulkes estimate   =    -625.69832236 Ry
     estimated scf accuracy    <       0.19366632 Ry

     iteration #  4     ecut=    70.00 Ry     beta= 0.70
     Davidson diagonalization with overlap
     ethr =  7.55E-05,  avg # of iterations =  4.7

     negative rho (up, down):  1.402E-03 0.000E+00

     total cpu time spent up to now is      999.7 secs

     total energy              =    -625.65258935 Ry
     Harris-Foulkes estimate   =    -625.66931449 Ry
     estimated scf accuracy    <       0.04710368 Ry

     iteration #  5     ecut=    70.00 Ry     beta= 0.70
     Davidson diagonalization with overlap
     ethr =  2.33E-05,  avg # of iterations =  7.3

     negative rho (up, down):  1.575E-03 0.000E+00

     total cpu time spent up to now is     1184.5 secs

     total energy              =    -625.66016382 Ry
     Harris-Foulkes estimate   =    -625.66105714 Ry
     estimated scf accuracy    <       0.00164026 Ry

     iteration #  6     ecut=    70.00 Ry     beta= 0.70
     Davidson diagonalization with overlap
     ethr =  8.12E-07,  avg # of iterations = 10.0

     negative rho (up, down):  1.762E-03 0.000E+00

     total cpu time spent up to now is     1401.8 secs

     total energy              =    -625.66060334 Ry
     Harris-Foulkes estimate   =    -625.66070883 Ry
     estimated scf accuracy    <       0.00017023 Ry

     iteration #  7     ecut=    70.00 Ry     beta= 0.70
     Davidson diagonalization with overlap
     ethr =  8.43E-08,  avg # of iterations =  7.7

     negative rho (up, down):  1.805E-03 0.000E+00

     total cpu time spent up to now is     1601.3 secs

     total energy              =    -625.66063791 Ry
     Harris-Foulkes estimate   =    -625.66066072 Ry
     estimated scf accuracy    <       0.00003704 Ry

     iteration #  8     ecut=    70.00 Ry     beta= 0.70
     Davidson diagonalization with overlap
     ethr =  1.83E-08,  avg # of iterations =  2.0

     negative rho (up, down):  1.813E-03 0.000E+00

     total cpu time spent up to now is     1786.2 secs

     End of self-consistent calculation

          k = 0.0000 0.0000 0.0000 (131685 PWs)   bands (ev):

   -21.1898 -20.2554 -20.2530 -20.2530 -20.2524 -20.2522 -20.2522 -18.4185
   -18.4180 -18.4180 -18.4172 -18.4172 -18.4168 -17.5254 -17.5254 -17.5253
   -17.5248 -17.5246 -17.5246 -15.3811 -15.3811 -15.3802 -15.3802 -15.3801
   -15.3794 -14.3729 -14.3726 -14.3726 -14.3719 -14.3719 -14.3719 -13.0318
   -13.0317 -13.0317 -13.0314 -13.0314 -13.0314 -10.6713 -10.6713 -10.6712
   -10.6710 -10.6710 -10.6705 -10.5494 -10.5491 -10.5487 -10.5487 -10.5482
   -10.5482  -9.3235  -9.1763  -9.1762  -9.1760  -9.1759  -9.1759  -9.1759
    -8.2258  -8.2044  -8.2043  -8.2035  -8.2033  -8.2032  -7.9292  -7.9292
    -7.9292  -7.9281  -7.9281  -7.9279  -7.8846  -7.8769  -7.8769  -7.8765
    -7.8762  -7.8762  -7.8757  -6.2823  -6.2823  -6.2817  -6.2817  -6.2817
    -6.2811  -6.0739  -6.0739  -6.0736  -6.0725  -6.0725  -6.0719  -5.1761
    -5.1761  -5.1752  -5.1748  -5.1743  -5.1743  -4.8103  -4.8103  -3.1909
    -3.1909  -3.1894  -3.1894  -3.1892  -3.1885  -0.3953  -0.3953  -0.3952
    -0.3945  -0.3945  -0.3934   1.3262   1.4584   1.4608   1.4608   1.4620
     1.4622   1.4622   2.2663   2.4016   2.4988   2.4989   2.5960   2.5972
     2.6945

          k = 0.0000-0.5774 0.0000 (131762 PWs)   bands (ev):

   -20.9553 -20.9540 -20.4867 -20.4858 -19.5587 -19.5582 -19.5578 -19.5574
   -19.0982 -19.0981 -18.1924 -18.1923 -18.1912 -18.1910 -16.8752 -16.8747
   -16.8742 -16.8740 -16.4692 -16.4692 -16.4687 -16.4686 -15.9847 -15.2578
   -15.2578 -14.9175 -14.0532 -14.0529 -14.0526 -14.0523 -13.5815 -13.5815
   -12.6481 -12.6477 -12.6473 -12.6470 -11.8510 -11.8510 -11.6920 -11.6918
   -11.6914 -11.6913 -10.4724 -10.4723 -10.2444 -10.2438 -10.2430 -10.2428
    -9.2005  -9.2004  -9.2004  -9.2003  -9.0435  -9.0392  -8.8286  -8.8285
    -8.8276  -8.8275  -8.4851  -8.4801  -8.3537  -8.3532  -8.3531  -8.3526
    -8.1606  -7.9026  -7.4408  -7.4408  -7.4405  -7.4405  -7.3873  -7.3868
    -7.3862  -7.3833  -7.2635  -7.2632  -7.0565  -7.0560  -6.8616  -6.8607
    -6.2095  -6.2090  -5.8419  -5.8409  -5.8400  -5.8395  -5.7173  -5.7163
    -5.2774  -5.2763  -4.4007  -4.3993  -4.3989  -4.3985  -4.1964  -4.1960
    -4.1948  -4.1947  -4.0490  -2.7140  -2.7136  -0.6774  -0.6772  -0.0250
     0.3592   0.3606   0.3618   0.3620   1.0081   1.0094   1.0096   1.0102
     1.6193   1.6519   2.2269   2.2661   2.5311   2.5806   2.6247   2.6271
     2.6278

          k = 0.5000-0.2887 0.0000 (131762 PWs)   bands (ev):

   -20.9553 -20.9540 -20.4867 -20.4858 -19.5587 -19.5582 -19.5578 -19.5574
   -19.0982 -19.0981 -18.1924 -18.1923 -18.1912 -18.1910 -16.8751 -16.8747
   -16.8742 -16.8740 -16.4693 -16.4692 -16.4687 -16.4686 -15.9847 -15.2578
   -15.2578 -14.9175 -14.0532 -14.0529 -14.0526 -14.0523 -13.5815 -13.5815
   -12.6481 -12.6477 -12.6473 -12.6470 -11.8510 -11.8510 -11.6920 -11.6918
   -11.6914 -11.6913 -10.4724 -10.4723 -10.2444 -10.2438 -10.2430 -10.2428
    -9.2005  -9.2004  -9.2004  -9.2003  -9.0435  -9.0392  -8.8286  -8.8285
    -8.8276  -8.8275  -8.4851  -8.4801  -8.3537  -8.3532  -8.3531  -8.3526
    -8.1606  -7.9026  -7.4408  -7.4408  -7.4405  -7.4405  -7.3873  -7.3868
    -7.3862  -7.3833  -7.2635  -7.2632  -7.0565  -7.0560  -6.8616  -6.8607
    -6.2095  -6.2090  -5.8419  -5.8409  -5.8400  -5.8395  -5.7173  -5.7163
    -5.2774  -5.2763  -4.4007  -4.3993  -4.3989  -4.3985  -4.1964  -4.1960
    -4.1948  -4.1947  -4.0490  -2.7140  -2.7136  -0.6774  -0.6772  -0.0250
     0.3592   0.3606   0.3618   0.3620   1.0081   1.0094   1.0096   1.0102
     1.6193   1.6519   2.2269   2.2661   2.5311   2.5806   2.6247   2.6271
     2.6278

     the Fermi energy is    -1.7668 ev

!    total energy              =    -625.66064469 Ry
     Harris-Foulkes estimate   =    -625.66064601 Ry
     estimated scf accuracy    <       0.00000036 Ry

     The total energy is the sum of the following terms:

     one-electron contribution =   -3918.55896873 Ry
     hartree contribution      =    1996.19304202 Ry
     xc contribution           =    -235.29633629 Ry
     ewald contribution        =    1532.00161831 Ry
     smearing contrib. (-TS)   =       0.00000000 Ry

     convergence has been achieved in   8 iterations

     Writing output data file gr-12-sixhollow.save/

     init_run     :    134.36s CPU    135.91s WALL (       1 calls)
     electrons    :   1634.76s CPU   1649.98s WALL (       1 calls)

     Called by init_run:
     wfcinit      :     88.73s CPU     89.35s WALL (       1 calls)
     potinit      :     22.22s CPU     22.81s WALL (       1 calls)
     hinit0       :     17.96s CPU     18.00s WALL (       1 calls)

     Called by electrons:
     c_bands      :   1325.74s CPU   1332.57s WALL (       8 calls)
     sum_band     :    193.09s CPU    195.85s WALL (       8 calls)
     v_of_rho     :     84.67s CPU     88.99s WALL (       9 calls)
     newd         :     41.65s CPU     43.65s WALL (       9 calls)
     mix_rho      :      1.88s CPU      1.92s WALL (       8 calls)

     Called by c_bands:
     init_us_2    :      3.19s CPU      3.23s WALL (      51 calls)
     cegterg      :   1317.69s CPU   1324.49s WALL (      24 calls)

     Called by sum_band:
     sum_band:bec :      0.02s CPU      0.02s WALL (      24 calls)
     addusdens    :     57.13s CPU     59.13s WALL (       8 calls)

     Called by *egterg:
     h_psi        :    737.20s CPU    742.49s WALL (     208 calls)
     s_psi        :    218.36s CPU    218.35s WALL (     208 calls)
     g_psi        :      0.91s CPU      0.91s WALL (     181 calls)
     cdiaghg      :     18.40s CPU     18.40s WALL (     205 calls)

     Called by h_psi:
     h_psi:pot    :    736.35s CPU    740.77s WALL (     208 calls)
     h_psi:calbec :    219.79s CPU    219.81s WALL (     208 calls)
     vloc_psi     :    298.51s CPU    302.94s WALL (     208 calls)
     add_vuspsi   :    218.04s CPU    218.02s WALL (     208 calls)

     General routines
     calbec       :    293.76s CPU    293.76s WALL (     232 calls)
     fft          :     47.04s CPU     48.64s WALL (     565 calls)
     ffts         :      0.54s CPU      0.57s WALL (      17 calls)
     fftw         :    298.76s CPU    303.11s WALL (   20104 calls)
     interpolate  :      1.15s CPU      1.19s WALL (       9 calls)

     Parallel routines
     fft_scatt_xy :     78.08s CPU     78.37s WALL (   20686 calls)
     fft_scatt_yz :     91.25s CPU     95.63s WALL (   20686 calls)

     PWSCF        :  29m29.90s CPU  29m47.24s WALL


   This run was terminated on:   8: 4:42  19Jun2022            

=------------------------------------------------------------------------------=
   JOB DONE.
=------------------------------------------------------------------------------=
