
     Program PWSCF v.6.4.1 starts on 19Jun2022 at 10:46:22 

     This program is part of the open-source Quantum ESPRESSO suite
     for quantum simulation of materials; please cite
         "P. Giannozzi et al., J. Phys.:Condens. Matter 21 395502 (2009);
         "P. Giannozzi et al., J. Phys.:Condens. Matter 29 465901 (2017);
          URL http://www.quantum-espresso.org", 
     in publications or presentations arising from this work. More details at
     http://www.quantum-espresso.org/quote

     Parallel version (MPI), running on     5 processors

     MPI processes distributed on     1 nodes
     R & G space division:  proc/nbgrp/npool/nimage =       5
     Reading input from distance-2.2.in

     Current dimensions of program PWSCF are:
     Max number of different atomic species (ntypx) = 10
     Max number of k-points (npk) =  40000
     Max angular momentum in pseudopotentials (lmaxx) =  3

     IMPORTANT: XC functional enforced from input :
     Exchange-correlation      = RVV10 ( 1  4 13  4 3 0)
     Any further DFT definition will be discarded
     Please, verify this is what you really want

               file H.pbe-rrkjus.UPF: wavefunction(s)  1S renormalized
               file H.pbe-rrkjus.UPF: wavefunction(s)  1S renormalized

     Subspace diagonalization in iterative solution of the eigenvalue problem:
     a serial algorithm will be used


     Parallelization info
     --------------------
     sticks:   dense  smooth     PW     G-vecs:    dense   smooth      PW
     Min        3662    2095    542               487826   210779   27834
     Max        3663    2096    543               487829   210784   27841
     Sum       18313   10477   2713              2439139  1053907  139193



     bravais-lattice index     =            4
     lattice parameter (alat)  =      23.2937  a.u.
     unit-cell volume          =   13319.7822 (a.u.)^3
     number of atoms/cell      =           52
     number of atomic types    =            3
     number of electrons       =       202.00
     number of Kohn-Sham states=          121
     kinetic-energy cutoff     =      70.0000  Ry
     charge density cutoff     =     490.0000  Ry
     convergence threshold     =      1.0E-06
     mixing beta               =       0.7000
     number of iterations used =            8  plain     mixing
     Exchange-correlation      = RVV10 ( 1  4 13  4 3 0)

     celldm(1)=  23.293684  celldm(2)=   0.000000  celldm(3)=   1.216892
     celldm(4)=   0.000000  celldm(5)=   0.000000  celldm(6)=   0.000000

     crystal axes: (cart. coord. in units of alat)
               a(1) = (   1.000000   0.000000   0.000000 )  
               a(2) = (  -0.500000   0.866025   0.000000 )  
               a(3) = (   0.000000   0.000000   1.216892 )  

     reciprocal axes: (cart. coord. in units 2 pi/alat)
               b(1) = (  1.000000  0.577350 -0.000000 )  
               b(2) = (  0.000000  1.154701  0.000000 )  
               b(3) = (  0.000000 -0.000000  0.821766 )  


     PseudoPot. # 1 for H  read from file:
     /home/cristian/Escritorio/Proyecto_Grafeno/pseudopotenciales/H.pbe-rrkjus.UPF
     MD5 check sum: 7cc9d459525c9a0585f487a71c3c9563
     Pseudo is Ultrasoft, Zval =  1.0
     Generated by new atomic code, or converted to UPF format
     Using radial grid of 1061 points,  2 beta functions with: 
                l(1) =   0
                l(2) =   0
     Q(r) pseudized with 0 coefficients 


     PseudoPot. # 2 for H  read from file:
     /home/cristian/Escritorio/Proyecto_Grafeno/pseudopotenciales/H.pbe-rrkjus.UPF
     MD5 check sum: 7cc9d459525c9a0585f487a71c3c9563
     Pseudo is Ultrasoft, Zval =  1.0
     Generated by new atomic code, or converted to UPF format
     Using radial grid of 1061 points,  2 beta functions with: 
                l(1) =   0
                l(2) =   0
     Q(r) pseudized with 0 coefficients 


     PseudoPot. # 3 for C  read from file:
     /home/cristian/Escritorio/Proyecto_Grafeno/pseudopotenciales/C.pbe-n-rrkjus_psl.1.0.0.UPF
     MD5 check sum: 1fdd950c42eb37d8afe3dd2f8d12311e
     Pseudo is Ultrasoft + core correction, Zval =  4.0
     Generated using "atomic" code by A. Dal Corso v.6.3MaX
     Using radial grid of 1073 points,  4 beta functions with: 
                l(1) =   0
                l(2) =   0
                l(3) =   1
                l(4) =   1
     Q(r) pseudized with 0 coefficients 


     vdW kernel table read from file rVV10_kernel_table
     MD5 check sum: b8e2538accc0c0b3206b45ba4daaba6c

     atomic species   valence    mass     pseudopotential
        H1             1.00     1.00794     H ( 1.00)
        H2             1.00     1.00794     H ( 1.00)
        C              4.00    12.01070     C ( 1.00)

      4 Sym. Ops. (no inversion) found ( 2 have fractional translation)



   Cartesian axes

     site n.     atom                  positions (alat units)
         1           H1  tau(   1) = (   0.3000000   0.4041452   0.1784775  )
         2           H2  tau(   2) = (   0.3000000   0.4041452   0.2394901  )
         3           C   tau(   3) = (   0.0000000   0.0000000   0.0000000  )
         4           C   tau(   4) = (   0.0000000   0.1154701   0.0000000  )
         5           C   tau(   5) = (  -0.1000000   0.1732051   0.0000000  )
         6           C   tau(   6) = (  -0.1000000   0.2886751   0.0000000  )
         7           C   tau(   7) = (  -0.2000000   0.3464102   0.0000000  )
         8           C   tau(   8) = (  -0.2000000   0.4618802   0.0000000  )
         9           C   tau(   9) = (  -0.3000000   0.5196152   0.0000000  )
        10           C   tau(  10) = (  -0.3000000   0.6350853   0.0000000  )
        11           C   tau(  11) = (  -0.4000000   0.6928203   0.0000000  )
        12           C   tau(  12) = (  -0.4000000   0.8082904   0.0000000  )
        13           C   tau(  13) = (   0.2000000   0.0000000   0.0000000  )
        14           C   tau(  14) = (   0.2000000   0.1154701   0.0000000  )
        15           C   tau(  15) = (   0.1000000   0.1732051   0.0000000  )
        16           C   tau(  16) = (   0.1000000   0.2886751   0.0000000  )
        17           C   tau(  17) = (   0.0000000   0.3464102   0.0000000  )
        18           C   tau(  18) = (   0.0000000   0.4618802   0.0000000  )
        19           C   tau(  19) = (  -0.1000000   0.5196152   0.0000000  )
        20           C   tau(  20) = (  -0.1000000   0.6350853   0.0000000  )
        21           C   tau(  21) = (  -0.2000000   0.6928203   0.0000000  )
        22           C   tau(  22) = (  -0.2000000   0.8082904   0.0000000  )
        23           C   tau(  23) = (   0.4000000   0.0000000   0.0000000  )
        24           C   tau(  24) = (   0.4000000   0.1154701   0.0000000  )
        25           C   tau(  25) = (   0.3000000   0.1732051   0.0000000  )
        26           C   tau(  26) = (   0.3000000   0.2886751   0.0000000  )
        27           C   tau(  27) = (   0.2000000   0.3464102   0.0000000  )
        28           C   tau(  28) = (   0.2000000   0.4618802   0.0000000  )
        29           C   tau(  29) = (   0.1000000   0.5196152   0.0000000  )
        30           C   tau(  30) = (   0.1000000   0.6350853   0.0000000  )
        31           C   tau(  31) = (   0.0000000   0.6928203   0.0000000  )
        32           C   tau(  32) = (   0.0000000   0.8082904   0.0000000  )
        33           C   tau(  33) = (   0.6000000   0.0000000   0.0000000  )
        34           C   tau(  34) = (   0.6000000   0.1154701   0.0000000  )
        35           C   tau(  35) = (   0.5000000   0.1732051   0.0000000  )
        36           C   tau(  36) = (   0.5000000   0.2886751   0.0000000  )
        37           C   tau(  37) = (   0.4000000   0.3464102   0.0000000  )
        38           C   tau(  38) = (   0.4000000   0.4618802   0.0000000  )
        39           C   tau(  39) = (   0.3000000   0.5196152   0.0000000  )
        40           C   tau(  40) = (   0.3000000   0.6350853   0.0000000  )
        41           C   tau(  41) = (   0.2000000   0.6928203   0.0000000  )
        42           C   tau(  42) = (   0.2000000   0.8082904   0.0000000  )
        43           C   tau(  43) = (   0.8000000   0.0000000   0.0000000  )
        44           C   tau(  44) = (   0.8000000   0.1154701   0.0000000  )
        45           C   tau(  45) = (   0.7000000   0.1732051   0.0000000  )
        46           C   tau(  46) = (   0.7000000   0.2886751   0.0000000  )
        47           C   tau(  47) = (   0.6000000   0.3464102   0.0000000  )
        48           C   tau(  48) = (   0.6000000   0.4618802   0.0000000  )
        49           C   tau(  49) = (   0.5000000   0.5196152   0.0000000  )
        50           C   tau(  50) = (   0.5000000   0.6350853   0.0000000  )
        51           C   tau(  51) = (   0.4000000   0.6928203   0.0000000  )
        52           C   tau(  52) = (   0.4000000   0.8082904   0.0000000  )

     number of k points=     3  Marzari-Vanderbilt smearing, width (Ry)=  0.0010
                       cart. coord. in units 2pi/alat
        k(    1) = (   0.0000000   0.0000000   0.0000000), wk =   0.5000000
        k(    2) = (   0.0000000  -0.5773503   0.0000000), wk =   1.0000000
        k(    3) = (   0.5000000  -0.2886751   0.0000000), wk =   0.5000000

     Dense  grid:  2439139 G-vectors     FFT dimensions: ( 180, 180, 200)

     Smooth grid:  1053907 G-vectors     FFT dimensions: ( 135, 135, 160)

     Estimated max dynamical RAM per process >       1.34 GB

     Estimated total dynamical RAM >       6.71 GB

     Check: negative core charge=   -0.000001

     Initial potential from superposition of free atoms

     starting charge  201.80551, renormalised to  202.00000

     negative rho (up, down):  1.061E-03 0.000E+00


---------------------------------------------------------------------------------
Carrying out rVV10 run using the following parameters:
Nqs =      20    Nr_points =    1024   r_max =   100.000
b_value =  6.30000    beta =  0.00901
     q_mesh =  0.00010000  0.00030000  0.00058939  0.00100810
               0.00161396  0.00249058  0.00375900  0.00559430
               0.00824984  0.01209221  0.01765183  0.02569619
               0.03733578  0.05417739  0.07854596  0.11380545
               0.16482331  0.23864234  0.34545298  0.50000000

Gradients computed in Reciprocal space

---------------------------------------------------------------------------------


     Starting wfcs are  202 randomized atomic wfcs

     total cpu time spent up to now is      135.3 secs

     Self-consistent Calculation

     iteration #  1     ecut=    70.00 Ry     beta= 0.70
     Davidson diagonalization with overlap
     ethr =  1.00E-02,  avg # of iterations =  2.0

     negative rho (up, down):  1.169E-03 0.000E+00

     total cpu time spent up to now is      359.1 secs

     total energy              =    -624.65107955 Ry
     Harris-Foulkes estimate   =    -628.28523822 Ry
     estimated scf accuracy    <       5.98432184 Ry

     iteration #  2     ecut=    70.00 Ry     beta= 0.70
     Davidson diagonalization with overlap
     ethr =  2.96E-03,  avg # of iterations =  7.7

     negative rho (up, down):  1.355E-03 0.000E+00

     total cpu time spent up to now is      570.3 secs

     total energy              =    -625.23601827 Ry
     Harris-Foulkes estimate   =    -625.82310759 Ry
     estimated scf accuracy    <       0.81504795 Ry

     iteration #  3     ecut=    70.00 Ry     beta= 0.70
     Davidson diagonalization with overlap
     ethr =  4.03E-04,  avg # of iterations = 13.3

     negative rho (up, down):  1.425E-03 0.000E+00

     total cpu time spent up to now is      818.4 secs

     total energy              =    -625.23391847 Ry
     Harris-Foulkes estimate   =    -626.09450071 Ry
     estimated scf accuracy    <       2.33009735 Ry

     iteration #  4     ecut=    70.00 Ry     beta= 0.70
     Davidson diagonalization with overlap
     ethr =  4.03E-04,  avg # of iterations =  6.0

     negative rho (up, down):  1.510E-03 0.000E+00

     total cpu time spent up to now is     1015.4 secs

     total energy              =    -625.64928917 Ry
     Harris-Foulkes estimate   =    -625.66388230 Ry
     estimated scf accuracy    <       0.03229828 Ry

     iteration #  5     ecut=    70.00 Ry     beta= 0.70
     Davidson diagonalization with overlap
     ethr =  1.60E-05,  avg # of iterations =  6.7

     negative rho (up, down):  1.688E-03 0.000E+00

     total cpu time spent up to now is     1233.8 secs

     total energy              =    -625.65647681 Ry
     Harris-Foulkes estimate   =    -625.66139467 Ry
     estimated scf accuracy    <       0.01083714 Ry

     iteration #  6     ecut=    70.00 Ry     beta= 0.70
     Davidson diagonalization with overlap
     ethr =  5.36E-06,  avg # of iterations =  8.0

     negative rho (up, down):  1.845E-03 0.000E+00

     total cpu time spent up to now is     1432.0 secs

     total energy              =    -625.65865438 Ry
     Harris-Foulkes estimate   =    -625.65895130 Ry
     estimated scf accuracy    <       0.00053588 Ry

     iteration #  7     ecut=    70.00 Ry     beta= 0.70
     Davidson diagonalization with overlap
     ethr =  2.65E-07,  avg # of iterations =  5.7

     negative rho (up, down):  1.907E-03 0.000E+00

     total cpu time spent up to now is     1631.0 secs

     total energy              =    -625.65879002 Ry
     Harris-Foulkes estimate   =    -625.65882224 Ry
     estimated scf accuracy    <       0.00004869 Ry

     iteration #  8     ecut=    70.00 Ry     beta= 0.70
     Davidson diagonalization with overlap
     ethr =  2.41E-08,  avg # of iterations =  2.0

     negative rho (up, down):  1.919E-03 0.000E+00

     total cpu time spent up to now is     1820.0 secs

     total energy              =    -625.65880156 Ry
     Harris-Foulkes estimate   =    -625.65880498 Ry
     estimated scf accuracy    <       0.00000397 Ry

     iteration #  9     ecut=    70.00 Ry     beta= 0.70
     Davidson diagonalization with overlap
     ethr =  1.97E-09,  avg # of iterations =  3.0

     negative rho (up, down):  1.921E-03 0.000E+00

     total cpu time spent up to now is     2014.1 secs

     End of self-consistent calculation

          k = 0.0000 0.0000 0.0000 (131685 PWs)   bands (ev):

   -21.1996 -20.2719 -20.2617 -20.2613 -20.2610 -20.2606 -20.2603 -18.4324
   -18.4274 -18.4274 -18.4256 -18.4256 -18.4253 -17.5385 -17.5355 -17.5354
   -17.5328 -17.5328 -17.5324 -15.3922 -15.3920 -15.3888 -15.3886 -15.3881
   -15.3879 -14.3865 -14.3813 -14.3813 -14.3812 -14.3811 -14.3803 -13.0434
   -13.0409 -13.0409 -13.0407 -13.0407 -13.0398 -10.6811 -10.6810 -10.6806
   -10.6806 -10.6792 -10.6787 -10.5619 -10.5584 -10.5582 -10.5581 -10.5568
   -10.5567  -9.3768  -9.1889  -9.1855  -9.1854  -9.1854  -9.1843  -9.1843
    -8.5608  -8.2137  -8.2133  -8.2114  -8.2111  -8.2110  -7.9392  -7.9390
    -7.9386  -7.9368  -7.9366  -7.9362  -7.8865  -7.8864  -7.8853  -7.8852
    -7.8850  -7.8848  -7.5360  -6.2917  -6.2916  -6.2908  -6.2907  -6.2906
    -6.2897  -6.0871  -6.0871  -6.0802  -6.0802  -6.0796  -6.0178  -5.1915
    -5.1913  -5.1820  -5.1819  -5.1814  -5.1604  -4.8193  -4.8193  -3.2082
    -3.2080  -3.1977  -3.1975  -3.1967  -3.1965  -0.4077  -0.4066  -0.4065
    -0.4058  -0.4057  -0.4012   1.3584   1.4393   1.4495   1.4496   1.4530
     1.4531   1.4536   2.2282   2.5040   2.5041   2.5936   2.5937   2.5960
     2.6380

          k = 0.0000-0.5774 0.0000 (131762 PWs)   bands (ev):

   -20.9665 -20.9624 -20.4977 -20.4944 -19.5721 -19.5667 -19.5666 -19.5656
   -19.1087 -19.1070 -18.2041 -18.2021 -18.1996 -18.1995 -16.8855 -16.8853
   -16.8828 -16.8825 -16.4793 -16.4787 -16.4785 -16.4770 -15.9939 -15.2676
   -15.2666 -14.9273 -14.0650 -14.0624 -14.0614 -14.0604 -13.5913 -13.5901
   -12.6580 -12.6571 -12.6565 -12.6556 -11.8622 -11.8598 -11.7012 -11.7011
   -11.7010 -11.7005 -10.4820 -10.4814 -10.2551 -10.2545 -10.2518 -10.2514
    -9.2105  -9.2103  -9.2095  -9.2087  -9.1516  -9.0473  -8.8386  -8.8380
    -8.8372  -8.8358  -8.5997  -8.4887  -8.3633  -8.3625  -8.3625  -8.3613
    -8.1697  -7.9206  -7.4508  -7.4498  -7.4493  -7.4491  -7.3971  -7.3966
    -7.3936  -7.2732  -7.2717  -7.2134  -7.0656  -7.0649  -6.8722  -6.8040
    -6.2185  -6.2181  -5.8567  -5.8484  -5.8475  -5.8141  -5.7266  -5.7250
    -5.2866  -5.2851  -4.4176  -4.4079  -4.4066  -4.3998  -4.2120  -4.2074
    -4.2027  -4.1995  -4.0599  -2.7273  -2.7217  -0.6898  -0.6865  -0.0365
     0.3411   0.3500   0.3518   0.3540   0.9948   0.9973   0.9997   1.0016
     1.6174   1.7285   2.2281   2.3454   2.5285   2.5438   2.6154   2.6168
     2.6204

          k = 0.5000-0.2887 0.0000 (131762 PWs)   bands (ev):

   -20.9668 -20.9621 -20.4977 -20.4944 -19.5721 -19.5667 -19.5666 -19.5656
   -19.1087 -19.1070 -18.2044 -18.2024 -18.1994 -18.1992 -16.8854 -16.8854
   -16.8828 -16.8826 -16.4792 -16.4788 -16.4784 -16.4771 -15.9939 -15.2676
   -15.2666 -14.9273 -14.0649 -14.0624 -14.0614 -14.0605 -13.5913 -13.5901
   -12.6581 -12.6570 -12.6566 -12.6555 -11.8622 -11.8598 -11.7013 -11.7012
   -11.7011 -11.7003 -10.4820 -10.4814 -10.2554 -10.2548 -10.2515 -10.2511
    -9.2105  -9.2103  -9.2095  -9.2087  -9.1517  -9.0471  -8.8385  -8.8379
    -8.8373  -8.8359  -8.5999  -8.4887  -8.3635  -8.3627  -8.3623  -8.3612
    -8.1697  -7.9205  -7.4508  -7.4498  -7.4493  -7.4491  -7.3971  -7.3966
    -7.3936  -7.2732  -7.2717  -7.2135  -7.0656  -7.0649  -6.8722  -6.8040
    -6.2185  -6.2181  -5.8570  -5.8481  -5.8473  -5.8143  -5.7269  -5.7247
    -5.2869  -5.2849  -4.4177  -4.4077  -4.4067  -4.3996  -4.2119  -4.2073
    -4.2028  -4.1996  -4.0599  -2.7273  -2.7217  -0.6898  -0.6865  -0.0365
     0.3412   0.3501   0.3517   0.3539   0.9947   0.9971   0.9999   1.0018
     1.6175   1.7284   2.2281   2.3455   2.5286   2.5439   2.6152   2.6166
     2.6207

     the Fermi energy is    -1.8145 ev

!    total energy              =    -625.65880212 Ry
     Harris-Foulkes estimate   =    -625.65880277 Ry
     estimated scf accuracy    <       0.00000047 Ry

     The total energy is the sum of the following terms:

     one-electron contribution =   -3948.32219282 Ry
     hartree contribution      =    2011.02402853 Ry
     xc contribution           =    -235.32043323 Ry
     ewald contribution        =    1546.95979539 Ry
     smearing contrib. (-TS)   =       0.00000000 Ry

     convergence has been achieved in   9 iterations

     Writing output data file gr-12-sixhollow.save/

     init_run     :    133.46s CPU    134.85s WALL (       1 calls)
     electrons    :   1861.64s CPU   1878.95s WALL (       1 calls)

     Called by init_run:
     wfcinit      :     89.24s CPU     89.71s WALL (       1 calls)
     potinit      :     21.44s CPU     22.02s WALL (       1 calls)
     hinit0       :     17.37s CPU     17.43s WALL (       1 calls)

     Called by electrons:
     c_bands      :   1518.42s CPU   1525.99s WALL (       9 calls)
     sum_band     :    215.44s CPU    218.50s WALL (       9 calls)
     v_of_rho     :     92.36s CPU     97.35s WALL (      10 calls)
     newd         :     45.27s CPU     47.62s WALL (      10 calls)
     mix_rho      :      2.18s CPU      2.23s WALL (       9 calls)

     Called by c_bands:
     init_us_2    :      3.47s CPU      3.52s WALL (      57 calls)
     cegterg      :   1509.07s CPU   1516.63s WALL (      27 calls)

     Called by sum_band:
     sum_band:bec :      0.02s CPU      0.02s WALL (      27 calls)
     addusdens    :     61.89s CPU     64.07s WALL (       9 calls)

     Called by *egterg:
     h_psi        :    839.25s CPU    844.81s WALL (     193 calls)
     s_psi        :    247.08s CPU    247.12s WALL (     193 calls)
     g_psi        :      1.04s CPU      1.04s WALL (     163 calls)
     cdiaghg      :     16.69s CPU     16.69s WALL (     190 calls)

     Called by h_psi:
     h_psi:pot    :    838.36s CPU    842.90s WALL (     193 calls)
     h_psi:calbec :    250.28s CPU    250.32s WALL (     193 calls)
     vloc_psi     :    340.47s CPU    344.98s WALL (     193 calls)
     add_vuspsi   :    247.61s CPU    247.61s WALL (     193 calls)

     General routines
     calbec       :    333.92s CPU    333.96s WALL (     220 calls)
     fft          :     50.75s CPU     52.49s WALL (     628 calls)
     ffts         :      0.61s CPU      0.64s WALL (      19 calls)
     fftw         :    340.14s CPU    344.63s WALL (   22763 calls)
     interpolate  :      1.32s CPU      1.35s WALL (      10 calls)

     Parallel routines
     fft_scatt_xy :     89.41s CPU     89.70s WALL (   23410 calls)
     fft_scatt_yz :    100.92s CPU    105.55s WALL (   23410 calls)

     PWSCF        :  33m15.87s CPU  33m35.18s WALL


   This run was terminated on:  11:19:57  19Jun2022            

=------------------------------------------------------------------------------=
   JOB DONE.
=------------------------------------------------------------------------------=
