
     Program PWSCF v.6.4.1 starts on 19Jun2022 at  9: 8:19 

     This program is part of the open-source Quantum ESPRESSO suite
     for quantum simulation of materials; please cite
         "P. Giannozzi et al., J. Phys.:Condens. Matter 21 395502 (2009);
         "P. Giannozzi et al., J. Phys.:Condens. Matter 29 465901 (2017);
          URL http://www.quantum-espresso.org", 
     in publications or presentations arising from this work. More details at
     http://www.quantum-espresso.org/quote

     Parallel version (MPI), running on     5 processors

     MPI processes distributed on     1 nodes
     R & G space division:  proc/nbgrp/npool/nimage =       5
     Reading input from distance-2.6.in

     Current dimensions of program PWSCF are:
     Max number of different atomic species (ntypx) = 10
     Max number of k-points (npk) =  40000
     Max angular momentum in pseudopotentials (lmaxx) =  3

     IMPORTANT: XC functional enforced from input :
     Exchange-correlation      = RVV10 ( 1  4 13  4 3 0)
     Any further DFT definition will be discarded
     Please, verify this is what you really want

               file H.pbe-rrkjus.UPF: wavefunction(s)  1S renormalized
               file H.pbe-rrkjus.UPF: wavefunction(s)  1S renormalized

     Subspace diagonalization in iterative solution of the eigenvalue problem:
     a serial algorithm will be used


     Parallelization info
     --------------------
     sticks:   dense  smooth     PW     G-vecs:    dense   smooth      PW
     Min        3662    2095    542               487826   210779   27834
     Max        3663    2096    543               487829   210784   27841
     Sum       18313   10477   2713              2439139  1053907  139193



     bravais-lattice index     =            4
     lattice parameter (alat)  =      23.2937  a.u.
     unit-cell volume          =   13319.7822 (a.u.)^3
     number of atoms/cell      =           52
     number of atomic types    =            3
     number of electrons       =       202.00
     number of Kohn-Sham states=          121
     kinetic-energy cutoff     =      70.0000  Ry
     charge density cutoff     =     490.0000  Ry
     convergence threshold     =      1.0E-06
     mixing beta               =       0.7000
     number of iterations used =            8  plain     mixing
     Exchange-correlation      = RVV10 ( 1  4 13  4 3 0)

     celldm(1)=  23.293684  celldm(2)=   0.000000  celldm(3)=   1.216892
     celldm(4)=   0.000000  celldm(5)=   0.000000  celldm(6)=   0.000000

     crystal axes: (cart. coord. in units of alat)
               a(1) = (   1.000000   0.000000   0.000000 )  
               a(2) = (  -0.500000   0.866025   0.000000 )  
               a(3) = (   0.000000   0.000000   1.216892 )  

     reciprocal axes: (cart. coord. in units 2 pi/alat)
               b(1) = (  1.000000  0.577350 -0.000000 )  
               b(2) = (  0.000000  1.154701  0.000000 )  
               b(3) = (  0.000000 -0.000000  0.821766 )  


     PseudoPot. # 1 for H  read from file:
     /home/cristian/Escritorio/Proyecto_Grafeno/pseudopotenciales/H.pbe-rrkjus.UPF
     MD5 check sum: 7cc9d459525c9a0585f487a71c3c9563
     Pseudo is Ultrasoft, Zval =  1.0
     Generated by new atomic code, or converted to UPF format
     Using radial grid of 1061 points,  2 beta functions with: 
                l(1) =   0
                l(2) =   0
     Q(r) pseudized with 0 coefficients 


     PseudoPot. # 2 for H  read from file:
     /home/cristian/Escritorio/Proyecto_Grafeno/pseudopotenciales/H.pbe-rrkjus.UPF
     MD5 check sum: 7cc9d459525c9a0585f487a71c3c9563
     Pseudo is Ultrasoft, Zval =  1.0
     Generated by new atomic code, or converted to UPF format
     Using radial grid of 1061 points,  2 beta functions with: 
                l(1) =   0
                l(2) =   0
     Q(r) pseudized with 0 coefficients 


     PseudoPot. # 3 for C  read from file:
     /home/cristian/Escritorio/Proyecto_Grafeno/pseudopotenciales/C.pbe-n-rrkjus_psl.1.0.0.UPF
     MD5 check sum: 1fdd950c42eb37d8afe3dd2f8d12311e
     Pseudo is Ultrasoft + core correction, Zval =  4.0
     Generated using "atomic" code by A. Dal Corso v.6.3MaX
     Using radial grid of 1073 points,  4 beta functions with: 
                l(1) =   0
                l(2) =   0
                l(3) =   1
                l(4) =   1
     Q(r) pseudized with 0 coefficients 


     vdW kernel table read from file rVV10_kernel_table
     MD5 check sum: b8e2538accc0c0b3206b45ba4daaba6c

     atomic species   valence    mass     pseudopotential
        H1             1.00     1.00794     H ( 1.00)
        H2             1.00     1.00794     H ( 1.00)
        C              4.00    12.01070     C ( 1.00)

      4 Sym. Ops. (no inversion) found ( 2 have fractional translation)



   Cartesian axes

     site n.     atom                  positions (alat units)
         1           H1  tau(   1) = (   0.3000000   0.4041452   0.2109279  )
         2           H2  tau(   2) = (   0.3000000   0.4041452   0.2719406  )
         3           C   tau(   3) = (   0.0000000   0.0000000   0.0000000  )
         4           C   tau(   4) = (   0.0000000   0.1154701   0.0000000  )
         5           C   tau(   5) = (  -0.1000000   0.1732051   0.0000000  )
         6           C   tau(   6) = (  -0.1000000   0.2886751   0.0000000  )
         7           C   tau(   7) = (  -0.2000000   0.3464102   0.0000000  )
         8           C   tau(   8) = (  -0.2000000   0.4618802   0.0000000  )
         9           C   tau(   9) = (  -0.3000000   0.5196152   0.0000000  )
        10           C   tau(  10) = (  -0.3000000   0.6350853   0.0000000  )
        11           C   tau(  11) = (  -0.4000000   0.6928203   0.0000000  )
        12           C   tau(  12) = (  -0.4000000   0.8082904   0.0000000  )
        13           C   tau(  13) = (   0.2000000   0.0000000   0.0000000  )
        14           C   tau(  14) = (   0.2000000   0.1154701   0.0000000  )
        15           C   tau(  15) = (   0.1000000   0.1732051   0.0000000  )
        16           C   tau(  16) = (   0.1000000   0.2886751   0.0000000  )
        17           C   tau(  17) = (   0.0000000   0.3464102   0.0000000  )
        18           C   tau(  18) = (   0.0000000   0.4618802   0.0000000  )
        19           C   tau(  19) = (  -0.1000000   0.5196152   0.0000000  )
        20           C   tau(  20) = (  -0.1000000   0.6350853   0.0000000  )
        21           C   tau(  21) = (  -0.2000000   0.6928203   0.0000000  )
        22           C   tau(  22) = (  -0.2000000   0.8082904   0.0000000  )
        23           C   tau(  23) = (   0.4000000   0.0000000   0.0000000  )
        24           C   tau(  24) = (   0.4000000   0.1154701   0.0000000  )
        25           C   tau(  25) = (   0.3000000   0.1732051   0.0000000  )
        26           C   tau(  26) = (   0.3000000   0.2886751   0.0000000  )
        27           C   tau(  27) = (   0.2000000   0.3464102   0.0000000  )
        28           C   tau(  28) = (   0.2000000   0.4618802   0.0000000  )
        29           C   tau(  29) = (   0.1000000   0.5196152   0.0000000  )
        30           C   tau(  30) = (   0.1000000   0.6350853   0.0000000  )
        31           C   tau(  31) = (   0.0000000   0.6928203   0.0000000  )
        32           C   tau(  32) = (   0.0000000   0.8082904   0.0000000  )
        33           C   tau(  33) = (   0.6000000   0.0000000   0.0000000  )
        34           C   tau(  34) = (   0.6000000   0.1154701   0.0000000  )
        35           C   tau(  35) = (   0.5000000   0.1732051   0.0000000  )
        36           C   tau(  36) = (   0.5000000   0.2886751   0.0000000  )
        37           C   tau(  37) = (   0.4000000   0.3464102   0.0000000  )
        38           C   tau(  38) = (   0.4000000   0.4618802   0.0000000  )
        39           C   tau(  39) = (   0.3000000   0.5196152   0.0000000  )
        40           C   tau(  40) = (   0.3000000   0.6350853   0.0000000  )
        41           C   tau(  41) = (   0.2000000   0.6928203   0.0000000  )
        42           C   tau(  42) = (   0.2000000   0.8082904   0.0000000  )
        43           C   tau(  43) = (   0.8000000   0.0000000   0.0000000  )
        44           C   tau(  44) = (   0.8000000   0.1154701   0.0000000  )
        45           C   tau(  45) = (   0.7000000   0.1732051   0.0000000  )
        46           C   tau(  46) = (   0.7000000   0.2886751   0.0000000  )
        47           C   tau(  47) = (   0.6000000   0.3464102   0.0000000  )
        48           C   tau(  48) = (   0.6000000   0.4618802   0.0000000  )
        49           C   tau(  49) = (   0.5000000   0.5196152   0.0000000  )
        50           C   tau(  50) = (   0.5000000   0.6350853   0.0000000  )
        51           C   tau(  51) = (   0.4000000   0.6928203   0.0000000  )
        52           C   tau(  52) = (   0.4000000   0.8082904   0.0000000  )

     number of k points=     3  Marzari-Vanderbilt smearing, width (Ry)=  0.0010
                       cart. coord. in units 2pi/alat
        k(    1) = (   0.0000000   0.0000000   0.0000000), wk =   0.5000000
        k(    2) = (   0.0000000  -0.5773503   0.0000000), wk =   1.0000000
        k(    3) = (   0.5000000  -0.2886751   0.0000000), wk =   0.5000000

     Dense  grid:  2439139 G-vectors     FFT dimensions: ( 180, 180, 200)

     Smooth grid:  1053907 G-vectors     FFT dimensions: ( 135, 135, 160)

     Estimated max dynamical RAM per process >       1.34 GB

     Estimated total dynamical RAM >       6.71 GB

     Check: negative core charge=   -0.000001

     Initial potential from superposition of free atoms

     starting charge  201.80551, renormalised to  202.00000

     negative rho (up, down):  1.017E-03 0.000E+00


---------------------------------------------------------------------------------
Carrying out rVV10 run using the following parameters:
Nqs =      20    Nr_points =    1024   r_max =   100.000
b_value =  6.30000    beta =  0.00901
     q_mesh =  0.00010000  0.00030000  0.00058939  0.00100810
               0.00161396  0.00249058  0.00375900  0.00559430
               0.00824984  0.01209221  0.01765183  0.02569619
               0.03733578  0.05417739  0.07854596  0.11380545
               0.16482331  0.23864234  0.34545298  0.50000000

Gradients computed in Reciprocal space

---------------------------------------------------------------------------------


     Starting wfcs are  202 randomized atomic wfcs

     total cpu time spent up to now is      136.8 secs

     Self-consistent Calculation

     iteration #  1     ecut=    70.00 Ry     beta= 0.70
     Davidson diagonalization with overlap
     ethr =  1.00E-02,  avg # of iterations =  2.0

     negative rho (up, down):  1.112E-03 0.000E+00

     total cpu time spent up to now is      360.1 secs

     total energy              =    -624.72289156 Ry
     Harris-Foulkes estimate   =    -628.26914143 Ry
     estimated scf accuracy    <       5.88572523 Ry

     iteration #  2     ecut=    70.00 Ry     beta= 0.70
     Davidson diagonalization with overlap
     ethr =  2.91E-03,  avg # of iterations =  9.0

     negative rho (up, down):  1.305E-03 0.000E+00

     total cpu time spent up to now is      570.0 secs

     total energy              =    -625.46618168 Ry
     Harris-Foulkes estimate   =    -625.74481453 Ry
     estimated scf accuracy    <       0.40987592 Ry

     iteration #  3     ecut=    70.00 Ry     beta= 0.70
     Davidson diagonalization with overlap
     ethr =  2.03E-04,  avg # of iterations = 13.7

     negative rho (up, down):  1.360E-03 0.000E+00

     total cpu time spent up to now is      820.3 secs

     total energy              =    -625.43241021 Ry
     Harris-Foulkes estimate   =    -625.89157009 Ry
     estimated scf accuracy    <       1.18092318 Ry

     iteration #  4     ecut=    70.00 Ry     beta= 0.70
     Davidson diagonalization with overlap
     ethr =  2.03E-04,  avg # of iterations =  8.0

     negative rho (up, down):  1.477E-03 0.000E+00

     total cpu time spent up to now is     1022.7 secs

     total energy              =    -625.65651285 Ry
     Harris-Foulkes estimate   =    -625.66652950 Ry
     estimated scf accuracy    <       0.02552063 Ry

     iteration #  5     ecut=    70.00 Ry     beta= 0.70
     Davidson diagonalization with overlap
     ethr =  1.26E-05,  avg # of iterations =  8.7

     negative rho (up, down):  1.658E-03 0.000E+00

     total cpu time spent up to now is     1239.4 secs

     total energy              =    -625.66083776 Ry
     Harris-Foulkes estimate   =    -625.66470963 Ry
     estimated scf accuracy    <       0.00815108 Ry

     iteration #  6     ecut=    70.00 Ry     beta= 0.70
     Davidson diagonalization with overlap
     ethr =  4.04E-06,  avg # of iterations =  6.0

     negative rho (up, down):  1.810E-03 0.000E+00

     total cpu time spent up to now is     1437.7 secs

     total energy              =    -625.66254214 Ry
     Harris-Foulkes estimate   =    -625.66272182 Ry
     estimated scf accuracy    <       0.00030875 Ry

     iteration #  7     ecut=    70.00 Ry     beta= 0.70
     Davidson diagonalization with overlap
     ethr =  1.53E-07,  avg # of iterations =  6.0

     negative rho (up, down):  1.881E-03 0.000E+00

     total cpu time spent up to now is     1639.4 secs

     total energy              =    -625.66262167 Ry
     Harris-Foulkes estimate   =    -625.66265158 Ry
     estimated scf accuracy    <       0.00004299 Ry

     iteration #  8     ecut=    70.00 Ry     beta= 0.70
     Davidson diagonalization with overlap
     ethr =  2.13E-08,  avg # of iterations =  2.0

     negative rho (up, down):  1.890E-03 0.000E+00

     total cpu time spent up to now is     1826.8 secs

     total energy              =    -625.66263111 Ry
     Harris-Foulkes estimate   =    -625.66263345 Ry
     estimated scf accuracy    <       0.00000231 Ry

     iteration #  9     ecut=    70.00 Ry     beta= 0.70
     Davidson diagonalization with overlap
     ethr =  1.14E-09,  avg # of iterations =  3.0

     negative rho (up, down):  1.892E-03 0.000E+00

     total cpu time spent up to now is     2024.0 secs

     End of self-consistent calculation

          k = 0.0000 0.0000 0.0000 (131685 PWs)   bands (ev):

   -21.1931 -20.2610 -20.2560 -20.2559 -20.2553 -20.2553 -20.2549 -18.4230
   -18.4213 -18.4213 -18.4202 -18.4202 -18.4198 -17.5299 -17.5290 -17.5290
   -17.5274 -17.5274 -17.5272 -15.3850 -15.3850 -15.3832 -15.3832 -15.3828
   -15.3824 -14.3773 -14.3757 -14.3757 -14.3752 -14.3752 -14.3749 -13.0355
   -13.0350 -13.0350 -13.0347 -13.0347 -13.0345 -10.6746 -10.6746 -10.6746
   -10.6746 -10.6739 -10.6733 -10.5532 -10.5527 -10.5520 -10.5520 -10.5513
   -10.5512  -9.3403  -9.1804  -9.1798  -9.1792  -9.1792  -9.1788  -9.1788
    -8.3854  -8.2075  -8.2074  -8.2061  -8.2061  -8.2059  -7.9327  -7.9327
    -7.9326  -7.9311  -7.9311  -7.9308  -7.8803  -7.8803  -7.8795  -7.8793
    -7.8793  -7.8792  -7.7341  -6.2857  -6.2857  -6.2849  -6.2848  -6.2848
    -6.2842  -6.0789  -6.0788  -6.0751  -6.0751  -6.0744  -6.0589  -5.1820
    -5.1820  -5.1768  -5.1768  -5.1766  -5.1728  -4.8135  -4.8135  -3.1974
    -3.1974  -3.1922  -3.1922  -3.1916  -3.1912  -0.4008  -0.3991  -0.3991
    -0.3988  -0.3988  -0.3960   1.3577   1.4467   1.4566   1.4566   1.4590
     1.4592   1.4592   2.2403   2.4948   2.4949   2.5859   2.5955   2.5988
     2.8014

          k = 0.0000-0.5774 0.0000 (131762 PWs)   bands (ev):

   -20.9591 -20.9569 -20.4904 -20.4889 -19.5633 -19.5610 -19.5610 -19.5602
   -19.1017 -19.1013 -18.1963 -18.1959 -18.1941 -18.1940 -16.8787 -16.8783
   -16.8772 -16.8771 -16.4728 -16.4725 -16.4721 -16.4716 -15.9879 -15.2613
   -15.2608 -14.9209 -14.0573 -14.0561 -14.0558 -14.0551 -13.5849 -13.5845
   -12.6516 -12.6509 -12.6506 -12.6501 -11.8547 -11.8541 -11.6952 -11.6951
   -11.6948 -11.6945 -10.4758 -10.4755 -10.2481 -10.2475 -10.2460 -10.2459
    -9.2039  -9.2037  -9.2037  -9.2033  -9.0783  -9.0419  -8.8321  -8.8320
    -8.8309  -8.8304  -8.5320  -8.4831  -8.3572  -8.3565  -8.3564  -8.3557
    -8.1639  -7.9173  -7.4443  -7.4440  -7.4437  -7.4436  -7.3907  -7.3904
    -7.3886  -7.3199  -7.2671  -7.2661  -7.0597  -7.0592  -6.8655  -6.8474
    -6.2127  -6.2122  -5.8475  -5.8428  -5.8422  -5.8348  -5.7207  -5.7193
    -5.2807  -5.2794  -4.4071  -4.4018  -4.4014  -4.4004  -4.2023  -4.2001
    -4.1974  -4.1969  -4.0529  -2.7189  -2.7164  -0.6819  -0.6805  -0.0296
     0.3510   0.3567   0.3583   0.3593   1.0029   1.0051   1.0062   1.0072
     1.6178   1.7121   2.2243   2.3233   2.5385   2.5654   2.6228   2.6239
     2.6260

          k = 0.5000-0.2887 0.0000 (131762 PWs)   bands (ev):

   -20.9592 -20.9569 -20.4904 -20.4889 -19.5633 -19.5610 -19.5610 -19.5602
   -19.1018 -19.1013 -18.1963 -18.1959 -18.1941 -18.1939 -16.8787 -16.8783
   -16.8772 -16.8771 -16.4728 -16.4725 -16.4721 -16.4716 -15.9879 -15.2613
   -15.2608 -14.9209 -14.0573 -14.0561 -14.0558 -14.0551 -13.5849 -13.5845
   -12.6516 -12.6509 -12.6506 -12.6501 -11.8547 -11.8541 -11.6952 -11.6952
   -11.6947 -11.6945 -10.4758 -10.4755 -10.2481 -10.2475 -10.2460 -10.2458
    -9.2039  -9.2037  -9.2037  -9.2033  -9.0783  -9.0419  -8.8320  -8.8320
    -8.8309  -8.8304  -8.5320  -8.4831  -8.3572  -8.3565  -8.3564  -8.3557
    -8.1639  -7.9173  -7.4443  -7.4440  -7.4437  -7.4436  -7.3907  -7.3904
    -7.3886  -7.3199  -7.2671  -7.2661  -7.0597  -7.0592  -6.8655  -6.8474
    -6.2127  -6.2122  -5.8475  -5.8428  -5.8422  -5.8348  -5.7207  -5.7193
    -5.2808  -5.2794  -4.4071  -4.4018  -4.4014  -4.4004  -4.2023  -4.2000
    -4.1974  -4.1969  -4.0529  -2.7189  -2.7164  -0.6819  -0.6805  -0.0296
     0.3511   0.3567   0.3583   0.3593   1.0029   1.0051   1.0062   1.0072
     1.6178   1.7121   2.2243   2.3233   2.5383   2.5654   2.6228   2.6239
     2.6260

     the Fermi energy is    -1.6806 ev

!    total energy              =    -625.66263139 Ry
     Harris-Foulkes estimate   =    -625.66263183 Ry
     estimated scf accuracy    <       0.00000023 Ry

     The total energy is the sum of the following terms:

     one-electron contribution =   -3938.26002282 Ry
     hartree contribution      =    2006.02297599 Ry
     xc contribution           =    -235.30452323 Ry
     ewald contribution        =    1541.87893867 Ry
     smearing contrib. (-TS)   =       0.00000000 Ry

     convergence has been achieved in   9 iterations

     Writing output data file gr-12-sixhollow.save/

     init_run     :    134.85s CPU    136.35s WALL (       1 calls)
     electrons    :   1870.06s CPU   1887.30s WALL (       1 calls)

     Called by init_run:
     wfcinit      :     89.27s CPU     89.88s WALL (       1 calls)
     potinit      :     22.25s CPU     22.79s WALL (       1 calls)
     hinit0       :     17.93s CPU     17.96s WALL (       1 calls)

     Called by electrons:
     c_bands      :   1522.71s CPU   1530.47s WALL (       9 calls)
     sum_band     :    217.00s CPU    220.12s WALL (       9 calls)
     v_of_rho     :     94.46s CPU     99.16s WALL (      10 calls)
     newd         :     46.09s CPU     48.42s WALL (      10 calls)
     mix_rho      :      2.20s CPU      2.25s WALL (       9 calls)

     Called by c_bands:
     init_us_2    :      3.43s CPU      3.50s WALL (      57 calls)
     cegterg      :   1514.27s CPU   1522.01s WALL (      27 calls)

     Called by sum_band:
     sum_band:bec :      0.02s CPU      0.02s WALL (      27 calls)
     addusdens    :     63.45s CPU     65.68s WALL (       9 calls)

     Called by *egterg:
     h_psi        :    838.63s CPU    844.51s WALL (     205 calls)
     s_psi        :    246.20s CPU    246.21s WALL (     205 calls)
     g_psi        :      1.09s CPU      1.09s WALL (     175 calls)
     cdiaghg      :     18.04s CPU     18.04s WALL (     202 calls)

     Called by h_psi:
     h_psi:pot    :    837.54s CPU    842.50s WALL (     205 calls)
     h_psi:calbec :    250.24s CPU    250.25s WALL (     205 calls)
     vloc_psi     :    340.43s CPU    345.40s WALL (     205 calls)
     add_vuspsi   :    246.87s CPU    246.85s WALL (     205 calls)

     General routines
     calbec       :    333.78s CPU    333.78s WALL (     232 calls)
     fft          :     52.03s CPU     53.68s WALL (     628 calls)
     ffts         :      0.62s CPU      0.64s WALL (      19 calls)
     fftw         :    341.77s CPU    346.78s WALL (   22787 calls)
     interpolate  :      1.30s CPU      1.33s WALL (      10 calls)

     Parallel routines
     fft_scatt_xy :     88.63s CPU     88.88s WALL (   23434 calls)
     fft_scatt_yz :    107.90s CPU    113.02s WALL (   23434 calls)

     PWSCF        :  33m25.71s CPU  33m45.03s WALL


   This run was terminated on:   9:42: 4  19Jun2022            

=------------------------------------------------------------------------------=
   JOB DONE.
=------------------------------------------------------------------------------=
