
     Program PWSCF v.6.4.1 starts on  1Aug2022 at  3: 7: 8 

     This program is part of the open-source Quantum ESPRESSO suite
     for quantum simulation of materials; please cite
         "P. Giannozzi et al., J. Phys.:Condens. Matter 21 395502 (2009);
         "P. Giannozzi et al., J. Phys.:Condens. Matter 29 465901 (2017);
          URL http://www.quantum-espresso.org", 
     in publications or presentations arising from this work. More details at
     http://www.quantum-espresso.org/quote

     Parallel version (MPI), running on     6 processors

     MPI processes distributed on     1 nodes
     R & G space division:  proc/nbgrp/npool/nimage =       6
     Reading input from mn-90.in

     Current dimensions of program PWSCF are:
     Max number of different atomic species (ntypx) = 10
     Max number of k-points (npk) =  40000
     Max angular momentum in pseudopotentials (lmaxx) =  3
               file Mn.pbe-spn-rrkjus_psl.0.3.1.UPF: wavefunction(s)  3D renormalized

     Subspace diagonalization in iterative solution of the eigenvalue problem:
     a serial algorithm will be used

     Message from routine setup:
     DEPRECATED: symmetry with ibrav=0, use correct ibrav instead

     Parallelization info
     --------------------
     sticks:   dense  smooth     PW     G-vecs:    dense   smooth      PW
     Min         956     956    272                45857    45857    6983
     Max         957     957    273                45858    45858    6985
     Sum        5737    5737   1637               275147   275147   41907



     bravais-lattice index     =            0
     lattice parameter (alat)  =      14.5833  a.u.
     unit-cell volume          =    2387.5141 (a.u.)^3
     number of atoms/cell      =           29
     number of atomic types    =            1
     number of electrons       =       435.00
     number of Kohn-Sham states=          262
     kinetic-energy cutoff     =      90.0000  Ry
     charge density cutoff     =     360.0000  Ry
     convergence threshold     =      1.0E-06
     mixing beta               =       0.7000
     number of iterations used =            8  plain     mixing
     Exchange-correlation      = PBE ( 1  4  3  4 0 0)

     celldm(1)=  14.583305  celldm(2)=   0.000000  celldm(3)=   0.000000
     celldm(4)=   0.000000  celldm(5)=   0.000000  celldm(6)=   0.000000

     crystal axes: (cart. coord. in units of alat)
               a(1) = (  -0.577350   0.577350   0.577350 )  
               a(2) = (   0.577350  -0.577350   0.577350 )  
               a(3) = (   0.577350   0.577350  -0.577350 )  

     reciprocal axes: (cart. coord. in units 2 pi/alat)
               b(1) = (  0.000000  0.866025  0.866025 )  
               b(2) = (  0.866025  0.000000  0.866025 )  
               b(3) = (  0.866025  0.866025  0.000000 )  


     PseudoPot. # 1 for Mn read from file:
     /home/cristian/Escritorio/Proyecto_Grafeno/pseudopotenciales/Mn.pbe-spn-rrkjus_psl.0.3.1.UPF
     MD5 check sum: e1cac159bdd2ba70c18e85765a5d4279
     Pseudo is Ultrasoft + core correction, Zval = 15.0
     Generated using "atomic" code by A. Dal Corso v.6.2.2
     Using radial grid of 1187 points,  6 beta functions with: 
                l(1) =   0
                l(2) =   0
                l(3) =   1
                l(4) =   1
                l(5) =   2
                l(6) =   2
     Q(r) pseudized with 0 coefficients 


     atomic species   valence    mass     pseudopotential
        Mn            15.00    54.93804     Mn( 1.00)

     Starting magnetic structure 
     atomic species   magnetization
        Mn           0.700

     24 Sym. Ops. (no inversion) found



   Cartesian axes

     site n.     atom                  positions (alat units)
         1           Mn  tau(   1) = (   0.0000000   0.0000000   0.0000000  )
         2           Mn  tau(   2) = (   0.3670447   0.3670447   0.3670447  )
         3           Mn  tau(   3) = (   0.2103056   0.2103056  -0.2103056  )
         4           Mn  tau(   4) = (   0.2103056  -0.2103056   0.2103056  )
         5           Mn  tau(   5) = (  -0.2103056   0.2103056   0.2103056  )
         6           Mn  tau(   6) = (   0.4739122   0.4739122  -0.2517940  )
         7           Mn  tau(   7) = (   0.1034381   0.1034381   0.3255563  )
         8           Mn  tau(   8) = (   0.1034381  -0.1034381   0.8291443  )
         9           Mn  tau(   9) = (  -0.1034381   0.1034381   0.8291443  )
        10           Mn  tau(  10) = (  -0.2517940   0.4739122   0.4739122  )
        11           Mn  tau(  11) = (   0.3255563   0.1034381   0.1034381  )
        12           Mn  tau(  12) = (   0.8291443   0.1034381  -0.1034381  )
        13           Mn  tau(  13) = (   0.8291443  -0.1034381   0.1034381  )
        14           Mn  tau(  14) = (   0.4739122  -0.2517940   0.4739122  )
        15           Mn  tau(  15) = (   0.1034381   0.3255563   0.1034381  )
        16           Mn  tau(  16) = (  -0.1034381   0.8291443   0.1034381  )
        17           Mn  tau(  17) = (   0.1034381   0.8291443  -0.1034381  )
        18           Mn  tau(  18) = (   0.1650529   0.1650529   0.6172683  )
        19           Mn  tau(  19) = (   0.4122974   0.4122974   0.0399180  )
        20           Mn  tau(  20) = (  -0.1650529   0.1650529   0.5374323  )
        21           Mn  tau(  21) = (   0.1650529  -0.1650529   0.5374323  )
        22           Mn  tau(  22) = (   0.6172683   0.1650529   0.1650529  )
        23           Mn  tau(  23) = (   0.0399180   0.4122974   0.4122974  )
        24           Mn  tau(  24) = (   0.5374323  -0.1650529   0.1650529  )
        25           Mn  tau(  25) = (   0.5374323   0.1650529  -0.1650529  )
        26           Mn  tau(  26) = (   0.1650529   0.6172683   0.1650529  )
        27           Mn  tau(  27) = (   0.4122974   0.0399180   0.4122974  )
        28           Mn  tau(  28) = (   0.1650529   0.5374323  -0.1650529  )
        29           Mn  tau(  29) = (  -0.1650529   0.5374323   0.1650529  )

     number of k points=     8  Methfessel-Paxton smearing, width (Ry)=  0.0300
                       cart. coord. in units 2pi/alat
        k(    1) = (   0.0000000   0.0000000   0.0000000), wk =   0.0156250
        k(    2) = (   0.2165064   0.2165064   0.0000000), wk =   0.1875000
        k(    3) = (  -0.4330127  -0.4330127   0.0000000), wk =   0.0937500
        k(    4) = (   0.4330127   0.2165064   0.2165064), wk =   0.3750000
        k(    5) = (   0.4330127   0.4330127   0.4330127), wk =   0.0312500
        k(    6) = (   0.0000000   0.0000000   0.4330127), wk =   0.0937500
        k(    7) = (  -0.8660254  -0.2165064  -0.2165064), wk =   0.1875000
        k(    8) = (  -0.8660254  -0.8660254  -0.8660254), wk =   0.0156250

     Dense  grid:   275147 G-vectors     FFT dimensions: (  90,  90,  90)

     Estimated max dynamical RAM per process >     812.76 MB

     Estimated total dynamical RAM >       4.76 GB
     Generating pointlists ...
     new r_m :   0.1207 (alat units)  1.7600 (a.u.) for type    1

     Check: negative core charge=   -0.000053

     Initial potential from superposition of free atoms

     starting charge  434.98555, renormalised to  435.00000
     Starting wfcs are  290 randomized atomic wfcs

     total cpu time spent up to now is      261.1 secs

     Self-consistent Calculation

     iteration #  1     ecut=    90.00 Ry     beta= 0.70
     Davidson diagonalization with overlap
     ethr =  1.00E-02,  avg # of iterations =  3.1

     total cpu time spent up to now is     1046.2 secs

     total energy              =   -6195.46527373 Ry
     Harris-Foulkes estimate   =   -6169.31434585 Ry
     estimated scf accuracy    <      36.49073670 Ry

     total magnetization       =    89.00 Bohr mag/cell
     absolute magnetization    =    95.85 Bohr mag/cell

     iteration #  2     ecut=    90.00 Ry     beta= 0.70
     Davidson diagonalization with overlap
     ethr =  8.39E-03,  avg # of iterations =  3.8

     total cpu time spent up to now is     1699.3 secs

     total energy              =   -6181.74663851 Ry
     Harris-Foulkes estimate   =   -6199.53900778 Ry
     estimated scf accuracy    <      45.57311650 Ry

     total magnetization       =    86.34 Bohr mag/cell
     absolute magnetization    =    89.88 Bohr mag/cell

     iteration #  3     ecut=    90.00 Ry     beta= 0.70
     Davidson diagonalization with overlap
     ethr =  8.39E-03,  avg # of iterations =  6.1

     total cpu time spent up to now is     2614.6 secs

     total energy              =   -6198.39449938 Ry
     Harris-Foulkes estimate   =   -6222.63650515 Ry
     estimated scf accuracy    <     165.06564057 Ry

     total magnetization       =    62.85 Bohr mag/cell
     absolute magnetization    =    66.46 Bohr mag/cell

     iteration #  4     ecut=    90.00 Ry     beta= 0.70
     Davidson diagonalization with overlap
     ethr =  8.39E-03,  avg # of iterations =  4.2

     total cpu time spent up to now is     3351.6 secs

     total energy              =   -6197.34461938 Ry
     Harris-Foulkes estimate   =   -6204.98920696 Ry
     estimated scf accuracy    <      86.09230514 Ry

     total magnetization       =    42.22 Bohr mag/cell
     absolute magnetization    =    47.86 Bohr mag/cell

     iteration #  5     ecut=    90.00 Ry     beta= 0.70
     Davidson diagonalization with overlap
     ethr =  8.39E-03,  avg # of iterations =  2.4

     total cpu time spent up to now is     3973.2 secs

     total energy              =   -6199.06413672 Ry
     Harris-Foulkes estimate   =   -6203.54748970 Ry
     estimated scf accuracy    <      72.82514469 Ry

     total magnetization       =    37.39 Bohr mag/cell
     absolute magnetization    =    46.87 Bohr mag/cell

     iteration #  6     ecut=    90.00 Ry     beta= 0.70
     Davidson diagonalization with overlap
     ethr =  8.39E-03,  avg # of iterations =  1.2

     total cpu time spent up to now is     4567.6 secs

     total energy              =   -6199.33705941 Ry
     Harris-Foulkes estimate   =   -6200.35996097 Ry
     estimated scf accuracy    <      28.15101697 Ry

     total magnetization       =    43.77 Bohr mag/cell
     absolute magnetization    =    53.34 Bohr mag/cell

     iteration #  7     ecut=    90.00 Ry     beta= 0.70
     Davidson diagonalization with overlap
     ethr =  6.47E-03,  avg # of iterations =  2.2

     total cpu time spent up to now is     5176.7 secs

     total energy              =   -6196.89730111 Ry
     Harris-Foulkes estimate   =   -6199.85528961 Ry
     estimated scf accuracy    <      19.30968722 Ry

     total magnetization       =    42.70 Bohr mag/cell
     absolute magnetization    =    53.82 Bohr mag/cell

     iteration #  8     ecut=    90.00 Ry     beta= 0.70
     Davidson diagonalization with overlap
     ethr =  4.44E-03,  avg # of iterations =  4.2

     total cpu time spent up to now is     6066.8 secs

     total energy              =   -6202.20816872 Ry
     Harris-Foulkes estimate   =   -6204.44399283 Ry
     estimated scf accuracy    <      63.22852971 Ry

     total magnetization       =    39.07 Bohr mag/cell
     absolute magnetization    =    41.18 Bohr mag/cell

     iteration #  9     ecut=    90.00 Ry     beta= 0.70
     Davidson diagonalization with overlap
     ethr =  4.44E-03,  avg # of iterations =  1.4

     total cpu time spent up to now is     6661.3 secs

     total energy              =   -6200.89950931 Ry
     Harris-Foulkes estimate   =   -6202.52082025 Ry
     estimated scf accuracy    <      37.22806507 Ry

     total magnetization       =    32.71 Bohr mag/cell
     absolute magnetization    =    37.52 Bohr mag/cell

     iteration # 10     ecut=    90.00 Ry     beta= 0.70
     Davidson diagonalization with overlap
     ethr =  4.44E-03,  avg # of iterations =  1.0

     total cpu time spent up to now is     7250.9 secs

     total energy              =   -6201.58480462 Ry
     Harris-Foulkes estimate   =   -6201.20548388 Ry
     estimated scf accuracy    <      13.32143240 Ry

     total magnetization       =    29.66 Bohr mag/cell
     absolute magnetization    =    38.45 Bohr mag/cell

     iteration # 11     ecut=    90.00 Ry     beta= 0.70
     Davidson diagonalization with overlap
     ethr =  3.06E-03,  avg # of iterations =  1.0

     total cpu time spent up to now is     7840.6 secs

     total energy              =   -6201.23057182 Ry
     Harris-Foulkes estimate   =   -6201.70315236 Ry
     estimated scf accuracy    <      24.53429100 Ry

     total magnetization       =    28.68 Bohr mag/cell
     absolute magnetization    =    36.55 Bohr mag/cell

     iteration # 12     ecut=    90.00 Ry     beta= 0.70
     Davidson diagonalization with overlap
     ethr =  3.06E-03,  avg # of iterations =  1.0

     total cpu time spent up to now is     8429.7 secs

     total energy              =   -6199.51513558 Ry
     Harris-Foulkes estimate   =   -6201.30951807 Ry
     estimated scf accuracy    <      14.88262783 Ry

     total magnetization       =    26.73 Bohr mag/cell
     absolute magnetization    =    36.66 Bohr mag/cell

     iteration # 13     ecut=    90.00 Ry     beta= 0.70
     Davidson diagonalization with overlap
     ethr =  3.06E-03,  avg # of iterations =  5.9

     total cpu time spent up to now is     9077.8 secs

     total energy              =   -6201.90018987 Ry
     Harris-Foulkes estimate   =   -6202.37214567 Ry
     estimated scf accuracy    <      18.07246537 Ry

     total magnetization       =    13.46 Bohr mag/cell
     absolute magnetization    =    34.20 Bohr mag/cell

     iteration # 14     ecut=    90.00 Ry     beta= 0.70
     Davidson diagonalization with overlap
     ethr =  3.06E-03,  avg # of iterations =  1.0

     total cpu time spent up to now is     9667.4 secs

     total energy              =   -6201.17146499 Ry
     Harris-Foulkes estimate   =   -6201.93218039 Ry
     estimated scf accuracy    <      15.70933776 Ry

     total magnetization       =    14.53 Bohr mag/cell
     absolute magnetization    =    34.27 Bohr mag/cell

     iteration # 15     ecut=    90.00 Ry     beta= 0.70
     Davidson diagonalization with overlap
     ethr =  3.06E-03,  avg # of iterations =  1.2

     total cpu time spent up to now is    10259.7 secs

     total energy              =   -6200.95521845 Ry
     Harris-Foulkes estimate   =   -6201.27415158 Ry
     estimated scf accuracy    <       9.19544397 Ry

     total magnetization       =    13.99 Bohr mag/cell
     absolute magnetization    =    34.18 Bohr mag/cell

     iteration # 16     ecut=    90.00 Ry     beta= 0.70
     Davidson diagonalization with overlap
     ethr =  2.11E-03,  avg # of iterations =  1.8

     total cpu time spent up to now is    10859.1 secs

     total energy              =   -6201.03960287 Ry
     Harris-Foulkes estimate   =   -6201.12350324 Ry
     estimated scf accuracy    <       1.66086387 Ry

     total magnetization       =     9.44 Bohr mag/cell
     absolute magnetization    =    33.80 Bohr mag/cell

     iteration # 17     ecut=    90.00 Ry     beta= 0.70
     Davidson diagonalization with overlap
     ethr =  3.82E-04,  avg # of iterations =  4.5

     total cpu time spent up to now is    11584.3 secs

     total energy              =   -6201.22591672 Ry
     Harris-Foulkes estimate   =   -6201.25106467 Ry
     estimated scf accuracy    <       2.66620749 Ry

     total magnetization       =    11.00 Bohr mag/cell
     absolute magnetization    =    32.37 Bohr mag/cell

     iteration # 18     ecut=    90.00 Ry     beta= 0.70
     Davidson diagonalization with overlap
     ethr =  3.82E-04,  avg # of iterations =  1.0

     total cpu time spent up to now is    12174.5 secs

     total energy              =   -6201.41939260 Ry
     Harris-Foulkes estimate   =   -6201.24578973 Ry
     estimated scf accuracy    <       3.24914438 Ry

     total magnetization       =    11.60 Bohr mag/cell
     absolute magnetization    =    32.24 Bohr mag/cell

     iteration # 19     ecut=    90.00 Ry     beta= 0.70
     Davidson diagonalization with overlap
     ethr =  3.82E-04,  avg # of iterations =  1.0

     total cpu time spent up to now is    12765.5 secs

     total energy              =   -6201.63020692 Ry
     Harris-Foulkes estimate   =   -6201.47293767 Ry
     estimated scf accuracy    <       7.92103184 Ry

     total magnetization       =     9.59 Bohr mag/cell
     absolute magnetization    =    31.69 Bohr mag/cell

     iteration # 20     ecut=    90.00 Ry     beta= 0.70
     Davidson diagonalization with overlap
     ethr =  3.82E-04,  avg # of iterations =  1.0

     total cpu time spent up to now is    13357.1 secs

     total energy              =   -6201.54832385 Ry
     Harris-Foulkes estimate   =   -6201.65147487 Ry
     estimated scf accuracy    <       9.71980080 Ry

     total magnetization       =     7.83 Bohr mag/cell
     absolute magnetization    =    31.61 Bohr mag/cell

     iteration # 21     ecut=    90.00 Ry     beta= 0.70
     Davidson diagonalization with overlap
     ethr =  3.82E-04,  avg # of iterations =  1.2

     total cpu time spent up to now is    13949.5 secs

     total energy              =   -6201.33949981 Ry
     Harris-Foulkes estimate   =   -6201.63079097 Ry
     estimated scf accuracy    <       8.50191012 Ry

     total magnetization       =     1.15 Bohr mag/cell
     absolute magnetization    =    32.78 Bohr mag/cell

     iteration # 22     ecut=    90.00 Ry     beta= 0.70
     Davidson diagonalization with overlap
     ethr =  3.82E-04,  avg # of iterations =  1.0

     total cpu time spent up to now is    14540.7 secs

     total energy              =   -6201.24099701 Ry
     Harris-Foulkes estimate   =   -6201.38936745 Ry
     estimated scf accuracy    <       3.97270308 Ry

     total magnetization       =     0.94 Bohr mag/cell
     absolute magnetization    =    33.11 Bohr mag/cell

     iteration # 23     ecut=    90.00 Ry     beta= 0.70
     Davidson diagonalization with overlap
     ethr =  3.82E-04,  avg # of iterations =  1.0

     total cpu time spent up to now is    15131.7 secs

     total energy              =   -6201.28234184 Ry
     Harris-Foulkes estimate   =   -6201.29739736 Ry
     estimated scf accuracy    <       0.24922947 Ry

     total magnetization       =     0.80 Bohr mag/cell
     absolute magnetization    =    33.13 Bohr mag/cell

     iteration # 24     ecut=    90.00 Ry     beta= 0.70
     Davidson diagonalization with overlap
     ethr =  5.73E-05,  avg # of iterations =  4.0

     total cpu time spent up to now is    15775.1 secs

     total energy              =   -6201.28768191 Ry
     Harris-Foulkes estimate   =   -6201.29861589 Ry
     estimated scf accuracy    <       0.02436256 Ry

     total magnetization       =    -1.06 Bohr mag/cell
     absolute magnetization    =    34.30 Bohr mag/cell

     iteration # 25     ecut=    90.00 Ry     beta= 0.70
     Davidson diagonalization with overlap
     ethr =  5.60E-06,  avg # of iterations =  5.9

     total cpu time spent up to now is    17018.4 secs

     total energy              =   -6201.27924887 Ry
     Harris-Foulkes estimate   =   -6201.34166725 Ry
     estimated scf accuracy    <       1.54769529 Ry

     total magnetization       =    -4.05 Bohr mag/cell
     absolute magnetization    =    36.05 Bohr mag/cell

     iteration # 26     ecut=    90.00 Ry     beta= 0.70
     Davidson diagonalization with overlap
     ethr =  5.60E-06,  avg # of iterations =  5.7

     total cpu time spent up to now is    17829.6 secs

     total energy              =   -6201.31321214 Ry
     Harris-Foulkes estimate   =   -6201.31359732 Ry
     estimated scf accuracy    <       0.02396134 Ry

     total magnetization       =    -4.37 Bohr mag/cell
     absolute magnetization    =    36.30 Bohr mag/cell

     iteration # 27     ecut=    90.00 Ry     beta= 0.70
     Davidson diagonalization with overlap
     ethr =  5.51E-06,  avg # of iterations =  1.2

     total cpu time spent up to now is    18421.8 secs

     total energy              =   -6201.31601097 Ry
     Harris-Foulkes estimate   =   -6201.31525142 Ry
     estimated scf accuracy    <       0.00757473 Ry

     total magnetization       =    -5.32 Bohr mag/cell
     absolute magnetization    =    37.04 Bohr mag/cell

     iteration # 28     ecut=    90.00 Ry     beta= 0.70
     Davidson diagonalization with overlap
     c_bands:  1 eigenvalues not converged
     ethr =  1.74E-06,  avg # of iterations =  6.2

     total cpu time spent up to now is    19147.2 secs

     total energy              =   -6201.31848187 Ry
     Harris-Foulkes estimate   =   -6201.31734211 Ry
     estimated scf accuracy    <       0.03013627 Ry

     total magnetization       =    -5.36 Bohr mag/cell
     absolute magnetization    =    37.66 Bohr mag/cell

     iteration # 29     ecut=    90.00 Ry     beta= 0.70
     Davidson diagonalization with overlap
     ethr =  1.74E-06,  avg # of iterations =  1.2

     total cpu time spent up to now is    19739.5 secs

     total energy              =   -6201.32051729 Ry
     Harris-Foulkes estimate   =   -6201.31888966 Ry
     estimated scf accuracy    <       0.07554850 Ry

     total magnetization       =    -5.48 Bohr mag/cell
     absolute magnetization    =    37.89 Bohr mag/cell

     iteration # 30     ecut=    90.00 Ry     beta= 0.70
     Davidson diagonalization with overlap
     ethr =  1.74E-06,  avg # of iterations =  2.5

     total cpu time spent up to now is    20344.5 secs

     total energy              =   -6201.31234197 Ry
     Harris-Foulkes estimate   =   -6201.32100208 Ry
     estimated scf accuracy    <       0.16315511 Ry

     total magnetization       =    -5.64 Bohr mag/cell
     absolute magnetization    =    38.00 Bohr mag/cell

     iteration # 31     ecut=    90.00 Ry     beta= 0.70
     Davidson diagonalization with overlap
     ethr =  1.74E-06,  avg # of iterations =  3.2

     total cpu time spent up to now is    20994.7 secs

     total energy              =   -6201.31512261 Ry
     Harris-Foulkes estimate   =   -6201.31634215 Ry
     estimated scf accuracy    <       0.00315851 Ry

     total magnetization       =    -5.68 Bohr mag/cell
     absolute magnetization    =    37.55 Bohr mag/cell

     iteration # 32     ecut=    90.00 Ry     beta= 0.70
     Davidson diagonalization with overlap
     ethr =  7.26E-07,  avg # of iterations =  4.1

     total cpu time spent up to now is    21629.2 secs

     total energy              =   -6201.31426200 Ry
     Harris-Foulkes estimate   =   -6201.31593857 Ry
     estimated scf accuracy    <       0.00716169 Ry

     total magnetization       =    -5.21 Bohr mag/cell
     absolute magnetization    =    37.24 Bohr mag/cell

     iteration # 33     ecut=    90.00 Ry     beta= 0.70
     Davidson diagonalization with overlap
     ethr =  7.26E-07,  avg # of iterations =  4.2

     total cpu time spent up to now is    22273.3 secs

     total energy              =   -6201.31491428 Ry
     Harris-Foulkes estimate   =   -6201.31504087 Ry
     estimated scf accuracy    <       0.00232344 Ry

     total magnetization       =    -5.11 Bohr mag/cell
     absolute magnetization    =    36.89 Bohr mag/cell

     iteration # 34     ecut=    90.00 Ry     beta= 0.70
     Davidson diagonalization with overlap
     ethr =  5.34E-07,  avg # of iterations =  3.4

     total cpu time spent up to now is    22904.9 secs

     total energy              =   -6201.31539489 Ry
     Harris-Foulkes estimate   =   -6201.31540262 Ry
     estimated scf accuracy    <       0.00066306 Ry

     total magnetization       =    -4.94 Bohr mag/cell
     absolute magnetization    =    37.15 Bohr mag/cell

     iteration # 35     ecut=    90.00 Ry     beta= 0.70
     Davidson diagonalization with overlap
     ethr =  1.52E-07,  avg # of iterations =  5.6

     total cpu time spent up to now is    23850.3 secs

     total energy              =   -6201.31586655 Ry
     Harris-Foulkes estimate   =   -6201.31579399 Ry
     estimated scf accuracy    <       0.00043185 Ry

     total magnetization       =    -5.11 Bohr mag/cell
     absolute magnetization    =    37.60 Bohr mag/cell

     iteration # 36     ecut=    90.00 Ry     beta= 0.70
     Davidson diagonalization with overlap
     ethr =  9.93E-08,  avg # of iterations =  4.2

     total cpu time spent up to now is    24738.4 secs

     total energy              =   -6201.31612712 Ry
     Harris-Foulkes estimate   =   -6201.31616255 Ry
     estimated scf accuracy    <       0.00073465 Ry

     total magnetization       =    -5.11 Bohr mag/cell
     absolute magnetization    =    38.08 Bohr mag/cell

     iteration # 37     ecut=    90.00 Ry     beta= 0.70
     Davidson diagonalization with overlap
     ethr =  9.93E-08,  avg # of iterations =  3.9

     total cpu time spent up to now is    25381.0 secs

     total energy              =   -6201.31590003 Ry
     Harris-Foulkes estimate   =   -6201.31626856 Ry
     estimated scf accuracy    <       0.00031434 Ry

     total magnetization       =    -5.07 Bohr mag/cell
     absolute magnetization    =    38.30 Bohr mag/cell

     iteration # 38     ecut=    90.00 Ry     beta= 0.70
     Davidson diagonalization with overlap
     ethr =  7.23E-08,  avg # of iterations =  4.9
