
     Program PWSCF v.6.4.1 starts on 11Aug2022 at  1:34:30 

     This program is part of the open-source Quantum ESPRESSO suite
     for quantum simulation of materials; please cite
         "P. Giannozzi et al., J. Phys.:Condens. Matter 21 395502 (2009);
         "P. Giannozzi et al., J. Phys.:Condens. Matter 29 465901 (2017);
          URL http://www.quantum-espresso.org", 
     in publications or presentations arising from this work. More details at
     http://www.quantum-espresso.org/quote

     Parallel version (MPI), running on     6 processors

     MPI processes distributed on     1 nodes
     R & G space division:  proc/nbgrp/npool/nimage =       6
     Reading input from distance-5.0.in

     Current dimensions of program PWSCF are:
     Max number of different atomic species (ntypx) = 10
     Max number of k-points (npk) =  40000
     Max angular momentum in pseudopotentials (lmaxx) =  3

     IMPORTANT: XC functional enforced from input :
     Exchange-correlation      = RVV10 ( 1  4 13  4 3 0)
     Any further DFT definition will be discarded
     Please, verify this is what you really want

               file H.pbe-rrkjus.UPF: wavefunction(s)  1S renormalized
               file Mn.pbe-spn-rrkjus_psl.0.3.1.UPF: wavefunction(s)  3D renormalized

     Subspace diagonalization in iterative solution of the eigenvalue problem:
     a serial algorithm will be used


     Parallelization info
     --------------------
     sticks:   dense  smooth     PW     G-vecs:    dense   smooth      PW
     Min        3051    1746    432               270999   117096   14629
     Max        3053    1747    437               271001   117099   14630
     Sum       18313   10477   2611              1626001   702581   87777



     bravais-lattice index     =            4
     lattice parameter (alat)  =      23.2937  a.u.
     unit-cell volume          =    8879.8548 (a.u.)^3
     number of atoms/cell      =           52
     number of atomic types    =            3
     number of electrons       =       213.00
     number of Kohn-Sham states=          128
     kinetic-energy cutoff     =      70.0000  Ry
     charge density cutoff     =     490.0000  Ry
     convergence threshold     =      1.0E-06
     mixing beta               =       0.7000
     number of iterations used =            8  plain     mixing
     Exchange-correlation      = RVV10 ( 1  4 13  4 3 0)

     celldm(1)=  23.293684  celldm(2)=   0.000000  celldm(3)=   0.811261
     celldm(4)=   0.000000  celldm(5)=   0.000000  celldm(6)=   0.000000

     crystal axes: (cart. coord. in units of alat)
               a(1) = (   1.000000   0.000000   0.000000 )  
               a(2) = (  -0.500000   0.866025   0.000000 )  
               a(3) = (   0.000000   0.000000   0.811261 )  

     reciprocal axes: (cart. coord. in units 2 pi/alat)
               b(1) = (  1.000000  0.577350 -0.000000 )  
               b(2) = (  0.000000  1.154701  0.000000 )  
               b(3) = (  0.000000 -0.000000  1.232649 )  


     PseudoPot. # 1 for H  read from file:
     /home/cristian/Escritorio/Proyecto_Grafeno/pseudopotenciales/H.pbe-rrkjus.UPF
     MD5 check sum: 7cc9d459525c9a0585f487a71c3c9563
     Pseudo is Ultrasoft, Zval =  1.0
     Generated by new atomic code, or converted to UPF format
     Using radial grid of 1061 points,  2 beta functions with: 
                l(1) =   0
                l(2) =   0
     Q(r) pseudized with 0 coefficients 


     PseudoPot. # 2 for C  read from file:
     /home/cristian/Escritorio/Proyecto_Grafeno/pseudopotenciales/C.pbe-n-rrkjus_psl.1.0.0.UPF
     MD5 check sum: 1fdd950c42eb37d8afe3dd2f8d12311e
     Pseudo is Ultrasoft + core correction, Zval =  4.0
     Generated using "atomic" code by A. Dal Corso v.6.3MaX
     Using radial grid of 1073 points,  4 beta functions with: 
                l(1) =   0
                l(2) =   0
                l(3) =   1
                l(4) =   1
     Q(r) pseudized with 0 coefficients 


     PseudoPot. # 3 for Mn read from file:
     /home/cristian/Escritorio/Proyecto_Grafeno/pseudopotenciales/Mn.pbe-spn-rrkjus_psl.0.3.1.UPF
     MD5 check sum: e1cac159bdd2ba70c18e85765a5d4279
     Pseudo is Ultrasoft + core correction, Zval = 15.0
     Generated using "atomic" code by A. Dal Corso v.6.2.2
     Using radial grid of 1187 points,  6 beta functions with: 
                l(1) =   0
                l(2) =   0
                l(3) =   1
                l(4) =   1
                l(5) =   2
                l(6) =   2
     Q(r) pseudized with 0 coefficients 


     vdW kernel table read from file rVV10_kernel_table
     MD5 check sum: b8e2538accc0c0b3206b45ba4daaba6c

     atomic species   valence    mass     pseudopotential
        H              1.00     1.00794     H ( 1.00)
        C              4.00    12.01070     C ( 1.00)
        Mn            15.00    54.93804     Mn( 1.00)

     Starting magnetic structure 
     atomic species   magnetization
        H            0.500
        C            0.300
        Mn           0.800

     No symmetry found


                                    s                        frac. trans.

      isym =  1     identity                                     

 cryst.   s( 1) = (     1          0          0      )
                  (     0          1          0      )
                  (     0          0          1      )

 cart.    s( 1) = (  1.0000000  0.0000000  0.0000000 )
                  (  0.0000000  1.0000000  0.0000000 )
                  (  0.0000000  0.0000000  1.0000000 )


     point group C_1 (1)    
     there are  1 classes
     the character table:

       E    
A      1.00

     the symmetry operations in each class and the name of the first element:

     E        1
          identity                                               

   Cartesian axes

     site n.     atom                  positions (alat units)
         1           H   tau(   1) = (   0.2666667   0.4618802   0.4056306  )
         2           H   tau(   2) = (   0.2666667   0.4618802   0.4666433  )
         3           C   tau(   3) = (   0.0000000   0.0000000   0.0000000  )
         4           C   tau(   4) = (   0.0000000   0.1154701   0.0000000  )
         5           C   tau(   5) = (  -0.1000000   0.1732051   0.0000000  )
         6           C   tau(   6) = (  -0.1000000   0.2886751   0.0000000  )
         7           C   tau(   7) = (  -0.2000000   0.3464102   0.0000000  )
         8           C   tau(   8) = (  -0.2000000   0.4618802   0.0000000  )
         9           C   tau(   9) = (  -0.3000000   0.5196152   0.0000000  )
        10           C   tau(  10) = (  -0.3000000   0.6350853   0.0000000  )
        11           C   tau(  11) = (  -0.4000000   0.6928203   0.0000000  )
        12           C   tau(  12) = (  -0.4000000   0.8082904   0.0000000  )
        13           C   tau(  13) = (   0.2000000   0.0000000   0.0000000  )
        14           C   tau(  14) = (   0.2000000   0.1154701   0.0000000  )
        15           C   tau(  15) = (   0.1000000   0.1732051   0.0000000  )
        16           C   tau(  16) = (   0.1000000   0.2886751   0.0000000  )
        17           C   tau(  17) = (   0.0000000   0.3464102   0.0000000  )
        18           C   tau(  18) = (   0.0000000   0.4618802   0.0000000  )
        19           C   tau(  19) = (  -0.1000000   0.5196152   0.0000000  )
        20           C   tau(  20) = (  -0.1000000   0.6350853   0.0000000  )
        21           C   tau(  21) = (  -0.2000000   0.6928203   0.0000000  )
        22           C   tau(  22) = (  -0.2000000   0.8082904   0.0000000  )
        23           C   tau(  23) = (   0.4000000   0.0000000   0.0000000  )
        24           C   tau(  24) = (   0.4000000   0.1154701   0.0000000  )
        25           C   tau(  25) = (   0.3000000   0.1732051   0.0000000  )
        26           C   tau(  26) = (   0.3000000   0.2886751   0.0000000  )
        27           C   tau(  27) = (   0.2000000   0.3464102   0.0000000  )
        28           Mn  tau(  28) = (   0.2000000   0.4618802   0.0000000  )
        29           C   tau(  29) = (   0.1000000   0.5196152   0.0000000  )
        30           C   tau(  30) = (   0.1000000   0.6350853   0.0000000  )
        31           C   tau(  31) = (   0.0000000   0.6928203   0.0000000  )
        32           C   tau(  32) = (   0.0000000   0.8082904   0.0000000  )
        33           C   tau(  33) = (   0.6000000   0.0000000   0.0000000  )
        34           C   tau(  34) = (   0.6000000   0.1154701   0.0000000  )
        35           C   tau(  35) = (   0.5000000   0.1732051   0.0000000  )
        36           C   tau(  36) = (   0.5000000   0.2886751   0.0000000  )
        37           C   tau(  37) = (   0.4000000   0.3464102   0.0000000  )
        38           C   tau(  38) = (   0.4000000   0.4618802   0.0000000  )
        39           C   tau(  39) = (   0.3000000   0.5196152   0.0000000  )
        40           C   tau(  40) = (   0.3000000   0.6350853   0.0000000  )
        41           C   tau(  41) = (   0.2000000   0.6928203   0.0000000  )
        42           C   tau(  42) = (   0.2000000   0.8082904   0.0000000  )
        43           C   tau(  43) = (   0.8000000   0.0000000   0.0000000  )
        44           C   tau(  44) = (   0.8000000   0.1154701   0.0000000  )
        45           C   tau(  45) = (   0.7000000   0.1732051   0.0000000  )
        46           C   tau(  46) = (   0.7000000   0.2886751   0.0000000  )
        47           C   tau(  47) = (   0.6000000   0.3464102   0.0000000  )
        48           C   tau(  48) = (   0.6000000   0.4618802   0.0000000  )
        49           C   tau(  49) = (   0.5000000   0.5196152   0.0000000  )
        50           C   tau(  50) = (   0.5000000   0.6350853   0.0000000  )
        51           C   tau(  51) = (   0.4000000   0.6928203   0.0000000  )
        52           C   tau(  52) = (   0.4000000   0.8082904   0.0000000  )

   Crystallographic axes

     site n.     atom                  positions (cryst. coord.)
         1           H   tau(   1) = (  0.5333333  0.5333333  0.5000000  )
         2           H   tau(   2) = (  0.5333333  0.5333333  0.5752072  )
         3           C   tau(   3) = (  0.0000000  0.0000000  0.0000000  )
         4           C   tau(   4) = (  0.0666667  0.1333333  0.0000000  )
         5           C   tau(   5) = (  0.0000000  0.2000000  0.0000000  )
         6           C   tau(   6) = (  0.0666667  0.3333333  0.0000000  )
         7           C   tau(   7) = (  0.0000000  0.4000000  0.0000000  )
         8           C   tau(   8) = (  0.0666667  0.5333333  0.0000000  )
         9           C   tau(   9) = (  0.0000000  0.6000000  0.0000000  )
        10           C   tau(  10) = (  0.0666667  0.7333333  0.0000000  )
        11           C   tau(  11) = (  0.0000000  0.8000000  0.0000000  )
        12           C   tau(  12) = (  0.0666667  0.9333333  0.0000000  )
        13           C   tau(  13) = (  0.2000000  0.0000000  0.0000000  )
        14           C   tau(  14) = (  0.2666667  0.1333333  0.0000000  )
        15           C   tau(  15) = (  0.2000000  0.2000000  0.0000000  )
        16           C   tau(  16) = (  0.2666667  0.3333333  0.0000000  )
        17           C   tau(  17) = (  0.2000000  0.4000000  0.0000000  )
        18           C   tau(  18) = (  0.2666667  0.5333333  0.0000000  )
        19           C   tau(  19) = (  0.2000000  0.6000000  0.0000000  )
        20           C   tau(  20) = (  0.2666667  0.7333333  0.0000000  )
        21           C   tau(  21) = (  0.2000000  0.8000000  0.0000000  )
        22           C   tau(  22) = (  0.2666667  0.9333333  0.0000000  )
        23           C   tau(  23) = (  0.4000000  0.0000000  0.0000000  )
        24           C   tau(  24) = (  0.4666667  0.1333333  0.0000000  )
        25           C   tau(  25) = (  0.4000000  0.2000000  0.0000000  )
        26           C   tau(  26) = (  0.4666667  0.3333333  0.0000000  )
        27           C   tau(  27) = (  0.4000000  0.4000000  0.0000000  )
        28           Mn  tau(  28) = (  0.4666667  0.5333333  0.0000000  )
        29           C   tau(  29) = (  0.4000000  0.6000000  0.0000000  )
        30           C   tau(  30) = (  0.4666667  0.7333333  0.0000000  )
        31           C   tau(  31) = (  0.4000000  0.8000000  0.0000000  )
        32           C   tau(  32) = (  0.4666667  0.9333333  0.0000000  )
        33           C   tau(  33) = (  0.6000000  0.0000000  0.0000000  )
        34           C   tau(  34) = (  0.6666667  0.1333333  0.0000000  )
        35           C   tau(  35) = (  0.6000000  0.2000000  0.0000000  )
        36           C   tau(  36) = (  0.6666667  0.3333333  0.0000000  )
        37           C   tau(  37) = (  0.6000000  0.4000000  0.0000000  )
        38           C   tau(  38) = (  0.6666667  0.5333333  0.0000000  )
        39           C   tau(  39) = (  0.6000000  0.6000000  0.0000000  )
        40           C   tau(  40) = (  0.6666667  0.7333333  0.0000000  )
        41           C   tau(  41) = (  0.6000000  0.8000000  0.0000000  )
        42           C   tau(  42) = (  0.6666667  0.9333333  0.0000000  )
        43           C   tau(  43) = (  0.8000000  0.0000000  0.0000000  )
        44           C   tau(  44) = (  0.8666667  0.1333333  0.0000000  )
        45           C   tau(  45) = (  0.8000000  0.2000000  0.0000000  )
        46           C   tau(  46) = (  0.8666667  0.3333333  0.0000000  )
        47           C   tau(  47) = (  0.8000000  0.4000000  0.0000000  )
        48           C   tau(  48) = (  0.8666667  0.5333333  0.0000000  )
        49           C   tau(  49) = (  0.8000000  0.6000000  0.0000000  )
        50           C   tau(  50) = (  0.8666667  0.7333333  0.0000000  )
        51           C   tau(  51) = (  0.8000000  0.8000000  0.0000000  )
        52           C   tau(  52) = (  0.8666667  0.9333333  0.0000000  )

     number of k points=     1  Marzari-Vanderbilt smearing, width (Ry)=  0.0010
                       cart. coord. in units 2pi/alat
        k(    1) = (   0.0000000   0.0000000   0.0000000), wk =   1.0000000

                       cryst. coord.
        k(    1) = (   0.0000000   0.0000000   0.0000000), wk =   1.0000000

     Dense  grid:  1626001 G-vectors     FFT dimensions: ( 180, 180, 135)

     Smooth grid:   702581 G-vectors     FFT dimensions: ( 125, 125, 108)

     Dynamical RAM for                 wfc:      28.59 MB

     Dynamical RAM for     wfc (w. buffer):      85.76 MB

     Dynamical RAM for           str. fact:      12.41 MB

     Dynamical RAM for           local pot:       0.00 MB

     Dynamical RAM for          nlocal pot:      92.46 MB

     Dynamical RAM for                qrad:      19.73 MB

     Dynamical RAM for          rho,v,vnew:      58.92 MB

     Dynamical RAM for               rhoin:      19.64 MB

     Dynamical RAM for            rho*nmix:     132.32 MB

     Dynamical RAM for           G-vectors:      16.40 MB

     Dynamical RAM for          h,s,v(r/c):      12.00 MB

     Dynamical RAM for          <psi|beta>:       0.81 MB

     Dynamical RAM for                 psi:     114.35 MB

     Dynamical RAM for                hpsi:     114.35 MB

     Dynamical RAM for                spsi:     114.35 MB

     Dynamical RAM for      wfcinit/wfcrot:      93.90 MB

     Dynamical RAM for           addusdens:     975.89 MB

     Estimated static dynamical RAM per process >     488.30 MB

     Estimated max dynamical RAM per process >       1.43 GB

     Estimated total dynamical RAM >       8.58 GB
     Generating pointlists ...
     new r_m :   0.0252 (alat units)  0.5862 (a.u.) for type    1
     new r_m :   0.0476 (alat units)  1.1095 (a.u.) for type    2
     new r_m :   0.0476 (alat units)  1.1095 (a.u.) for type    3

     Check: negative core charge=   -0.000002

     Initial potential from superposition of free atoms

     starting charge  212.80506, renormalised to  213.00000

     negative rho (up, down):  7.475E-05 8.698E-03


---------------------------------------------------------------------------------
Carrying out rVV10 run using the following parameters:
Nqs =      20    Nr_points =    1024   r_max =   100.000
b_value =  6.30000    beta =  0.00901
     q_mesh =  0.00010000  0.00030000  0.00058939  0.00100810
               0.00161396  0.00249058  0.00375900  0.00559430
               0.00824984  0.01209221  0.01765183  0.02569619
               0.03733578  0.05417739  0.07854596  0.11380545
               0.16482331  0.23864234  0.34545298  0.50000000

Gradients computed in Reciprocal space

---------------------------------------------------------------------------------


     Starting wfcs are  208 randomized atomic wfcs

     total cpu time spent up to now is       74.0 secs

     Self-consistent Calculation

     iteration #  1     ecut=    70.00 Ry     beta= 0.70
     Davidson diagonalization with overlap
     ethr =  1.00E-02,  avg # of iterations =  4.0

     negative rho (up, down):  1.259E-04 8.457E-03

     total cpu time spent up to now is      202.4 secs

     total energy              =    -823.54349570 Ry
     Harris-Foulkes estimate   =    -824.90409619 Ry
     estimated scf accuracy    <       9.70907320 Ry

     total magnetization       =     5.00 Bohr mag/cell
     absolute magnetization    =     5.89 Bohr mag/cell

     iteration #  2     ecut=    70.00 Ry     beta= 0.70
     Davidson diagonalization with overlap
     ethr =  4.56E-03,  avg # of iterations =  5.5

     negative rho (up, down):  1.517E-04 8.131E-03

     total cpu time spent up to now is      317.1 secs

     total energy              =    -818.71085156 Ry
     Harris-Foulkes estimate   =    -827.05572014 Ry
     estimated scf accuracy    <      21.52367869 Ry

     total magnetization       =     6.59 Bohr mag/cell
     absolute magnetization    =     6.65 Bohr mag/cell

     iteration #  3     ecut=    70.00 Ry     beta= 0.70
     Davidson diagonalization with overlap
     ethr =  4.56E-03,  avg # of iterations =  4.0

     negative rho (up, down):  2.092E-04 5.705E-03

     total cpu time spent up to now is      465.1 secs

     total energy              =    -822.38852524 Ry
     Harris-Foulkes estimate   =    -830.33770474 Ry
     estimated scf accuracy    <      47.78290452 Ry

     total magnetization       =     1.00 Bohr mag/cell
     absolute magnetization    =     1.50 Bohr mag/cell

     iteration #  4     ecut=    70.00 Ry     beta= 0.70
     Davidson diagonalization with overlap
     ethr =  4.56E-03,  avg # of iterations =  4.0

     negative rho (up, down):  2.417E-04 1.050E-02

     total cpu time spent up to now is      564.7 secs

     total energy              =    -825.73312938 Ry
     Harris-Foulkes estimate   =    -826.01135545 Ry
     estimated scf accuracy    <       0.69616911 Ry

     total magnetization       =     3.00 Bohr mag/cell
     absolute magnetization    =     3.40 Bohr mag/cell

     iteration #  5     ecut=    70.00 Ry     beta= 0.70
     Davidson diagonalization with overlap
     ethr =  3.27E-04,  avg # of iterations =  4.5

     negative rho (up, down):  2.834E-04 1.615E-02

     total cpu time spent up to now is      685.4 secs

     total energy              =    -825.77393758 Ry
     Harris-Foulkes estimate   =    -825.99558461 Ry
     estimated scf accuracy    <       1.20244671 Ry

     total magnetization       =     3.02 Bohr mag/cell
     absolute magnetization    =     3.23 Bohr mag/cell

     iteration #  6     ecut=    70.00 Ry     beta= 0.70
     Davidson diagonalization with overlap
     ethr =  3.27E-04,  avg # of iterations =  5.5

     negative rho (up, down):  6.038E-04 6.098E-03

     total cpu time spent up to now is      783.1 secs

     total energy              =    -825.91688170 Ry
     Harris-Foulkes estimate   =    -825.95858437 Ry
     estimated scf accuracy    <       0.16768355 Ry

     total magnetization       =     3.00 Bohr mag/cell
     absolute magnetization    =     3.43 Bohr mag/cell

     iteration #  7     ecut=    70.00 Ry     beta= 0.70
     Davidson diagonalization with overlap
     ethr =  7.87E-05,  avg # of iterations =  6.5

     negative rho (up, down):  6.482E-04 7.695E-03

     total cpu time spent up to now is      889.2 secs

     total energy              =    -825.93606753 Ry
     Harris-Foulkes estimate   =    -825.94687873 Ry
     estimated scf accuracy    <       0.05100022 Ry

     total magnetization       =     3.00 Bohr mag/cell
     absolute magnetization    =     3.60 Bohr mag/cell

     iteration #  8     ecut=    70.00 Ry     beta= 0.70
     Davidson diagonalization with overlap
     ethr =  2.39E-05,  avg # of iterations =  5.5

     negative rho (up, down):  6.112E-04 5.498E-03

     total cpu time spent up to now is      988.9 secs

     total energy              =    -825.93925040 Ry
     Harris-Foulkes estimate   =    -825.94226255 Ry
     estimated scf accuracy    <       0.02558703 Ry

     total magnetization       =     3.00 Bohr mag/cell
     absolute magnetization    =     3.69 Bohr mag/cell

     iteration #  9     ecut=    70.00 Ry     beta= 0.70
     Davidson diagonalization with overlap
     ethr =  1.20E-05,  avg # of iterations =  1.5

     negative rho (up, down):  5.836E-04 4.936E-03

     total cpu time spent up to now is     1081.3 secs

     total energy              =    -825.94073478 Ry
     Harris-Foulkes estimate   =    -825.94105379 Ry
     estimated scf accuracy    <       0.00795251 Ry

     total magnetization       =     3.00 Bohr mag/cell
     absolute magnetization    =     3.76 Bohr mag/cell

     iteration # 10     ecut=    70.00 Ry     beta= 0.70
     Davidson diagonalization with overlap
     ethr =  3.73E-06,  avg # of iterations =  3.5

     negative rho (up, down):  5.746E-04 5.280E-03

     total cpu time spent up to now is     1178.1 secs

     total energy              =    -825.94159004 Ry
     Harris-Foulkes estimate   =    -825.94145107 Ry
     estimated scf accuracy    <       0.00165689 Ry

     total magnetization       =     3.00 Bohr mag/cell
     absolute magnetization    =     3.88 Bohr mag/cell

     iteration # 11     ecut=    70.00 Ry     beta= 0.70
     Davidson diagonalization with overlap
     ethr =  7.78E-07,  avg # of iterations =  3.0

     negative rho (up, down):  5.757E-04 5.361E-03

     total cpu time spent up to now is     1275.0 secs

     total energy              =    -825.94188247 Ry
     Harris-Foulkes estimate   =    -825.94182706 Ry
     estimated scf accuracy    <       0.00043113 Ry

     total magnetization       =     3.00 Bohr mag/cell
     absolute magnetization    =     4.00 Bohr mag/cell

     iteration # 12     ecut=    70.00 Ry     beta= 0.70
     Davidson diagonalization with overlap
     ethr =  2.02E-07,  avg # of iterations =  3.0

     negative rho (up, down):  5.744E-04 5.422E-03

     total cpu time spent up to now is     1379.5 secs

     total energy              =    -825.94201123 Ry
     Harris-Foulkes estimate   =    -825.94201099 Ry
     estimated scf accuracy    <       0.00016781 Ry

     total magnetization       =     3.00 Bohr mag/cell
     absolute magnetization    =     4.09 Bohr mag/cell

     iteration # 13     ecut=    70.00 Ry     beta= 0.70
     Davidson diagonalization with overlap
     ethr =  7.88E-08,  avg # of iterations =  3.0

     negative rho (up, down):  5.802E-04 5.308E-03

     total cpu time spent up to now is     1493.1 secs

     total energy              =    -825.94208244 Ry
     Harris-Foulkes estimate   =    -825.94208997 Ry
     estimated scf accuracy    <       0.00006575 Ry

     total magnetization       =     3.00 Bohr mag/cell
     absolute magnetization    =     4.19 Bohr mag/cell

     iteration # 14     ecut=    70.00 Ry     beta= 0.70
     Davidson diagonalization with overlap
     ethr =  3.09E-08,  avg # of iterations =  2.5

     negative rho (up, down):  5.834E-04 5.230E-03

     total cpu time spent up to now is     1591.8 secs

     total energy              =    -825.94210714 Ry
     Harris-Foulkes estimate   =    -825.94209467 Ry
     estimated scf accuracy    <       0.00000711 Ry

     total magnetization       =     3.00 Bohr mag/cell
     absolute magnetization    =     4.21 Bohr mag/cell

     iteration # 15     ecut=    70.00 Ry     beta= 0.70
     Davidson diagonalization with overlap
     ethr =  3.34E-09,  avg # of iterations =  3.5

     negative rho (up, down):  5.837E-04 5.238E-03

     total cpu time spent up to now is     1717.5 secs

     total energy              =    -825.94211945 Ry
     Harris-Foulkes estimate   =    -825.94211567 Ry
     estimated scf accuracy    <       0.00000346 Ry

     total magnetization       =     3.00 Bohr mag/cell
     absolute magnetization    =     4.26 Bohr mag/cell

     iteration # 16     ecut=    70.00 Ry     beta= 0.70
     Davidson diagonalization with overlap
     ethr =  1.62E-09,  avg # of iterations =  3.0

     negative rho (up, down):  5.840E-04 5.247E-03

     total cpu time spent up to now is     1842.3 secs

     total energy              =    -825.94212380 Ry
     Harris-Foulkes estimate   =    -825.94212265 Ry
     estimated scf accuracy    <       0.00000160 Ry

     total magnetization       =     3.00 Bohr mag/cell
     absolute magnetization    =     4.29 Bohr mag/cell

     iteration # 17     ecut=    70.00 Ry     beta= 0.70
     Davidson diagonalization with overlap
     ethr =  7.50E-10,  avg # of iterations =  3.5

     negative rho (up, down):  5.838E-04 5.264E-03

     total cpu time spent up to now is     1970.2 secs

     total energy              =    -825.94212618 Ry
     Harris-Foulkes estimate   =    -825.94212626 Ry
     estimated scf accuracy    <       0.00000114 Ry

     total magnetization       =     3.00 Bohr mag/cell
     absolute magnetization    =     4.31 Bohr mag/cell

     iteration # 18     ecut=    70.00 Ry     beta= 0.70
     Davidson diagonalization with overlap
     ethr =  5.36E-10,  avg # of iterations =  3.0

     negative rho (up, down):  5.834E-04 5.286E-03

     Magnetic moment per site:
     atom:    1    charge:    0.2117    magn:    0.0001    constr:    0.0000
     atom:    2    charge:    0.2111    magn:    0.0001    constr:    0.0000
     atom:    3    charge:    1.7170    magn:   -0.0128    constr:    0.0000
     atom:    4    charge:    1.7156    magn:    0.0180    constr:    0.0000
     atom:    5    charge:    1.7177    magn:   -0.0098    constr:    0.0000
     atom:    6    charge:    1.7143    magn:    0.0063    constr:    0.0000
     atom:    7    charge:    1.7177    magn:   -0.0098    constr:    0.0000
     atom:    8    charge:    1.7156    magn:    0.0180    constr:    0.0000
     atom:    9    charge:    1.7170    magn:   -0.0128    constr:    0.0000
     atom:   10    charge:    1.7154    magn:    0.0576    constr:    0.0000
     atom:   11    charge:    1.7174    magn:   -0.0180    constr:    0.0000
     atom:   12    charge:    1.7155    magn:    0.0576    constr:    0.0000
     atom:   13    charge:    1.7175    magn:   -0.0180    constr:    0.0000
     atom:   14    charge:    1.7159    magn:    0.0461    constr:    0.0000
     atom:   15    charge:    1.7144    magn:   -0.0148    constr:    0.0000
     atom:   16    charge:    1.7124    magn:    0.0616    constr:    0.0000
     atom:   17    charge:    1.7236    magn:   -0.0141    constr:    0.0000
     atom:   18    charge:    1.7124    magn:    0.0616    constr:    0.0000
     atom:   19    charge:    1.7144    magn:   -0.0148    constr:    0.0000
     atom:   20    charge:    1.7159    magn:    0.0461    constr:    0.0000
     atom:   21    charge:    1.7175    magn:   -0.0180    constr:    0.0000
     atom:   22    charge:    1.7155    magn:    0.0576    constr:    0.0000
     atom:   23    charge:    1.7170    magn:   -0.0128    constr:    0.0000
     atom:   24    charge:    1.7156    magn:    0.0180    constr:    0.0000
     atom:   25    charge:    1.7144    magn:   -0.0148    constr:    0.0000
     atom:   26    charge:    1.7124    magn:    0.0616    constr:    0.0000
     atom:   27    charge:    1.8739    magn:   -0.0300    constr:    0.0000
     atom:   28    charge:   10.0208    magn:    0.7880    constr:    0.0000
     atom:   29    charge:    1.8739    magn:   -0.0301    constr:    0.0000
     atom:   30    charge:    1.7124    magn:    0.0616    constr:    0.0000
     atom:   31    charge:    1.7144    magn:   -0.0148    constr:    0.0000
     atom:   32    charge:    1.7156    magn:    0.0180    constr:    0.0000
     atom:   33    charge:    1.7177    magn:   -0.0098    constr:    0.0000
     atom:   34    charge:    1.7142    magn:    0.0126    constr:    0.0000
     atom:   35    charge:    1.7177    magn:   -0.0098    constr:    0.0000
     atom:   36    charge:    1.7142    magn:    0.0063    constr:    0.0000
     atom:   37    charge:    1.7236    magn:   -0.0141    constr:    0.0000
     atom:   38    charge:    1.7124    magn:    0.0616    constr:    0.0000
     atom:   39    charge:    1.8739    magn:   -0.0300    constr:    0.0000
     atom:   40    charge:    1.7124    magn:    0.0616    constr:    0.0000
     atom:   41    charge:    1.7236    magn:   -0.0141    constr:    0.0000
     atom:   42    charge:    1.7143    magn:    0.0063    constr:    0.0000
     atom:   43    charge:    1.7177    magn:   -0.0098    constr:    0.0000
     atom:   44    charge:    1.7142    magn:    0.0127    constr:    0.0000
     atom:   45    charge:    1.7232    magn:   -0.0070    constr:    0.0000
     atom:   46    charge:    1.7141    magn:    0.0127    constr:    0.0000
     atom:   47    charge:    1.7176    magn:   -0.0098    constr:    0.0000
     atom:   48    charge:    1.7155    magn:    0.0180    constr:    0.0000
     atom:   49    charge:    1.7143    magn:   -0.0148    constr:    0.0000
     atom:   50    charge:    1.7159    magn:    0.0461    constr:    0.0000
     atom:   51    charge:    1.7143    magn:   -0.0148    constr:    0.0000
     atom:   52    charge:    1.7156    magn:    0.0180    constr:    0.0000

     total cpu time spent up to now is     2084.4 secs

     End of self-consistent calculation

 ------ SPIN UP ------------


          k = 0.0000 0.0000 0.0000 ( 87777 PWs)   bands (ev):

   -80.7311 -50.2346 -50.2343 -49.1523 -19.7849 -18.9496 -18.9493 -18.8572
   -18.8373 -18.8370 -18.4946 -17.0868 -17.0867 -17.0810 -17.0021 -17.0020
   -16.6901 -16.2419 -16.2419 -16.1332 -16.0724 -16.0723 -15.3720 -14.1323
   -14.1320 -14.0654 -13.9989 -13.9987 -13.3328 -13.0732 -13.0731 -13.0457
   -12.7436 -12.7435 -12.3264 -11.8514 -11.8513 -11.6669 -11.3917 -11.3916
   -10.4785  -9.6844  -9.6844  -9.4465  -9.3273  -9.3272  -9.2327  -9.2054
    -9.2054  -9.1909  -8.7022  -8.7022  -8.1754  -8.1753  -8.0696  -7.9485
    -7.8405  -7.4346  -7.4345  -7.2040  -7.2035  -7.2015  -6.9277  -6.9276
    -6.8448  -6.8333  -6.8330  -6.7224  -6.5704  -6.5702  -6.5488  -6.5392
    -6.5293  -6.5292  -6.4836  -6.4772  -5.6532  -5.6527  -5.5324  -5.5324
    -5.3289  -5.3288  -5.0470  -4.9902  -4.8902  -4.7573  -4.7371  -4.7368
    -4.4154  -4.2380  -4.2379  -4.2288  -4.2287  -3.8969  -3.8966  -3.7994
    -3.6759  -3.6759  -3.1592  -2.7653  -2.7652  -1.9077  -1.8103  -1.8101
    -1.4845  -1.1262  -1.1256  -0.8646   0.8949   0.9572   0.9575   1.5580
     1.5582   1.5666   2.5084   2.7500   2.7503   2.8475   3.0185   3.0206
     3.3767   3.4653   3.4654   3.6310   3.6419   3.7374   3.7401   3.7837

     occupation numbers 
     1.0000   1.0000   1.0000   1.0000   1.0000   1.0000   1.0000   1.0000
     1.0000   1.0000   1.0000   1.0000   1.0000   1.0000   1.0000   1.0000
     1.0000   1.0000   1.0000   1.0000   1.0000   1.0000   1.0000   1.0000
     1.0000   1.0000   1.0000   1.0000   1.0000   1.0000   1.0000   1.0000
     1.0000   1.0000   1.0000   1.0000   1.0000   1.0000   1.0000   1.0000
     1.0000   1.0000   1.0000   1.0000   1.0000   1.0000   1.0000   1.0000
     1.0000   1.0000   1.0000   1.0000   1.0000   1.0000   1.0000   1.0000
     1.0000   1.0000   1.0000   1.0000   1.0000   1.0000   1.0000   1.0000
     1.0000   1.0000   1.0000   1.0000   1.0000   1.0000   1.0000   1.0000
     1.0000   1.0000   1.0000   1.0000   1.0000   1.0000   1.0000   1.0000
     1.0000   1.0000   1.0000   1.0000   1.0000   1.0000   1.0000   1.0000
     1.0000   1.0000   1.0000   1.0000   1.0000   1.0000   1.0000   1.0000
     1.0000   1.0000   1.0000   1.0000   1.0000   1.0000   1.0000   1.0000
     1.0000   1.0000   1.0000   1.0001   0.0000   0.0000   0.0000   0.0000
     0.0000   0.0000   0.0000   0.0000   0.0000   0.0000   0.0000   0.0000
     0.0000   0.0000   0.0000   0.0000   0.0000   0.0000   0.0000   0.0000

 ------ SPIN DOWN ----------


          k = 0.0000 0.0000 0.0000 ( 87777 PWs)   bands (ev):

   -79.3885 -49.1620 -49.1620 -47.3836 -19.7432 -18.9013 -18.9011 -18.8197
   -18.8108 -18.8105 -18.4295 -17.0517 -17.0494 -17.0493 -16.9462 -16.9461
   -16.6605 -16.1919 -16.1919 -16.1022 -16.0287 -16.0286 -15.3411 -14.0590
   -14.0587 -13.9970 -13.9888 -13.9887 -13.3397 -13.0467 -13.0467 -13.0132
   -12.7245 -12.7245 -12.2892 -11.8094 -11.8093 -11.6419 -11.3675 -11.3674
   -10.4409  -9.6164  -9.6164  -9.4156  -9.2924  -9.2923  -9.2167  -9.1809
    -9.1809  -9.1734  -8.6863  -8.6863  -8.1255  -8.1254  -8.0382  -7.8515
    -7.8225  -7.4184  -7.4184  -7.1451  -7.0084  -7.0080  -6.8658  -6.8657
    -6.7764  -6.7761  -6.7469  -6.7064  -6.5511  -6.5509  -6.5278  -6.5163
    -6.5163  -6.4800  -6.4663  -6.3934  -5.4940  -5.4939  -5.3651  -5.3645
    -5.2517  -5.2516  -4.9767  -4.8790  -4.6952  -4.6825  -4.6458  -4.6455
    -4.3384  -4.1077  -4.1075  -4.0221  -4.0219  -3.7611  -3.7608  -3.7119
    -3.6571  -3.6570  -3.0867  -2.5059  -2.5059  -1.7852  -1.7851  -1.7382
    -0.8292  -0.5269  -0.5263  -0.0851   0.9994   0.9997   1.0515   1.7324
     1.7371   1.7374   2.5445   2.8874   2.8877   2.9163   3.3067   3.3115
     3.5639   3.6520   3.6523   3.6784   3.6871   3.7485   3.7553   3.8439

     occupation numbers 
     1.0000   1.0000   1.0000   1.0000   1.0000   1.0000   1.0000   1.0000
     1.0000   1.0000   1.0000   1.0000   1.0000   1.0000   1.0000   1.0000
     1.0000   1.0000   1.0000   1.0000   1.0000   1.0000   1.0000   1.0000
     1.0000   1.0000   1.0000   1.0000   1.0000   1.0000   1.0000   1.0000
     1.0000   1.0000   1.0000   1.0000   1.0000   1.0000   1.0000   1.0000
     1.0000   1.0000   1.0000   1.0000   1.0000   1.0000   1.0000   1.0000
     1.0000   1.0000   1.0000   1.0000   1.0000   1.0000   1.0000   1.0000
     1.0000   1.0000   1.0000   1.0000   1.0000   1.0000   1.0000   1.0000
     1.0000   1.0000   1.0000   1.0000   1.0000   1.0000   1.0000   1.0000
     1.0000   1.0000   1.0000   1.0000   1.0000   1.0000   1.0000   1.0000
     1.0000   1.0000   1.0000   1.0000   1.0000   1.0000   1.0000   1.0000
     1.0000   1.0000   1.0000   1.0000   1.0000   1.0000   1.0000   1.0000
     1.0000   1.0000   1.0000   1.0000   1.0000   1.0000   1.0000   1.0000
     0.9999   0.0000   0.0000   0.0000   0.0000   0.0000   0.0000   0.0000
     0.0000   0.0000   0.0000   0.0000   0.0000   0.0000   0.0000   0.0000
     0.0000   0.0000   0.0000   0.0000   0.0000   0.0000   0.0000   0.0000

     the Fermi energy is    -0.8166 ev

!    total energy              =    -825.94212652 Ry
     Harris-Foulkes estimate   =    -825.94212671 Ry
     estimated scf accuracy    <       0.00000035 Ry

     The total energy is the sum of the following terms:

     one-electron contribution =   -2704.39607560 Ry
     hartree contribution      =    1396.96415509 Ry
     xc contribution           =    -259.63947079 Ry
     ewald contribution        =     741.12918293 Ry
     smearing contrib. (-TS)   =       0.00008184 Ry

     total magnetization       =     3.00 Bohr mag/cell
     absolute magnetization    =     4.32 Bohr mag/cell

     convergence has been achieved in  18 iterations

     Writing output data file gr-12-baricentro.save/

     init_run     :     71.66s CPU     72.85s WALL (       1 calls)
     electrons    :   1976.34s CPU   2010.57s WALL (       1 calls)

     Called by init_run:
     wfcinit      :     42.14s CPU     42.38s WALL (       1 calls)
     wfcinit:atom :      0.06s CPU      0.09s WALL (       2 calls)
     wfcinit:wfcr :     41.75s CPU     41.91s WALL (       2 calls)
     potinit      :     13.22s CPU     13.61s WALL (       1 calls)
     hinit0       :      7.64s CPU      7.66s WALL (       1 calls)

     Called by electrons:
     c_bands      :   1328.97s CPU   1337.61s WALL (      18 calls)
     sum_band     :    375.77s CPU    386.40s WALL (      18 calls)
     v_of_rho     :    136.90s CPU    143.27s WALL (      19 calls)
     v_h          :      1.51s CPU      1.54s WALL (      19 calls)
     v_xc         :    135.39s CPU    141.73s WALL (      19 calls)
     newd         :    137.45s CPU    146.65s WALL (      19 calls)
     mix_rho      :      7.60s CPU      7.75s WALL (      18 calls)

     Called by c_bands:
     init_us_2    :      3.41s CPU      3.43s WALL (      74 calls)
     cegterg      :   1320.44s CPU   1329.04s WALL (      36 calls)

     Called by sum_band:
     sum_band:bec :      0.03s CPU      0.03s WALL (      36 calls)
     addusdens    :    234.16s CPU    243.81s WALL (      18 calls)

     Called by *egterg:
     h_psi        :    684.58s CPU    690.81s WALL (     176 calls)
     s_psi        :    233.58s CPU    233.70s WALL (     176 calls)
     g_psi        :      0.78s CPU      0.78s WALL (     138 calls)
     cdiaghg      :     14.47s CPU     14.48s WALL (     174 calls)
     cegterg:over :    177.04s CPU    177.12s WALL (     138 calls)
     cegterg:upda :    117.15s CPU    117.91s WALL (     138 calls)
     cegterg:last :     67.49s CPU     67.51s WALL (      36 calls)

     Called by h_psi:
     h_psi:pot    :    683.79s CPU    689.12s WALL (     176 calls)
     h_psi:calbec :    230.51s CPU    231.63s WALL (     176 calls)
     vloc_psi     :    219.89s CPU    224.03s WALL (     176 calls)
     add_vuspsi   :    233.40s CPU    233.45s WALL (     176 calls)

     General routines
     calbec       :    317.92s CPU    319.08s WALL (     212 calls)
     fft          :     78.56s CPU     81.01s WALL (    1419 calls)
     ffts         :      1.34s CPU      1.39s WALL (      74 calls)
     fftw         :    226.85s CPU    231.32s WALL (   28958 calls)
     interpolate  :      3.28s CPU      3.36s WALL (      38 calls)

     Parallel routines
     fft_scatt_xy :     56.16s CPU     57.00s WALL (   30451 calls)
     fft_scatt_yz :     97.74s CPU    102.70s WALL (   30451 calls)

     PWSCF        :  34m 9.30s CPU  34m45.12s WALL


   This run was terminated on:   2: 9:16  11Aug2022            

=------------------------------------------------------------------------------=
   JOB DONE.
=------------------------------------------------------------------------------=
