
     Program PWSCF v.6.4.1 starts on 11Aug2022 at  6: 9:42 

     This program is part of the open-source Quantum ESPRESSO suite
     for quantum simulation of materials; please cite
         "P. Giannozzi et al., J. Phys.:Condens. Matter 21 395502 (2009);
         "P. Giannozzi et al., J. Phys.:Condens. Matter 29 465901 (2017);
          URL http://www.quantum-espresso.org", 
     in publications or presentations arising from this work. More details at
     http://www.quantum-espresso.org/quote

     Parallel version (MPI), running on     6 processors

     MPI processes distributed on     1 nodes
     R & G space division:  proc/nbgrp/npool/nimage =       6
     Reading input from distance-2.2.in

     Current dimensions of program PWSCF are:
     Max number of different atomic species (ntypx) = 10
     Max number of k-points (npk) =  40000
     Max angular momentum in pseudopotentials (lmaxx) =  3

     IMPORTANT: XC functional enforced from input :
     Exchange-correlation      = RVV10 ( 1  4 13  4 3 0)
     Any further DFT definition will be discarded
     Please, verify this is what you really want

               file H.pbe-rrkjus.UPF: wavefunction(s)  1S renormalized
               file Mn.pbe-spn-rrkjus_psl.0.3.1.UPF: wavefunction(s)  3D renormalized

     Subspace diagonalization in iterative solution of the eigenvalue problem:
     a serial algorithm will be used


     Parallelization info
     --------------------
     sticks:   dense  smooth     PW     G-vecs:    dense   smooth      PW
     Min        3051    1746    432               270999   117096   14629
     Max        3053    1747    437               271001   117099   14630
     Sum       18313   10477   2611              1626001   702581   87777



     bravais-lattice index     =            4
     lattice parameter (alat)  =      23.2937  a.u.
     unit-cell volume          =    8879.8548 (a.u.)^3
     number of atoms/cell      =           52
     number of atomic types    =            3
     number of electrons       =       213.00
     number of Kohn-Sham states=          128
     kinetic-energy cutoff     =      70.0000  Ry
     charge density cutoff     =     490.0000  Ry
     convergence threshold     =      1.0E-06
     mixing beta               =       0.7000
     number of iterations used =            8  plain     mixing
     Exchange-correlation      = RVV10 ( 1  4 13  4 3 0)

     celldm(1)=  23.293684  celldm(2)=   0.000000  celldm(3)=   0.811261
     celldm(4)=   0.000000  celldm(5)=   0.000000  celldm(6)=   0.000000

     crystal axes: (cart. coord. in units of alat)
               a(1) = (   1.000000   0.000000   0.000000 )  
               a(2) = (  -0.500000   0.866025   0.000000 )  
               a(3) = (   0.000000   0.000000   0.811261 )  

     reciprocal axes: (cart. coord. in units 2 pi/alat)
               b(1) = (  1.000000  0.577350 -0.000000 )  
               b(2) = (  0.000000  1.154701  0.000000 )  
               b(3) = (  0.000000 -0.000000  1.232649 )  


     PseudoPot. # 1 for H  read from file:
     /home/cristian/Escritorio/Proyecto_Grafeno/pseudopotenciales/H.pbe-rrkjus.UPF
     MD5 check sum: 7cc9d459525c9a0585f487a71c3c9563
     Pseudo is Ultrasoft, Zval =  1.0
     Generated by new atomic code, or converted to UPF format
     Using radial grid of 1061 points,  2 beta functions with: 
                l(1) =   0
                l(2) =   0
     Q(r) pseudized with 0 coefficients 


     PseudoPot. # 2 for C  read from file:
     /home/cristian/Escritorio/Proyecto_Grafeno/pseudopotenciales/C.pbe-n-rrkjus_psl.1.0.0.UPF
     MD5 check sum: 1fdd950c42eb37d8afe3dd2f8d12311e
     Pseudo is Ultrasoft + core correction, Zval =  4.0
     Generated using "atomic" code by A. Dal Corso v.6.3MaX
     Using radial grid of 1073 points,  4 beta functions with: 
                l(1) =   0
                l(2) =   0
                l(3) =   1
                l(4) =   1
     Q(r) pseudized with 0 coefficients 


     PseudoPot. # 3 for Mn read from file:
     /home/cristian/Escritorio/Proyecto_Grafeno/pseudopotenciales/Mn.pbe-spn-rrkjus_psl.0.3.1.UPF
     MD5 check sum: e1cac159bdd2ba70c18e85765a5d4279
     Pseudo is Ultrasoft + core correction, Zval = 15.0
     Generated using "atomic" code by A. Dal Corso v.6.2.2
     Using radial grid of 1187 points,  6 beta functions with: 
                l(1) =   0
                l(2) =   0
                l(3) =   1
                l(4) =   1
                l(5) =   2
                l(6) =   2
     Q(r) pseudized with 0 coefficients 


     vdW kernel table read from file rVV10_kernel_table
     MD5 check sum: b8e2538accc0c0b3206b45ba4daaba6c

     atomic species   valence    mass     pseudopotential
        H              1.00     1.00794     H ( 1.00)
        C              4.00    12.01070     C ( 1.00)
        Mn            15.00    54.93804     Mn( 1.00)

     Starting magnetic structure 
     atomic species   magnetization
        H            0.500
        C            0.300
        Mn           0.800

     No symmetry found


                                    s                        frac. trans.

      isym =  1     identity                                     

 cryst.   s( 1) = (     1          0          0      )
                  (     0          1          0      )
                  (     0          0          1      )

 cart.    s( 1) = (  1.0000000  0.0000000  0.0000000 )
                  (  0.0000000  1.0000000  0.0000000 )
                  (  0.0000000  0.0000000  1.0000000 )


     point group C_1 (1)    
     there are  1 classes
     the character table:

       E    
A      1.00

     the symmetry operations in each class and the name of the first element:

     E        1
          identity                                               

   Cartesian axes

     site n.     atom                  positions (alat units)
         1           H   tau(   1) = (   0.2666667   0.4618802   0.1784775  )
         2           H   tau(   2) = (   0.2666667   0.4618802   0.2394901  )
         3           C   tau(   3) = (   0.0000000   0.0000000   0.0000000  )
         4           C   tau(   4) = (   0.0000000   0.1154701   0.0000000  )
         5           C   tau(   5) = (  -0.1000000   0.1732051   0.0000000  )
         6           C   tau(   6) = (  -0.1000000   0.2886751   0.0000000  )
         7           C   tau(   7) = (  -0.2000000   0.3464102   0.0000000  )
         8           C   tau(   8) = (  -0.2000000   0.4618802   0.0000000  )
         9           C   tau(   9) = (  -0.3000000   0.5196152   0.0000000  )
        10           C   tau(  10) = (  -0.3000000   0.6350853   0.0000000  )
        11           C   tau(  11) = (  -0.4000000   0.6928203   0.0000000  )
        12           C   tau(  12) = (  -0.4000000   0.8082904   0.0000000  )
        13           C   tau(  13) = (   0.2000000   0.0000000   0.0000000  )
        14           C   tau(  14) = (   0.2000000   0.1154701   0.0000000  )
        15           C   tau(  15) = (   0.1000000   0.1732051   0.0000000  )
        16           C   tau(  16) = (   0.1000000   0.2886751   0.0000000  )
        17           C   tau(  17) = (   0.0000000   0.3464102   0.0000000  )
        18           C   tau(  18) = (   0.0000000   0.4618802   0.0000000  )
        19           C   tau(  19) = (  -0.1000000   0.5196152   0.0000000  )
        20           C   tau(  20) = (  -0.1000000   0.6350853   0.0000000  )
        21           C   tau(  21) = (  -0.2000000   0.6928203   0.0000000  )
        22           C   tau(  22) = (  -0.2000000   0.8082904   0.0000000  )
        23           C   tau(  23) = (   0.4000000   0.0000000   0.0000000  )
        24           C   tau(  24) = (   0.4000000   0.1154701   0.0000000  )
        25           C   tau(  25) = (   0.3000000   0.1732051   0.0000000  )
        26           C   tau(  26) = (   0.3000000   0.2886751   0.0000000  )
        27           C   tau(  27) = (   0.2000000   0.3464102   0.0000000  )
        28           Mn  tau(  28) = (   0.2000000   0.4618802   0.0000000  )
        29           C   tau(  29) = (   0.1000000   0.5196152   0.0000000  )
        30           C   tau(  30) = (   0.1000000   0.6350853   0.0000000  )
        31           C   tau(  31) = (   0.0000000   0.6928203   0.0000000  )
        32           C   tau(  32) = (   0.0000000   0.8082904   0.0000000  )
        33           C   tau(  33) = (   0.6000000   0.0000000   0.0000000  )
        34           C   tau(  34) = (   0.6000000   0.1154701   0.0000000  )
        35           C   tau(  35) = (   0.5000000   0.1732051   0.0000000  )
        36           C   tau(  36) = (   0.5000000   0.2886751   0.0000000  )
        37           C   tau(  37) = (   0.4000000   0.3464102   0.0000000  )
        38           C   tau(  38) = (   0.4000000   0.4618802   0.0000000  )
        39           C   tau(  39) = (   0.3000000   0.5196152   0.0000000  )
        40           C   tau(  40) = (   0.3000000   0.6350853   0.0000000  )
        41           C   tau(  41) = (   0.2000000   0.6928203   0.0000000  )
        42           C   tau(  42) = (   0.2000000   0.8082904   0.0000000  )
        43           C   tau(  43) = (   0.8000000   0.0000000   0.0000000  )
        44           C   tau(  44) = (   0.8000000   0.1154701   0.0000000  )
        45           C   tau(  45) = (   0.7000000   0.1732051   0.0000000  )
        46           C   tau(  46) = (   0.7000000   0.2886751   0.0000000  )
        47           C   tau(  47) = (   0.6000000   0.3464102   0.0000000  )
        48           C   tau(  48) = (   0.6000000   0.4618802   0.0000000  )
        49           C   tau(  49) = (   0.5000000   0.5196152   0.0000000  )
        50           C   tau(  50) = (   0.5000000   0.6350853   0.0000000  )
        51           C   tau(  51) = (   0.4000000   0.6928203   0.0000000  )
        52           C   tau(  52) = (   0.4000000   0.8082904   0.0000000  )

   Crystallographic axes

     site n.     atom                  positions (cryst. coord.)
         1           H   tau(   1) = (  0.5333333  0.5333333  0.2200000  )
         2           H   tau(   2) = (  0.5333333  0.5333333  0.2952072  )
         3           C   tau(   3) = (  0.0000000  0.0000000  0.0000000  )
         4           C   tau(   4) = (  0.0666667  0.1333333  0.0000000  )
         5           C   tau(   5) = (  0.0000000  0.2000000  0.0000000  )
         6           C   tau(   6) = (  0.0666667  0.3333333  0.0000000  )
         7           C   tau(   7) = (  0.0000000  0.4000000  0.0000000  )
         8           C   tau(   8) = (  0.0666667  0.5333333  0.0000000  )
         9           C   tau(   9) = (  0.0000000  0.6000000  0.0000000  )
        10           C   tau(  10) = (  0.0666667  0.7333333  0.0000000  )
        11           C   tau(  11) = (  0.0000000  0.8000000  0.0000000  )
        12           C   tau(  12) = (  0.0666667  0.9333333  0.0000000  )
        13           C   tau(  13) = (  0.2000000  0.0000000  0.0000000  )
        14           C   tau(  14) = (  0.2666667  0.1333333  0.0000000  )
        15           C   tau(  15) = (  0.2000000  0.2000000  0.0000000  )
        16           C   tau(  16) = (  0.2666667  0.3333333  0.0000000  )
        17           C   tau(  17) = (  0.2000000  0.4000000  0.0000000  )
        18           C   tau(  18) = (  0.2666667  0.5333333  0.0000000  )
        19           C   tau(  19) = (  0.2000000  0.6000000  0.0000000  )
        20           C   tau(  20) = (  0.2666667  0.7333333  0.0000000  )
        21           C   tau(  21) = (  0.2000000  0.8000000  0.0000000  )
        22           C   tau(  22) = (  0.2666667  0.9333333  0.0000000  )
        23           C   tau(  23) = (  0.4000000  0.0000000  0.0000000  )
        24           C   tau(  24) = (  0.4666667  0.1333333  0.0000000  )
        25           C   tau(  25) = (  0.4000000  0.2000000  0.0000000  )
        26           C   tau(  26) = (  0.4666667  0.3333333  0.0000000  )
        27           C   tau(  27) = (  0.4000000  0.4000000  0.0000000  )
        28           Mn  tau(  28) = (  0.4666667  0.5333333  0.0000000  )
        29           C   tau(  29) = (  0.4000000  0.6000000  0.0000000  )
        30           C   tau(  30) = (  0.4666667  0.7333333  0.0000000  )
        31           C   tau(  31) = (  0.4000000  0.8000000  0.0000000  )
        32           C   tau(  32) = (  0.4666667  0.9333333  0.0000000  )
        33           C   tau(  33) = (  0.6000000  0.0000000  0.0000000  )
        34           C   tau(  34) = (  0.6666667  0.1333333  0.0000000  )
        35           C   tau(  35) = (  0.6000000  0.2000000  0.0000000  )
        36           C   tau(  36) = (  0.6666667  0.3333333  0.0000000  )
        37           C   tau(  37) = (  0.6000000  0.4000000  0.0000000  )
        38           C   tau(  38) = (  0.6666667  0.5333333  0.0000000  )
        39           C   tau(  39) = (  0.6000000  0.6000000  0.0000000  )
        40           C   tau(  40) = (  0.6666667  0.7333333  0.0000000  )
        41           C   tau(  41) = (  0.6000000  0.8000000  0.0000000  )
        42           C   tau(  42) = (  0.6666667  0.9333333  0.0000000  )
        43           C   tau(  43) = (  0.8000000  0.0000000  0.0000000  )
        44           C   tau(  44) = (  0.8666667  0.1333333  0.0000000  )
        45           C   tau(  45) = (  0.8000000  0.2000000  0.0000000  )
        46           C   tau(  46) = (  0.8666667  0.3333333  0.0000000  )
        47           C   tau(  47) = (  0.8000000  0.4000000  0.0000000  )
        48           C   tau(  48) = (  0.8666667  0.5333333  0.0000000  )
        49           C   tau(  49) = (  0.8000000  0.6000000  0.0000000  )
        50           C   tau(  50) = (  0.8666667  0.7333333  0.0000000  )
        51           C   tau(  51) = (  0.8000000  0.8000000  0.0000000  )
        52           C   tau(  52) = (  0.8666667  0.9333333  0.0000000  )

     number of k points=     1  Marzari-Vanderbilt smearing, width (Ry)=  0.0010
                       cart. coord. in units 2pi/alat
        k(    1) = (   0.0000000   0.0000000   0.0000000), wk =   1.0000000

                       cryst. coord.
        k(    1) = (   0.0000000   0.0000000   0.0000000), wk =   1.0000000

     Dense  grid:  1626001 G-vectors     FFT dimensions: ( 180, 180, 135)

     Smooth grid:   702581 G-vectors     FFT dimensions: ( 125, 125, 108)

     Dynamical RAM for                 wfc:      28.59 MB

     Dynamical RAM for     wfc (w. buffer):      85.76 MB

     Dynamical RAM for           str. fact:      12.41 MB

     Dynamical RAM for           local pot:       0.00 MB

     Dynamical RAM for          nlocal pot:      92.46 MB

     Dynamical RAM for                qrad:      19.73 MB

     Dynamical RAM for          rho,v,vnew:      58.92 MB

     Dynamical RAM for               rhoin:      19.64 MB

     Dynamical RAM for            rho*nmix:     132.32 MB

     Dynamical RAM for           G-vectors:      16.40 MB

     Dynamical RAM for          h,s,v(r/c):      12.00 MB

     Dynamical RAM for          <psi|beta>:       0.81 MB

     Dynamical RAM for                 psi:     114.35 MB

     Dynamical RAM for                hpsi:     114.35 MB

     Dynamical RAM for                spsi:     114.35 MB

     Dynamical RAM for      wfcinit/wfcrot:      93.90 MB

     Dynamical RAM for           addusdens:     975.89 MB

     Estimated static dynamical RAM per process >     488.30 MB

     Estimated max dynamical RAM per process >       1.43 GB

     Estimated total dynamical RAM >       8.58 GB
     Generating pointlists ...
     new r_m :   0.0252 (alat units)  0.5862 (a.u.) for type    1
     new r_m :   0.0476 (alat units)  1.1095 (a.u.) for type    2
     new r_m :   0.0476 (alat units)  1.1095 (a.u.) for type    3

     Check: negative core charge=   -0.000002

     Initial potential from superposition of free atoms

     starting charge  212.80506, renormalised to  213.00000

     negative rho (up, down):  7.458E-05 1.132E-02


---------------------------------------------------------------------------------
Carrying out rVV10 run using the following parameters:
Nqs =      20    Nr_points =    1024   r_max =   100.000
b_value =  6.30000    beta =  0.00901
     q_mesh =  0.00010000  0.00030000  0.00058939  0.00100810
               0.00161396  0.00249058  0.00375900  0.00559430
               0.00824984  0.01209221  0.01765183  0.02569619
               0.03733578  0.05417739  0.07854596  0.11380545
               0.16482331  0.23864234  0.34545298  0.50000000

Gradients computed in Reciprocal space

---------------------------------------------------------------------------------


     Starting wfcs are  208 randomized atomic wfcs

     total cpu time spent up to now is       78.8 secs

     Self-consistent Calculation

     iteration #  1     ecut=    70.00 Ry     beta= 0.70
     Davidson diagonalization with overlap
     ethr =  1.00E-02,  avg # of iterations =  2.5

     negative rho (up, down):  1.513E-04 1.080E-02

     total cpu time spent up to now is      205.8 secs

     total energy              =    -821.74107497 Ry
     Harris-Foulkes estimate   =    -825.01487880 Ry
     estimated scf accuracy    <      11.56081281 Ry

     total magnetization       =     7.00 Bohr mag/cell
     absolute magnetization    =     7.39 Bohr mag/cell

     iteration #  2     ecut=    70.00 Ry     beta= 0.70
     Davidson diagonalization with overlap
     ethr =  5.43E-03,  avg # of iterations =  7.0

     negative rho (up, down):  1.886E-04 1.177E-02

     total cpu time spent up to now is      326.3 secs

     total energy              =    -812.07198702 Ry
     Harris-Foulkes estimate   =    -834.99453251 Ry
     estimated scf accuracy    <      96.07899844 Ry

     total magnetization       =     3.00 Bohr mag/cell
     absolute magnetization    =     3.24 Bohr mag/cell

     iteration #  3     ecut=    70.00 Ry     beta= 0.70
     Davidson diagonalization with overlap
     ethr =  5.43E-03,  avg # of iterations =  5.0

     negative rho (up, down):  2.333E-04 9.103E-03

     total cpu time spent up to now is      509.5 secs

     total energy              =    -823.77343207 Ry
     Harris-Foulkes estimate   =    -827.09108973 Ry
     estimated scf accuracy    <      18.45141405 Ry

     total magnetization       =     7.00 Bohr mag/cell
     absolute magnetization    =     7.05 Bohr mag/cell

     iteration #  4     ecut=    70.00 Ry     beta= 0.70
     Davidson diagonalization with overlap
     ethr =  5.43E-03,  avg # of iterations =  3.5

     negative rho (up, down):  2.684E-04 1.024E-02

     total cpu time spent up to now is      604.4 secs

     total energy              =    -825.29564643 Ry
     Harris-Foulkes estimate   =    -826.42072215 Ry
     estimated scf accuracy    <       3.43652712 Ry

     total magnetization       =     3.00 Bohr mag/cell
     absolute magnetization    =     3.38 Bohr mag/cell

     iteration #  5     ecut=    70.00 Ry     beta= 0.70
     Davidson diagonalization with overlap
     ethr =  1.61E-03,  avg # of iterations =  4.0

     negative rho (up, down):  3.501E-04 1.691E-02

     total cpu time spent up to now is      710.0 secs

     total energy              =    -825.78814964 Ry
     Harris-Foulkes estimate   =    -825.98671099 Ry
     estimated scf accuracy    <       0.55155161 Ry

     total magnetization       =     3.00 Bohr mag/cell
     absolute magnetization    =     3.34 Bohr mag/cell

     iteration #  6     ecut=    70.00 Ry     beta= 0.70
     Davidson diagonalization with overlap
     ethr =  2.59E-04,  avg # of iterations =  7.5

     negative rho (up, down):  5.870E-04 7.424E-03

     total cpu time spent up to now is      822.4 secs

     total energy              =    -825.90646499 Ry
     Harris-Foulkes estimate   =    -825.94744574 Ry
     estimated scf accuracy    <       0.13458059 Ry

     total magnetization       =     3.00 Bohr mag/cell
     absolute magnetization    =     3.38 Bohr mag/cell

     iteration #  7     ecut=    70.00 Ry     beta= 0.70
     Davidson diagonalization with overlap
     ethr =  6.32E-05,  avg # of iterations =  4.0

     negative rho (up, down):  6.540E-04 6.256E-03

     total cpu time spent up to now is      930.0 secs

     total energy              =    -825.92686410 Ry
     Harris-Foulkes estimate   =    -825.93952247 Ry
     estimated scf accuracy    <       0.03052822 Ry

     total magnetization       =     3.00 Bohr mag/cell
     absolute magnetization    =     3.59 Bohr mag/cell

     iteration #  8     ecut=    70.00 Ry     beta= 0.70
     Davidson diagonalization with overlap
     ethr =  1.43E-05,  avg # of iterations =  6.0

     negative rho (up, down):  6.656E-04 6.262E-03

     total cpu time spent up to now is     1042.7 secs

     total energy              =    -825.93396570 Ry
     Harris-Foulkes estimate   =    -825.93647465 Ry
     estimated scf accuracy    <       0.00820489 Ry

     total magnetization       =     3.00 Bohr mag/cell
     absolute magnetization    =     3.71 Bohr mag/cell

     iteration #  9     ecut=    70.00 Ry     beta= 0.70
     Davidson diagonalization with overlap
     ethr =  3.85E-06,  avg # of iterations =  4.0

     negative rho (up, down):  6.637E-04 6.314E-03

     total cpu time spent up to now is     1153.4 secs

     total energy              =    -825.93582132 Ry
     Harris-Foulkes estimate   =    -825.93618476 Ry
     estimated scf accuracy    <       0.00176410 Ry

     total magnetization       =     3.00 Bohr mag/cell
     absolute magnetization    =     3.84 Bohr mag/cell

     iteration # 10     ecut=    70.00 Ry     beta= 0.70
     Davidson diagonalization with overlap
     ethr =  8.28E-07,  avg # of iterations =  3.0

     negative rho (up, down):  6.637E-04 6.392E-03

     total cpu time spent up to now is     1257.7 secs

     total energy              =    -825.93628497 Ry
     Harris-Foulkes estimate   =    -825.93630620 Ry
     estimated scf accuracy    <       0.00046743 Ry

     total magnetization       =     3.00 Bohr mag/cell
     absolute magnetization    =     3.93 Bohr mag/cell

     iteration # 11     ecut=    70.00 Ry     beta= 0.70
     Davidson diagonalization with overlap
     ethr =  2.19E-07,  avg # of iterations =  3.0

     negative rho (up, down):  6.632E-04 6.454E-03

     total cpu time spent up to now is     1365.6 secs

     total energy              =    -825.93653245 Ry
     Harris-Foulkes estimate   =    -825.93644425 Ry
     estimated scf accuracy    <       0.00016105 Ry

     total magnetization       =     3.00 Bohr mag/cell
     absolute magnetization    =     4.01 Bohr mag/cell

     iteration # 12     ecut=    70.00 Ry     beta= 0.70
     Davidson diagonalization with overlap
     ethr =  7.56E-08,  avg # of iterations =  3.0

     negative rho (up, down):  6.582E-04 6.583E-03

     total cpu time spent up to now is     1487.8 secs

     total energy              =    -825.93664335 Ry
     Harris-Foulkes estimate   =    -825.93660751 Ry
     estimated scf accuracy    <       0.00003514 Ry

     total magnetization       =     3.00 Bohr mag/cell
     absolute magnetization    =     4.12 Bohr mag/cell

     iteration # 13     ecut=    70.00 Ry     beta= 0.70
     Davidson diagonalization with overlap
     ethr =  1.65E-08,  avg # of iterations =  3.0

     negative rho (up, down):  6.614E-04 6.582E-03

     total cpu time spent up to now is     1614.2 secs

     total energy              =    -825.93667608 Ry
     Harris-Foulkes estimate   =    -825.93667447 Ry
     estimated scf accuracy    <       0.00002806 Ry

     total magnetization       =     3.00 Bohr mag/cell
     absolute magnetization    =     4.20 Bohr mag/cell

     iteration # 14     ecut=    70.00 Ry     beta= 0.70
     Davidson diagonalization with overlap
     ethr =  1.32E-08,  avg # of iterations =  3.5

     negative rho (up, down):  6.604E-04 6.624E-03

     total cpu time spent up to now is     1718.4 secs

     total energy              =    -825.93668955 Ry
     Harris-Foulkes estimate   =    -825.93668895 Ry
     estimated scf accuracy    <       0.00003837 Ry

     total magnetization       =     3.00 Bohr mag/cell
     absolute magnetization    =     4.22 Bohr mag/cell

     iteration # 15     ecut=    70.00 Ry     beta= 0.70
     Davidson diagonalization with overlap
     ethr =  1.32E-08,  avg # of iterations =  3.0

     negative rho (up, down):  6.600E-04 6.660E-03

     total cpu time spent up to now is     1834.9 secs

     total energy              =    -825.93670523 Ry
     Harris-Foulkes estimate   =    -825.93670440 Ry
     estimated scf accuracy    <       0.00000552 Ry

     total magnetization       =     3.00 Bohr mag/cell
     absolute magnetization    =     4.27 Bohr mag/cell

     iteration # 16     ecut=    70.00 Ry     beta= 0.70
     Davidson diagonalization with overlap
     ethr =  2.59E-09,  avg # of iterations =  3.0

     negative rho (up, down):  6.604E-04 6.668E-03

     total cpu time spent up to now is     1957.7 secs

     total energy              =    -825.93670857 Ry
     Harris-Foulkes estimate   =    -825.93670813 Ry
     estimated scf accuracy    <       0.00000116 Ry

     total magnetization       =     3.00 Bohr mag/cell
     absolute magnetization    =     4.30 Bohr mag/cell

     iteration # 17     ecut=    70.00 Ry     beta= 0.70
     Davidson diagonalization with overlap
     ethr =  5.44E-10,  avg # of iterations =  3.0

     negative rho (up, down):  6.605E-04 6.677E-03

     total cpu time spent up to now is     2082.9 secs

     total energy              =    -825.93670930 Ry
     Harris-Foulkes estimate   =    -825.93670946 Ry
     estimated scf accuracy    <       0.00000106 Ry

     total magnetization       =     3.00 Bohr mag/cell
     absolute magnetization    =     4.31 Bohr mag/cell

     iteration # 18     ecut=    70.00 Ry     beta= 0.70
     Davidson diagonalization with overlap
     ethr =  4.97E-10,  avg # of iterations =  3.0

     negative rho (up, down):  6.605E-04 6.680E-03

     Magnetic moment per site:
     atom:    1    charge:    0.2121    magn:   -0.0009    constr:    0.0000
     atom:    2    charge:    0.2120    magn:    0.0096    constr:    0.0000
     atom:    3    charge:    1.7170    magn:   -0.0128    constr:    0.0000
     atom:    4    charge:    1.7156    magn:    0.0180    constr:    0.0000
     atom:    5    charge:    1.7177    magn:   -0.0097    constr:    0.0000
     atom:    6    charge:    1.7142    magn:    0.0063    constr:    0.0000
     atom:    7    charge:    1.7177    magn:   -0.0097    constr:    0.0000
     atom:    8    charge:    1.7156    magn:    0.0180    constr:    0.0000
     atom:    9    charge:    1.7170    magn:   -0.0128    constr:    0.0000
     atom:   10    charge:    1.7155    magn:    0.0576    constr:    0.0000
     atom:   11    charge:    1.7174    magn:   -0.0180    constr:    0.0000
     atom:   12    charge:    1.7155    magn:    0.0576    constr:    0.0000
     atom:   13    charge:    1.7175    magn:   -0.0180    constr:    0.0000
     atom:   14    charge:    1.7159    magn:    0.0462    constr:    0.0000
     atom:   15    charge:    1.7144    magn:   -0.0148    constr:    0.0000
     atom:   16    charge:    1.7123    magn:    0.0616    constr:    0.0000
     atom:   17    charge:    1.7236    magn:   -0.0139    constr:    0.0000
     atom:   18    charge:    1.7123    magn:    0.0617    constr:    0.0000
     atom:   19    charge:    1.7144    magn:   -0.0148    constr:    0.0000
     atom:   20    charge:    1.7159    magn:    0.0462    constr:    0.0000
     atom:   21    charge:    1.7175    magn:   -0.0180    constr:    0.0000
     atom:   22    charge:    1.7154    magn:    0.0577    constr:    0.0000
     atom:   23    charge:    1.7170    magn:   -0.0127    constr:    0.0000
     atom:   24    charge:    1.7156    magn:    0.0180    constr:    0.0000
     atom:   25    charge:    1.7143    magn:   -0.0148    constr:    0.0000
     atom:   26    charge:    1.7124    magn:    0.0614    constr:    0.0000
     atom:   27    charge:    1.8743    magn:   -0.0293    constr:    0.0000
     atom:   28    charge:   10.0220    magn:    0.7875    constr:    0.0000
     atom:   29    charge:    1.8741    magn:   -0.0293    constr:    0.0000
     atom:   30    charge:    1.7123    magn:    0.0617    constr:    0.0000
     atom:   31    charge:    1.7144    magn:   -0.0149    constr:    0.0000
     atom:   32    charge:    1.7156    magn:    0.0180    constr:    0.0000
     atom:   33    charge:    1.7177    magn:   -0.0098    constr:    0.0000
     atom:   34    charge:    1.7141    magn:    0.0127    constr:    0.0000
     atom:   35    charge:    1.7177    magn:   -0.0098    constr:    0.0000
     atom:   36    charge:    1.7142    magn:    0.0063    constr:    0.0000
     atom:   37    charge:    1.7234    magn:   -0.0141    constr:    0.0000
     atom:   38    charge:    1.7130    magn:    0.0609    constr:    0.0000
     atom:   39    charge:    1.8752    magn:   -0.0293    constr:    0.0000
     atom:   40    charge:    1.7126    magn:    0.0610    constr:    0.0000
     atom:   41    charge:    1.7235    magn:   -0.0139    constr:    0.0000
     atom:   42    charge:    1.7143    magn:    0.0062    constr:    0.0000
     atom:   43    charge:    1.7176    magn:   -0.0097    constr:    0.0000
     atom:   44    charge:    1.7142    magn:    0.0126    constr:    0.0000
     atom:   45    charge:    1.7233    magn:   -0.0068    constr:    0.0000
     atom:   46    charge:    1.7142    magn:    0.0126    constr:    0.0000
     atom:   47    charge:    1.7176    magn:   -0.0097    constr:    0.0000
     atom:   48    charge:    1.7156    magn:    0.0179    constr:    0.0000
     atom:   49    charge:    1.7142    magn:   -0.0147    constr:    0.0000
     atom:   50    charge:    1.7160    magn:    0.0459    constr:    0.0000
     atom:   51    charge:    1.7143    magn:   -0.0147    constr:    0.0000
     atom:   52    charge:    1.7156    magn:    0.0180    constr:    0.0000

     total cpu time spent up to now is     2192.1 secs

     End of self-consistent calculation

 ------ SPIN UP ------------


          k = 0.0000 0.0000 0.0000 ( 87777 PWs)   bands (ev):

   -80.7079 -50.2149 -50.2136 -49.1274 -19.7796 -18.9439 -18.9432 -18.8523
   -18.8323 -18.8313 -18.4895 -17.0812 -17.0809 -17.0751 -16.9974 -16.9960
   -16.6855 -16.2362 -16.2356 -16.1278 -16.0680 -16.0661 -15.3680 -14.1276
   -14.1251 -14.0589 -13.9937 -13.9932 -13.3280 -13.0680 -13.0672 -13.0401
   -12.7394 -12.7376 -12.3219 -11.8461 -11.8450 -11.6612 -11.3873 -11.3856
   -10.4759  -9.6782  -9.6775  -9.4400  -9.3214  -9.3212  -9.2273  -9.2000
    -9.2000  -9.1857  -8.6987  -8.6962  -8.1695  -8.1684  -8.0658  -7.9810
    -7.8343  -7.4505  -7.4291  -7.3973  -7.2001  -7.1955  -6.9916  -6.9211
    -6.9205  -6.8307  -6.8282  -6.7940  -6.7155  -6.5651  -6.5641  -6.5336
    -6.5239  -6.5235  -6.4784  -6.2926  -5.6491  -5.6011  -5.5258  -5.5242
    -5.3223  -5.3221  -5.0313  -4.9843  -4.8844  -4.7518  -4.7323  -4.7318
    -4.3887  -4.2335  -4.2324  -4.2185  -4.2180  -3.8919  -3.8916  -3.7936
    -3.6705  -3.6704  -3.1212  -2.7612  -2.7586  -1.9025  -1.8053  -1.8048
    -1.3390  -1.1204  -1.1191  -0.8396   0.8995   0.9599   0.9624   1.5607
     1.5647   1.5753   2.4896   2.7519   2.7553   2.8522   2.9892   3.0045
     3.4463   3.4647   3.4677   3.6566   3.6708   3.7283   3.7388   3.7430

     occupation numbers 
     1.0000   1.0000   1.0000   1.0000   1.0000   1.0000   1.0000   1.0000
     1.0000   1.0000   1.0000   1.0000   1.0000   1.0000   1.0000   1.0000
     1.0000   1.0000   1.0000   1.0000   1.0000   1.0000   1.0000   1.0000
     1.0000   1.0000   1.0000   1.0000   1.0000   1.0000   1.0000   1.0000
     1.0000   1.0000   1.0000   1.0000   1.0000   1.0000   1.0000   1.0000
     1.0000   1.0000   1.0000   1.0000   1.0000   1.0000   1.0000   1.0000
     1.0000   1.0000   1.0000   1.0000   1.0000   1.0000   1.0000   1.0000
     1.0000   1.0000   1.0000   1.0000   1.0000   1.0000   1.0000   1.0000
     1.0000   1.0000   1.0000   1.0000   1.0000   1.0000   1.0000   1.0000
     1.0000   1.0000   1.0000   1.0000   1.0000   1.0000   1.0000   1.0000
     1.0000   1.0000   1.0000   1.0000   1.0000   1.0000   1.0000   1.0000
     1.0000   1.0000   1.0000   1.0000   1.0000   1.0000   1.0000   1.0000
     1.0000   1.0000   1.0000   1.0000   1.0000   1.0000   1.0000   1.0000
     1.0000   1.0000   1.0000   1.0000   0.0000   0.0000   0.0000   0.0000
     0.0000   0.0000   0.0000   0.0000   0.0000   0.0000   0.0000   0.0000
     0.0000   0.0000   0.0000   0.0000   0.0000   0.0000   0.0000   0.0000

 ------ SPIN DOWN ----------


          k = 0.0000 0.0000 0.0000 ( 87777 PWs)   bands (ev):

   -79.3673 -49.1441 -49.1409 -47.3646 -19.7379 -18.8957 -18.8951 -18.8148
   -18.8058 -18.8046 -18.4244 -17.0459 -17.0438 -17.0435 -16.9414 -16.9401
   -16.6558 -16.1862 -16.1856 -16.0967 -16.0242 -16.0225 -15.3371 -14.0546
   -14.0515 -13.9905 -13.9836 -13.9831 -13.3346 -13.0415 -13.0408 -13.0075
   -12.7202 -12.7186 -12.2847 -11.8039 -11.8029 -11.6362 -11.3632 -11.3614
   -10.4381  -9.6101  -9.6094  -9.4092  -9.2866  -9.2864  -9.2112  -9.1755
    -9.1754  -9.1682  -8.6827  -8.6803  -8.1196  -8.1187  -8.0343  -7.8781
    -7.8163  -7.4185  -7.4129  -7.2481  -7.1266  -7.0047  -6.8609  -6.8594
    -6.8355  -6.7712  -6.7625  -6.7245  -6.6994  -6.5459  -6.5449  -6.5223
    -6.5110  -6.5104  -6.4609  -6.1430  -5.4879  -5.4865  -5.3629  -5.3120
    -5.2452  -5.2450  -4.9708  -4.8732  -4.6833  -4.6771  -4.6408  -4.6401
    -4.3133  -4.1031  -4.1018  -4.0122  -4.0103  -3.7562  -3.7555  -3.7063
    -3.6516  -3.6514  -3.0477  -2.5036  -2.5004  -1.7803  -1.7799  -1.7329
    -0.8136  -0.5241  -0.5211   0.0305   1.0020   1.0046   1.0562   1.7348
     1.7417   1.7436   2.5179   2.8885   2.8931   2.9217   3.2742   3.2862
     3.5998   3.6498   3.6526   3.7096   3.7230   3.7466   3.7513   3.7590

     occupation numbers 
     1.0000   1.0000   1.0000   1.0000   1.0000   1.0000   1.0000   1.0000
     1.0000   1.0000   1.0000   1.0000   1.0000   1.0000   1.0000   1.0000
     1.0000   1.0000   1.0000   1.0000   1.0000   1.0000   1.0000   1.0000
     1.0000   1.0000   1.0000   1.0000   1.0000   1.0000   1.0000   1.0000
     1.0000   1.0000   1.0000   1.0000   1.0000   1.0000   1.0000   1.0000
     1.0000   1.0000   1.0000   1.0000   1.0000   1.0000   1.0000   1.0000
     1.0000   1.0000   1.0000   1.0000   1.0000   1.0000   1.0000   1.0000
     1.0000   1.0000   1.0000   1.0000   1.0000   1.0000   1.0000   1.0000
     1.0000   1.0000   1.0000   1.0000   1.0000   1.0000   1.0000   1.0000
     1.0000   1.0000   1.0000   1.0000   1.0000   1.0000   1.0000   1.0000
     1.0000   1.0000   1.0000   1.0000   1.0000   1.0000   1.0000   1.0000
     1.0000   1.0000   1.0000   1.0000   1.0000   1.0000   1.0000   1.0000
     1.0000   1.0000   1.0000   1.0000   1.0000   1.0000   1.0000   1.0000
     1.0000   0.0000   0.0000   0.0000   0.0000   0.0000   0.0000   0.0000
     0.0000   0.0000   0.0000   0.0000   0.0000   0.0000   0.0000   0.0000
     0.0000   0.0000   0.0000   0.0000   0.0000   0.0000   0.0000   0.0000

     the Fermi energy is    -0.6710 ev

!    total energy              =    -825.93670962 Ry
     Harris-Foulkes estimate   =    -825.93670969 Ry
     estimated scf accuracy    <       0.00000022 Ry

     The total energy is the sum of the following terms:

     one-electron contribution =   -2733.03855157 Ry
     hartree contribution      =    1411.34978138 Ry
     xc contribution           =    -259.68329435 Ry
     ewald contribution        =     755.43535492 Ry
     smearing contrib. (-TS)   =       0.00000000 Ry

     total magnetization       =     3.00 Bohr mag/cell
     absolute magnetization    =     4.32 Bohr mag/cell

     convergence has been achieved in  18 iterations

     Writing output data file gr-12-baricentro.save/

     init_run     :     76.40s CPU     77.75s WALL (       1 calls)
     electrons    :   2079.16s CPU   2113.40s WALL (       1 calls)

     Called by init_run:
     wfcinit      :     41.81s CPU     42.12s WALL (       1 calls)
     wfcinit:atom :      0.05s CPU      0.09s WALL (       2 calls)
     wfcinit:wfcr :     41.42s CPU     41.63s WALL (       2 calls)
     potinit      :     14.29s CPU     14.74s WALL (       1 calls)
     hinit0       :     11.92s CPU     11.95s WALL (       1 calls)

     Called by electrons:
     c_bands      :   1433.74s CPU   1441.55s WALL (      18 calls)
     sum_band     :    375.41s CPU    386.11s WALL (      18 calls)
     v_of_rho     :    136.32s CPU    143.07s WALL (      19 calls)
     v_h          :      1.48s CPU      1.52s WALL (      19 calls)
     v_xc         :    134.84s CPU    141.55s WALL (      19 calls)
     newd         :    136.30s CPU    145.93s WALL (      19 calls)
     mix_rho      :      7.62s CPU      7.77s WALL (      18 calls)

     Called by c_bands:
     init_us_2    :      3.42s CPU      3.45s WALL (      74 calls)
     cegterg      :   1425.88s CPU   1433.66s WALL (      36 calls)

     Called by sum_band:
     sum_band:bec :      0.03s CPU      0.03s WALL (      36 calls)
     addusdens    :    234.22s CPU    244.06s WALL (      18 calls)

     Called by *egterg:
     h_psi        :    724.03s CPU    729.58s WALL (     180 calls)
     s_psi        :    247.34s CPU    247.41s WALL (     180 calls)
     g_psi        :      0.85s CPU      0.85s WALL (     142 calls)
     cdiaghg      :     15.20s CPU     15.21s WALL (     178 calls)
     cegterg:over :    196.39s CPU    196.46s WALL (     142 calls)
     cegterg:upda :    133.20s CPU    133.95s WALL (     142 calls)
     cegterg:last :     84.41s CPU     84.42s WALL (      38 calls)

     Called by h_psi:
     h_psi:pot    :    723.18s CPU    727.82s WALL (     180 calls)
     h_psi:calbec :    243.92s CPU    244.00s WALL (     180 calls)
     vloc_psi     :    232.63s CPU    237.14s WALL (     180 calls)
     add_vuspsi   :    246.62s CPU    246.68s WALL (     180 calls)

     General routines
     calbec       :    331.03s CPU    331.12s WALL (     216 calls)
     fft          :     78.33s CPU     81.06s WALL (    1419 calls)
     ffts         :      1.35s CPU      1.40s WALL (      74 calls)
     fftw         :    237.67s CPU    242.40s WALL (   30458 calls)
     interpolate  :      3.23s CPU      3.33s WALL (      38 calls)

     Parallel routines
     fft_scatt_xy :     58.46s CPU     59.33s WALL (   31951 calls)
     fft_scatt_yz :    100.90s CPU    106.31s WALL (   31951 calls)

     PWSCF        :  35m56.82s CPU  36m32.79s WALL


   This run was terminated on:   6:46:15  11Aug2022            

=------------------------------------------------------------------------------=
   JOB DONE.
=------------------------------------------------------------------------------=
