
     Program PWSCF v.6.4.1 starts on  4Sep2022 at 10:39:43 

     This program is part of the open-source Quantum ESPRESSO suite
     for quantum simulation of materials; please cite
         "P. Giannozzi et al., J. Phys.:Condens. Matter 21 395502 (2009);
         "P. Giannozzi et al., J. Phys.:Condens. Matter 29 465901 (2017);
          URL http://www.quantum-espresso.org", 
     in publications or presentations arising from this work. More details at
     http://www.quantum-espresso.org/quote

     Parallel version (MPI), running on     6 processors

     MPI processes distributed on     1 nodes
     R & G space division:  proc/nbgrp/npool/nimage =       6
     Reading input from distance-4.5.in

     Current dimensions of program PWSCF are:
     Max number of different atomic species (ntypx) = 10
     Max number of k-points (npk) =  40000
     Max angular momentum in pseudopotentials (lmaxx) =  3

     IMPORTANT: XC functional enforced from input :
     Exchange-correlation      = RVV10 ( 1  4 13  4 3 0)
     Any further DFT definition will be discarded
     Please, verify this is what you really want

               file H.pbe-rrkjus.UPF: wavefunction(s)  1S renormalized
               file Mn.pbe-spn-rrkjus_psl.0.3.1.UPF: wavefunction(s)  3D renormalized

     Subspace diagonalization in iterative solution of the eigenvalue problem:
     a serial algorithm will be used


     Parallelization info
     --------------------
     sticks:   dense  smooth     PW     G-vecs:    dense   smooth      PW
     Min        3051    1746    432               270999   117096   14629
     Max        3053    1747    437               271001   117099   14630
     Sum       18313   10477   2611              1626001   702581   87777



     bravais-lattice index     =            4
     lattice parameter (alat)  =      23.2937  a.u.
     unit-cell volume          =    8879.8548 (a.u.)^3
     number of atoms/cell      =           52
     number of atomic types    =            3
     number of electrons       =       213.00
     number of Kohn-Sham states=          128
     kinetic-energy cutoff     =      70.0000  Ry
     charge density cutoff     =     490.0000  Ry
     convergence threshold     =      1.0E-06
     mixing beta               =       0.7000
     number of iterations used =            8  plain     mixing
     Exchange-correlation      = RVV10 ( 1  4 13  4 3 0)

     celldm(1)=  23.293684  celldm(2)=   0.000000  celldm(3)=   0.811261
     celldm(4)=   0.000000  celldm(5)=   0.000000  celldm(6)=   0.000000

     crystal axes: (cart. coord. in units of alat)
               a(1) = (   1.000000   0.000000   0.000000 )  
               a(2) = (  -0.500000   0.866025   0.000000 )  
               a(3) = (   0.000000   0.000000   0.811261 )  

     reciprocal axes: (cart. coord. in units 2 pi/alat)
               b(1) = (  1.000000  0.577350 -0.000000 )  
               b(2) = (  0.000000  1.154701  0.000000 )  
               b(3) = (  0.000000 -0.000000  1.232649 )  


     PseudoPot. # 1 for H  read from file:
     /home/cristian/Escritorio/Proyecto_Grafeno/pseudopotenciales/H.pbe-rrkjus.UPF
     MD5 check sum: 7cc9d459525c9a0585f487a71c3c9563
     Pseudo is Ultrasoft, Zval =  1.0
     Generated by new atomic code, or converted to UPF format
     Using radial grid of 1061 points,  2 beta functions with: 
                l(1) =   0
                l(2) =   0
     Q(r) pseudized with 0 coefficients 


     PseudoPot. # 2 for C  read from file:
     /home/cristian/Escritorio/Proyecto_Grafeno/pseudopotenciales/C.pbe-n-rrkjus_psl.1.0.0.UPF
     MD5 check sum: 1fdd950c42eb37d8afe3dd2f8d12311e
     Pseudo is Ultrasoft + core correction, Zval =  4.0
     Generated using "atomic" code by A. Dal Corso v.6.3MaX
     Using radial grid of 1073 points,  4 beta functions with: 
                l(1) =   0
                l(2) =   0
                l(3) =   1
                l(4) =   1
     Q(r) pseudized with 0 coefficients 


     PseudoPot. # 3 for Mn read from file:
     /home/cristian/Escritorio/Proyecto_Grafeno/pseudopotenciales/Mn.pbe-spn-rrkjus_psl.0.3.1.UPF
     MD5 check sum: e1cac159bdd2ba70c18e85765a5d4279
     Pseudo is Ultrasoft + core correction, Zval = 15.0
     Generated using "atomic" code by A. Dal Corso v.6.2.2
     Using radial grid of 1187 points,  6 beta functions with: 
                l(1) =   0
                l(2) =   0
                l(3) =   1
                l(4) =   1
                l(5) =   2
                l(6) =   2
     Q(r) pseudized with 0 coefficients 


     vdW kernel table read from file rVV10_kernel_table
     MD5 check sum: b8e2538accc0c0b3206b45ba4daaba6c

     atomic species   valence    mass     pseudopotential
        H              1.00     1.00794     H ( 1.00)
        C              4.00    12.01070     C ( 1.00)
        Mn            15.00    54.93804     Mn( 1.00)

     No symmetry found


                                    s                        frac. trans.

      isym =  1     identity                                     

 cryst.   s( 1) = (     1          0          0      )
                  (     0          1          0      )
                  (     0          0          1      )

 cart.    s( 1) = (  1.0000000  0.0000000  0.0000000 )
                  (  0.0000000  1.0000000  0.0000000 )
                  (  0.0000000  0.0000000  1.0000000 )


     point group C_1 (1)    
     there are  1 classes
     the character table:

       E    
A      1.00

     the symmetry operations in each class and the name of the first element:

     E        1
          identity                                               

   Cartesian axes

     site n.     atom                  positions (alat units)
         1           H   tau(   1) = (   0.2361603   0.4618802   0.3650675  )
         2           H   tau(   2) = (   0.2971730   0.4618802   0.3650675  )
         3           C   tau(   3) = (   0.0000000   0.0000000   0.0000000  )
         4           C   tau(   4) = (   0.0000000   0.1154701   0.0000000  )
         5           C   tau(   5) = (  -0.1000000   0.1732051   0.0000000  )
         6           C   tau(   6) = (  -0.1000000   0.2886751   0.0000000  )
         7           C   tau(   7) = (  -0.2000000   0.3464102   0.0000000  )
         8           C   tau(   8) = (  -0.2000000   0.4618802   0.0000000  )
         9           C   tau(   9) = (  -0.3000000   0.5196152   0.0000000  )
        10           C   tau(  10) = (  -0.3000000   0.6350853   0.0000000  )
        11           C   tau(  11) = (  -0.4000000   0.6928203   0.0000000  )
        12           C   tau(  12) = (  -0.4000000   0.8082904   0.0000000  )
        13           C   tau(  13) = (   0.2000000   0.0000000   0.0000000  )
        14           C   tau(  14) = (   0.2000000   0.1154701   0.0000000  )
        15           C   tau(  15) = (   0.1000000   0.1732051   0.0000000  )
        16           C   tau(  16) = (   0.1000000   0.2886751   0.0000000  )
        17           C   tau(  17) = (   0.0000000   0.3464102   0.0000000  )
        18           C   tau(  18) = (   0.0000000   0.4618802   0.0000000  )
        19           C   tau(  19) = (  -0.1000000   0.5196152   0.0000000  )
        20           C   tau(  20) = (  -0.1000000   0.6350853   0.0000000  )
        21           C   tau(  21) = (  -0.2000000   0.6928203   0.0000000  )
        22           C   tau(  22) = (  -0.2000000   0.8082904   0.0000000  )
        23           C   tau(  23) = (   0.4000000   0.0000000   0.0000000  )
        24           C   tau(  24) = (   0.4000000   0.1154701   0.0000000  )
        25           C   tau(  25) = (   0.3000000   0.1732051   0.0000000  )
        26           C   tau(  26) = (   0.3000000   0.2886751   0.0000000  )
        27           C   tau(  27) = (   0.2000000   0.3464102   0.0000000  )
        28           Mn  tau(  28) = (   0.2000000   0.4618802   0.0000000  )
        29           C   tau(  29) = (   0.1000000   0.5196152   0.0000000  )
        30           C   tau(  30) = (   0.1000000   0.6350853   0.0000000  )
        31           C   tau(  31) = (   0.0000000   0.6928203   0.0000000  )
        32           C   tau(  32) = (   0.0000000   0.8082904   0.0000000  )
        33           C   tau(  33) = (   0.6000000   0.0000000   0.0000000  )
        34           C   tau(  34) = (   0.6000000   0.1154701   0.0000000  )
        35           C   tau(  35) = (   0.5000000   0.1732051   0.0000000  )
        36           C   tau(  36) = (   0.5000000   0.2886751   0.0000000  )
        37           C   tau(  37) = (   0.4000000   0.3464102   0.0000000  )
        38           C   tau(  38) = (   0.4000000   0.4618802   0.0000000  )
        39           C   tau(  39) = (   0.3000000   0.5196152   0.0000000  )
        40           C   tau(  40) = (   0.3000000   0.6350853   0.0000000  )
        41           C   tau(  41) = (   0.2000000   0.6928203   0.0000000  )
        42           C   tau(  42) = (   0.2000000   0.8082904   0.0000000  )
        43           C   tau(  43) = (   0.8000000   0.0000000   0.0000000  )
        44           C   tau(  44) = (   0.8000000   0.1154701   0.0000000  )
        45           C   tau(  45) = (   0.7000000   0.1732051   0.0000000  )
        46           C   tau(  46) = (   0.7000000   0.2886751   0.0000000  )
        47           C   tau(  47) = (   0.6000000   0.3464102   0.0000000  )
        48           C   tau(  48) = (   0.6000000   0.4618802   0.0000000  )
        49           C   tau(  49) = (   0.5000000   0.5196152   0.0000000  )
        50           C   tau(  50) = (   0.5000000   0.6350853   0.0000000  )
        51           C   tau(  51) = (   0.4000000   0.6928203   0.0000000  )
        52           C   tau(  52) = (   0.4000000   0.8082904   0.0000000  )

   Crystallographic axes

     site n.     atom                  positions (cryst. coord.)
         1           H   tau(   1) = (  0.5028270  0.5333333  0.4500000  )
         2           H   tau(   2) = (  0.5638397  0.5333333  0.4500000  )
         3           C   tau(   3) = (  0.0000000  0.0000000  0.0000000  )
         4           C   tau(   4) = (  0.0666667  0.1333333  0.0000000  )
         5           C   tau(   5) = (  0.0000000  0.2000000  0.0000000  )
         6           C   tau(   6) = (  0.0666667  0.3333333  0.0000000  )
         7           C   tau(   7) = (  0.0000000  0.4000000  0.0000000  )
         8           C   tau(   8) = (  0.0666667  0.5333333  0.0000000  )
         9           C   tau(   9) = (  0.0000000  0.6000000  0.0000000  )
        10           C   tau(  10) = (  0.0666667  0.7333333  0.0000000  )
        11           C   tau(  11) = (  0.0000000  0.8000000  0.0000000  )
        12           C   tau(  12) = (  0.0666667  0.9333333  0.0000000  )
        13           C   tau(  13) = (  0.2000000  0.0000000  0.0000000  )
        14           C   tau(  14) = (  0.2666667  0.1333333  0.0000000  )
        15           C   tau(  15) = (  0.2000000  0.2000000  0.0000000  )
        16           C   tau(  16) = (  0.2666667  0.3333333  0.0000000  )
        17           C   tau(  17) = (  0.2000000  0.4000000  0.0000000  )
        18           C   tau(  18) = (  0.2666667  0.5333333  0.0000000  )
        19           C   tau(  19) = (  0.2000000  0.6000000  0.0000000  )
        20           C   tau(  20) = (  0.2666667  0.7333333  0.0000000  )
        21           C   tau(  21) = (  0.2000000  0.8000000  0.0000000  )
        22           C   tau(  22) = (  0.2666667  0.9333333  0.0000000  )
        23           C   tau(  23) = (  0.4000000  0.0000000  0.0000000  )
        24           C   tau(  24) = (  0.4666667  0.1333333  0.0000000  )
        25           C   tau(  25) = (  0.4000000  0.2000000  0.0000000  )
        26           C   tau(  26) = (  0.4666667  0.3333333  0.0000000  )
        27           C   tau(  27) = (  0.4000000  0.4000000  0.0000000  )
        28           Mn  tau(  28) = (  0.4666667  0.5333333  0.0000000  )
        29           C   tau(  29) = (  0.4000000  0.6000000  0.0000000  )
        30           C   tau(  30) = (  0.4666667  0.7333333  0.0000000  )
        31           C   tau(  31) = (  0.4000000  0.8000000  0.0000000  )
        32           C   tau(  32) = (  0.4666667  0.9333333  0.0000000  )
        33           C   tau(  33) = (  0.6000000  0.0000000  0.0000000  )
        34           C   tau(  34) = (  0.6666667  0.1333333  0.0000000  )
        35           C   tau(  35) = (  0.6000000  0.2000000  0.0000000  )
        36           C   tau(  36) = (  0.6666667  0.3333333  0.0000000  )
        37           C   tau(  37) = (  0.6000000  0.4000000  0.0000000  )
        38           C   tau(  38) = (  0.6666667  0.5333333  0.0000000  )
        39           C   tau(  39) = (  0.6000000  0.6000000  0.0000000  )
        40           C   tau(  40) = (  0.6666667  0.7333333  0.0000000  )
        41           C   tau(  41) = (  0.6000000  0.8000000  0.0000000  )
        42           C   tau(  42) = (  0.6666667  0.9333333  0.0000000  )
        43           C   tau(  43) = (  0.8000000  0.0000000  0.0000000  )
        44           C   tau(  44) = (  0.8666667  0.1333333  0.0000000  )
        45           C   tau(  45) = (  0.8000000  0.2000000  0.0000000  )
        46           C   tau(  46) = (  0.8666667  0.3333333  0.0000000  )
        47           C   tau(  47) = (  0.8000000  0.4000000  0.0000000  )
        48           C   tau(  48) = (  0.8666667  0.5333333  0.0000000  )
        49           C   tau(  49) = (  0.8000000  0.6000000  0.0000000  )
        50           C   tau(  50) = (  0.8666667  0.7333333  0.0000000  )
        51           C   tau(  51) = (  0.8000000  0.8000000  0.0000000  )
        52           C   tau(  52) = (  0.8666667  0.9333333  0.0000000  )

     number of k points=     1  Marzari-Vanderbilt smearing, width (Ry)=  0.0010
                       cart. coord. in units 2pi/alat
        k(    1) = (   0.0000000   0.0000000   0.0000000), wk =   2.0000000

                       cryst. coord.
        k(    1) = (   0.0000000   0.0000000   0.0000000), wk =   2.0000000

     Dense  grid:  1626001 G-vectors     FFT dimensions: ( 180, 180, 135)

     Smooth grid:   702581 G-vectors     FFT dimensions: ( 125, 125, 108)

     Dynamical RAM for                 wfc:      28.59 MB

     Dynamical RAM for     wfc (w. buffer):      28.59 MB

     Dynamical RAM for           str. fact:      12.41 MB

     Dynamical RAM for           local pot:       0.00 MB

     Dynamical RAM for          nlocal pot:      92.46 MB

     Dynamical RAM for                qrad:      19.73 MB

     Dynamical RAM for          rho,v,vnew:      29.46 MB

     Dynamical RAM for               rhoin:       9.82 MB

     Dynamical RAM for            rho*nmix:      66.16 MB

     Dynamical RAM for           G-vectors:      16.40 MB

     Dynamical RAM for          h,s,v(r/c):      12.00 MB

     Dynamical RAM for          <psi|beta>:       0.81 MB

     Dynamical RAM for                 psi:     114.35 MB

     Dynamical RAM for                hpsi:     114.35 MB

     Dynamical RAM for                spsi:     114.35 MB

     Dynamical RAM for      wfcinit/wfcrot:      93.90 MB

     Dynamical RAM for           addusdens:     971.75 MB

     Estimated static dynamical RAM per process >     320.00 MB

     Estimated max dynamical RAM per process >       1.26 GB

     Estimated total dynamical RAM >       7.57 GB

     Check: negative core charge=   -0.000002

     Initial potential from superposition of free atoms

     starting charge  212.80506, renormalised to  213.00000

     negative rho (up, down):  5.879E-05 0.000E+00


---------------------------------------------------------------------------------
Carrying out rVV10 run using the following parameters:
Nqs =      20    Nr_points =    1024   r_max =   100.000
b_value =  6.30000    beta =  0.00901
     q_mesh =  0.00010000  0.00030000  0.00058939  0.00100810
               0.00161396  0.00249058  0.00375900  0.00559430
               0.00824984  0.01209221  0.01765183  0.02569619
               0.03733578  0.05417739  0.07854596  0.11380545
               0.16482331  0.23864234  0.34545298  0.50000000

Gradients computed in Reciprocal space

---------------------------------------------------------------------------------


     Starting wfcs are  208 randomized atomic wfcs

     total cpu time spent up to now is       50.8 secs

     Self-consistent Calculation

     iteration #  1     ecut=    70.00 Ry     beta= 0.70
     Davidson diagonalization with overlap
     ethr =  1.00E-02,  avg # of iterations =  2.0

     negative rho (up, down):  1.019E-04 0.000E+00

     total cpu time spent up to now is      117.4 secs

     total energy              =    -823.87834095 Ry
     Harris-Foulkes estimate   =    -828.72482075 Ry
     estimated scf accuracy    <       7.44862408 Ry

     iteration #  2     ecut=    70.00 Ry     beta= 0.70
     Davidson diagonalization with overlap
     ethr =  3.50E-03,  avg # of iterations =  6.0

     negative rho (up, down):  1.217E-04 0.000E+00

     total cpu time spent up to now is      185.1 secs

     total energy              =    -815.87901350 Ry
     Harris-Foulkes estimate   =    -831.36974071 Ry
     estimated scf accuracy    <      65.60403621 Ry

     iteration #  3     ecut=    70.00 Ry     beta= 0.70
     Davidson diagonalization with overlap
     ethr =  3.50E-03,  avg # of iterations =  5.0

     negative rho (up, down):  1.642E-04 0.000E+00

     total cpu time spent up to now is      267.5 secs

     total energy              =    -824.88022847 Ry
     Harris-Foulkes estimate   =    -827.39248941 Ry
     estimated scf accuracy    <      13.36407483 Ry

     iteration #  4     ecut=    70.00 Ry     beta= 0.70
     Davidson diagonalization with overlap
     ethr =  3.50E-03,  avg # of iterations =  4.0

     negative rho (up, down):  1.823E-04 0.000E+00

     total cpu time spent up to now is      318.5 secs

     total energy              =    -825.71683016 Ry
     Harris-Foulkes estimate   =    -826.32521329 Ry
     estimated scf accuracy    <       1.93024936 Ry

     iteration #  5     ecut=    70.00 Ry     beta= 0.70
     Davidson diagonalization with overlap
     ethr =  9.06E-04,  avg # of iterations =  3.0

     negative rho (up, down):  1.973E-04 0.000E+00

     total cpu time spent up to now is      371.3 secs

     total energy              =    -825.88169682 Ry
     Harris-Foulkes estimate   =    -825.95410900 Ry
     estimated scf accuracy    <       0.47361374 Ry

     iteration #  6     ecut=    70.00 Ry     beta= 0.70
     Davidson diagonalization with overlap
     ethr =  2.22E-04,  avg # of iterations =  2.0

     negative rho (up, down):  2.150E-04 0.000E+00

     total cpu time spent up to now is      421.3 secs

     total energy              =    -825.89815330 Ry
     Harris-Foulkes estimate   =    -825.94053933 Ry
     estimated scf accuracy    <       0.32020843 Ry

     iteration #  7     ecut=    70.00 Ry     beta= 0.70
     Davidson diagonalization with overlap
     ethr =  1.50E-04,  avg # of iterations =  1.0

     negative rho (up, down):  2.458E-04 0.000E+00

     total cpu time spent up to now is      470.4 secs

     total energy              =    -825.87665862 Ry
     Harris-Foulkes estimate   =    -825.92002237 Ry
     estimated scf accuracy    <       0.38647908 Ry

     iteration #  8     ecut=    70.00 Ry     beta= 0.70
     Davidson diagonalization with overlap
     ethr =  1.50E-04,  avg # of iterations =  2.0

     negative rho (up, down):  3.292E-04 0.000E+00

     total cpu time spent up to now is      520.0 secs

     total energy              =    -825.91029897 Ry
     Harris-Foulkes estimate   =    -825.92834628 Ry
     estimated scf accuracy    <       0.30820508 Ry

     iteration #  9     ecut=    70.00 Ry     beta= 0.70
     Davidson diagonalization with overlap
     ethr =  1.45E-04,  avg # of iterations =  1.0

     negative rho (up, down):  4.203E-04 0.000E+00

     total cpu time spent up to now is      569.3 secs

     total energy              =    -825.90398284 Ry
     Harris-Foulkes estimate   =    -825.91551488 Ry
     estimated scf accuracy    <       0.29284497 Ry

     iteration # 10     ecut=    70.00 Ry     beta= 0.70
     Davidson diagonalization with overlap
     ethr =  1.37E-04,  avg # of iterations =  1.0

     negative rho (up, down):  4.891E-04 0.000E+00

     total cpu time spent up to now is      618.6 secs

     total energy              =    -825.90235793 Ry
     Harris-Foulkes estimate   =    -825.91156253 Ry
     estimated scf accuracy    <       0.25119024 Ry

     iteration # 11     ecut=    70.00 Ry     beta= 0.70
     Davidson diagonalization with overlap
     ethr =  1.18E-04,  avg # of iterations =  1.0

     negative rho (up, down):  5.927E-04 0.000E+00

     total cpu time spent up to now is      667.8 secs

     total energy              =    -825.90038232 Ry
     Harris-Foulkes estimate   =    -825.90672510 Ry
     estimated scf accuracy    <       0.22698090 Ry

     iteration # 12     ecut=    70.00 Ry     beta= 0.70
     Davidson diagonalization with overlap
     ethr =  1.07E-04,  avg # of iterations =  1.0

     negative rho (up, down):  5.865E-04 0.000E+00

     total cpu time spent up to now is      717.1 secs

     total energy              =    -825.89969467 Ry
     Harris-Foulkes estimate   =    -825.90183365 Ry
     estimated scf accuracy    <       0.18754607 Ry

     iteration # 13     ecut=    70.00 Ry     beta= 0.70
     Davidson diagonalization with overlap
     ethr =  8.80E-05,  avg # of iterations =  1.0

     negative rho (up, down):  5.821E-04 0.000E+00

     total cpu time spent up to now is      766.2 secs

     total energy              =    -825.89818687 Ry
     Harris-Foulkes estimate   =    -825.90032475 Ry
     estimated scf accuracy    <       0.20638680 Ry

     iteration # 14     ecut=    70.00 Ry     beta= 0.70
     Davidson diagonalization with overlap
     ethr =  8.80E-05,  avg # of iterations =  1.0

     negative rho (up, down):  5.713E-04 0.000E+00

     total cpu time spent up to now is      815.8 secs

     total energy              =    -825.89857250 Ry
     Harris-Foulkes estimate   =    -825.90062823 Ry
     estimated scf accuracy    <       0.22561168 Ry

     iteration # 15     ecut=    70.00 Ry     beta= 0.70
     Davidson diagonalization with overlap
     ethr =  8.80E-05,  avg # of iterations =  1.0

     negative rho (up, down):  4.807E-04 0.000E+00

     total cpu time spent up to now is      865.6 secs

     total energy              =    -825.88176381 Ry
     Harris-Foulkes estimate   =    -825.89867186 Ry
     estimated scf accuracy    <       0.19765748 Ry

     iteration # 16     ecut=    70.00 Ry     beta= 0.70
     Davidson diagonalization with overlap
     ethr =  8.80E-05,  avg # of iterations =  1.0

     negative rho (up, down):  6.024E-04 0.000E+00

     total cpu time spent up to now is      914.7 secs

     total energy              =    -825.90241118 Ry
     Harris-Foulkes estimate   =    -825.91332031 Ry
     estimated scf accuracy    <       0.39343865 Ry

     iteration # 17     ecut=    70.00 Ry     beta= 0.70
     Davidson diagonalization with overlap
     ethr =  8.80E-05,  avg # of iterations =  1.0

     negative rho (up, down):  5.645E-04 0.000E+00

     total cpu time spent up to now is      964.1 secs

     total energy              =    -825.89576351 Ry
     Harris-Foulkes estimate   =    -825.92298814 Ry
     estimated scf accuracy    <       0.51236417 Ry

     iteration # 18     ecut=    70.00 Ry     beta= 0.70
     Davidson diagonalization with overlap
     ethr =  8.80E-05,  avg # of iterations =  1.0

     negative rho (up, down):  5.655E-04 0.000E+00

     total cpu time spent up to now is     1013.3 secs

     total energy              =    -825.89959504 Ry
     Harris-Foulkes estimate   =    -825.90204201 Ry
     estimated scf accuracy    <       0.22997770 Ry

     iteration # 19     ecut=    70.00 Ry     beta= 0.70
     Davidson diagonalization with overlap
     ethr =  8.80E-05,  avg # of iterations =  1.0

     negative rho (up, down):  5.647E-04 0.000E+00

     total cpu time spent up to now is     1062.5 secs

     total energy              =    -825.89632806 Ry
     Harris-Foulkes estimate   =    -825.89983834 Ry
     estimated scf accuracy    <       0.21755215 Ry

     iteration # 20     ecut=    70.00 Ry     beta= 0.70
     Davidson diagonalization with overlap
     ethr =  8.80E-05,  avg # of iterations =  1.0

     negative rho (up, down):  5.657E-04 0.000E+00

     total cpu time spent up to now is     1111.6 secs

     total energy              =    -825.90079450 Ry
     Harris-Foulkes estimate   =    -825.89636661 Ry
     estimated scf accuracy    <       0.26394457 Ry

     iteration # 21     ecut=    70.00 Ry     beta= 0.70
     Davidson diagonalization with overlap
     ethr =  8.80E-05,  avg # of iterations =  1.0

     negative rho (up, down):  5.697E-04 0.000E+00

     total cpu time spent up to now is     1161.8 secs

     total energy              =    -825.89380716 Ry
     Harris-Foulkes estimate   =    -825.90049259 Ry
     estimated scf accuracy    <       0.21959968 Ry

     iteration # 22     ecut=    70.00 Ry     beta= 0.70
     Davidson diagonalization with overlap
     ethr =  8.80E-05,  avg # of iterations =  1.0

     negative rho (up, down):  5.668E-04 0.000E+00

     total cpu time spent up to now is     1211.2 secs

     total energy              =    -825.89465303 Ry
     Harris-Foulkes estimate   =    -825.89501368 Ry
     estimated scf accuracy    <       0.01492085 Ry

     iteration # 23     ecut=    70.00 Ry     beta= 0.70
     Davidson diagonalization with overlap
     ethr =  7.01E-06,  avg # of iterations = 10.0

     negative rho (up, down):  5.718E-04 0.000E+00

     total cpu time spent up to now is     1265.5 secs

     total energy              =    -825.89484769 Ry
     Harris-Foulkes estimate   =    -825.90131847 Ry
     estimated scf accuracy    <       0.17826127 Ry

     iteration # 24     ecut=    70.00 Ry     beta= 0.70
     Davidson diagonalization with overlap
     ethr =  7.01E-06,  avg # of iterations =  2.0

     negative rho (up, down):  5.733E-04 0.000E+00

     total cpu time spent up to now is     1315.0 secs

     total energy              =    -825.89292780 Ry
     Harris-Foulkes estimate   =    -825.89596097 Ry
     estimated scf accuracy    <       0.14157999 Ry

     iteration # 25     ecut=    70.00 Ry     beta= 0.70
     Davidson diagonalization with overlap
     ethr =  7.01E-06,  avg # of iterations =  1.0

     negative rho (up, down):  5.702E-04 0.000E+00

     total cpu time spent up to now is     1364.3 secs

     total energy              =    -825.89452502 Ry
     Harris-Foulkes estimate   =    -825.89566704 Ry
     estimated scf accuracy    <       0.22039157 Ry

     iteration # 26     ecut=    70.00 Ry     beta= 0.70
     Davidson diagonalization with overlap
     ethr =  7.01E-06,  avg # of iterations =  1.0

     negative rho (up, down):  5.699E-04 0.000E+00

     total cpu time spent up to now is     1413.8 secs

     total energy              =    -825.89441682 Ry
     Harris-Foulkes estimate   =    -825.89494895 Ry
     estimated scf accuracy    <       0.04355698 Ry

     iteration # 27     ecut=    70.00 Ry     beta= 0.70
     Davidson diagonalization with overlap
     ethr =  7.01E-06,  avg # of iterations =  1.0

     negative rho (up, down):  5.703E-04 0.000E+00

     total cpu time spent up to now is     1463.4 secs

     total energy              =    -825.89480103 Ry
     Harris-Foulkes estimate   =    -825.89486377 Ry
     estimated scf accuracy    <       0.00662893 Ry

     iteration # 28     ecut=    70.00 Ry     beta= 0.70
     Davidson diagonalization with overlap
     ethr =  3.11E-06,  avg # of iterations =  1.0

     negative rho (up, down):  5.710E-04 0.000E+00

     total cpu time spent up to now is     1512.7 secs

     total energy              =    -825.89486003 Ry
     Harris-Foulkes estimate   =    -825.89486223 Ry
     estimated scf accuracy    <       0.02062144 Ry

     iteration # 29     ecut=    70.00 Ry     beta= 0.70
     Davidson diagonalization with overlap
     ethr =  3.11E-06,  avg # of iterations =  1.0

     negative rho (up, down):  5.712E-04 0.000E+00

     total cpu time spent up to now is     1562.1 secs

     total energy              =    -825.89485791 Ry
     Harris-Foulkes estimate   =    -825.89486239 Ry
     estimated scf accuracy    <       0.02317514 Ry

     iteration # 30     ecut=    70.00 Ry     beta= 0.70
     Davidson diagonalization with overlap
     ethr =  3.11E-06,  avg # of iterations =  1.0

     negative rho (up, down):  5.716E-04 0.000E+00

     total cpu time spent up to now is     1611.3 secs

     total energy              =    -825.89475648 Ry
     Harris-Foulkes estimate   =    -825.89485865 Ry
     estimated scf accuracy    <       0.02183227 Ry

     iteration # 31     ecut=    70.00 Ry     beta= 0.70
     Davidson diagonalization with overlap
     ethr =  3.11E-06,  avg # of iterations =  1.0

     negative rho (up, down):  5.714E-04 0.000E+00

     total cpu time spent up to now is     1660.5 secs

     total energy              =    -825.89474354 Ry
     Harris-Foulkes estimate   =    -825.89479162 Ry
     estimated scf accuracy    <       0.00247726 Ry

     iteration # 32     ecut=    70.00 Ry     beta= 0.70
     Davidson diagonalization with overlap
     ethr =  1.16E-06,  avg # of iterations =  1.0

     negative rho (up, down):  5.710E-04 0.000E+00

     total cpu time spent up to now is     1709.7 secs

     total energy              =    -825.89477068 Ry
     Harris-Foulkes estimate   =    -825.89477920 Ry
     estimated scf accuracy    <       0.00174413 Ry

     iteration # 33     ecut=    70.00 Ry     beta= 0.70
     Davidson diagonalization with overlap
     ethr =  8.19E-07,  avg # of iterations =  1.0

     negative rho (up, down):  5.707E-04 0.000E+00

     total cpu time spent up to now is     1759.0 secs

     total energy              =    -825.89476161 Ry
     Harris-Foulkes estimate   =    -825.89478627 Ry
     estimated scf accuracy    <       0.00165374 Ry

     iteration # 34     ecut=    70.00 Ry     beta= 0.70
     Davidson diagonalization with overlap
     ethr =  7.76E-07,  avg # of iterations =  1.0

     negative rho (up, down):  5.707E-04 0.000E+00

     total cpu time spent up to now is     1808.2 secs

     total energy              =    -825.89477061 Ry
     Harris-Foulkes estimate   =    -825.89477330 Ry
     estimated scf accuracy    <       0.00005528 Ry

     iteration # 35     ecut=    70.00 Ry     beta= 0.70
     Davidson diagonalization with overlap
     ethr =  2.60E-08,  avg # of iterations =  1.0

     negative rho (up, down):  5.707E-04 0.000E+00

     total cpu time spent up to now is     1857.4 secs

     total energy              =    -825.89477055 Ry
     Harris-Foulkes estimate   =    -825.89477466 Ry
     estimated scf accuracy    <       0.00015616 Ry

     iteration # 36     ecut=    70.00 Ry     beta= 0.70
     Davidson diagonalization with overlap
     ethr =  2.60E-08,  avg # of iterations =  1.0

     negative rho (up, down):  5.706E-04 0.000E+00

     total cpu time spent up to now is     1906.7 secs

     total energy              =    -825.89477249 Ry
     Harris-Foulkes estimate   =    -825.89477294 Ry
     estimated scf accuracy    <       0.00000431 Ry

     iteration # 37     ecut=    70.00 Ry     beta= 0.70
     Davidson diagonalization with overlap
     ethr =  2.02E-09,  avg # of iterations =  1.0

     negative rho (up, down):  5.706E-04 0.000E+00

     total cpu time spent up to now is     1955.9 secs

     total energy              =    -825.89477232 Ry
     Harris-Foulkes estimate   =    -825.89477333 Ry
     estimated scf accuracy    <       0.00002605 Ry

     iteration # 38     ecut=    70.00 Ry     beta= 0.70
     Davidson diagonalization with overlap
     ethr =  2.02E-09,  avg # of iterations =  1.0

     negative rho (up, down):  5.706E-04 0.000E+00

     total cpu time spent up to now is     2005.2 secs

     total energy              =    -825.89477278 Ry
     Harris-Foulkes estimate   =    -825.89477282 Ry
     estimated scf accuracy    <       0.00000417 Ry

     iteration # 39     ecut=    70.00 Ry     beta= 0.70
     Davidson diagonalization with overlap
     ethr =  1.96E-09,  avg # of iterations =  1.0

     negative rho (up, down):  5.706E-04 0.000E+00

     total cpu time spent up to now is     2054.5 secs

     total energy              =    -825.89477277 Ry
     Harris-Foulkes estimate   =    -825.89477283 Ry
     estimated scf accuracy    <       0.00000157 Ry

     iteration # 40     ecut=    70.00 Ry     beta= 0.70
     Davidson diagonalization with overlap
     ethr =  7.37E-10,  avg # of iterations =  1.0

     negative rho (up, down):  5.706E-04 0.000E+00

     total cpu time spent up to now is     2103.5 secs

     End of self-consistent calculation

          k = 0.0000 0.0000 0.0000 ( 87777 PWs)   bands (ev):

   -80.0149 -49.6562 -49.6557 -48.2282 -19.7614 -18.9235 -18.9234 -18.8364
   -18.8180 -18.8179 -18.4568 -17.0633 -17.0632 -17.0626 -16.9707 -16.9706
   -16.6744 -16.2121 -16.2120 -16.1132 -16.0484 -16.0482 -15.3533 -14.0948
   -14.0948 -14.0234 -13.9907 -13.9906 -13.3300 -13.0566 -13.0566 -13.0272
   -12.7309 -12.7308 -12.3037 -11.8266 -11.8265 -11.6485 -11.3746 -11.3746
   -10.4544  -9.6400  -9.6399  -9.4287  -9.3048  -9.3048  -9.2237  -9.1896
    -9.1896  -9.1798  -8.6911  -8.6910  -8.1429  -8.1428  -8.0494  -7.8960
    -7.8266  -7.4236  -7.4234  -7.1635  -7.0952  -7.0943  -6.8895  -6.8895
    -6.8007  -6.8002  -6.7924  -6.7101  -6.5556  -6.5555  -6.5301  -6.5198
    -6.5197  -6.4929  -6.4716  -6.4554  -5.5057  -5.5057  -5.4975  -5.4970
    -5.2832  -5.2831  -4.9820  -4.8786  -4.8371  -4.7156  -4.6847  -4.6844
    -4.3751  -4.1664  -4.1663  -4.1135  -4.1134  -3.8250  -3.8249  -3.7501
    -3.6633  -3.6633  -3.1212  -2.6198  -2.6195  -1.8126  -1.7941  -1.7939
    -0.8370  -0.8263  -0.8263  -0.8254   0.9725   0.9797   0.9799   1.6473
     1.6474   1.6527   2.5650   2.8198   2.8200   2.8848   3.1691   3.1817
     3.5292   3.5459   3.5596   3.5610   3.6894   3.7756   3.7860   3.7929

     occupation numbers 
     1.0000   1.0000   1.0000   1.0000   1.0000   1.0000   1.0000   1.0000
     1.0000   1.0000   1.0000   1.0000   1.0000   1.0000   1.0000   1.0000
     1.0000   1.0000   1.0000   1.0000   1.0000   1.0000   1.0000   1.0000
     1.0000   1.0000   1.0000   1.0000   1.0000   1.0000   1.0000   1.0000
     1.0000   1.0000   1.0000   1.0000   1.0000   1.0000   1.0000   1.0000
     1.0000   1.0000   1.0000   1.0000   1.0000   1.0000   1.0000   1.0000
     1.0000   1.0000   1.0000   1.0000   1.0000   1.0000   1.0000   1.0000
     1.0000   1.0000   1.0000   1.0000   1.0000   1.0000   1.0000   1.0000
     1.0000   1.0000   1.0000   1.0000   1.0000   1.0000   1.0000   1.0000
     1.0000   1.0000   1.0000   1.0000   1.0000   1.0000   1.0000   1.0000
     1.0000   1.0000   1.0000   1.0000   1.0000   1.0000   1.0000   1.0000
     1.0000   1.0000   1.0000   1.0000   1.0000   1.0000   1.0000   1.0000
     1.0000   1.0000   1.0000   1.0000   1.0000   1.0000   1.0000   1.0000
     1.0082   0.5131   0.5122   0.4664   0.0000   0.0000   0.0000   0.0000
     0.0000   0.0000   0.0000   0.0000   0.0000   0.0000   0.0000   0.0000
     0.0000   0.0000   0.0000   0.0000   0.0000   0.0000   0.0000   0.0000

     the Fermi energy is    -0.8242 ev

!    total energy              =    -825.89477263 Ry
     Harris-Foulkes estimate   =    -825.89477281 Ry
     estimated scf accuracy    <       0.00000021 Ry

     The total energy is the sum of the following terms:

     one-electron contribution =   -2704.34441720 Ry
     hartree contribution      =    1396.99372084 Ry
     xc contribution           =    -259.57424610 Ry
     ewald contribution        =     741.03097626 Ry
     smearing contrib. (-TS)   =      -0.00080643 Ry

     convergence has been achieved in  40 iterations

     Writing output data file manganeso-baricentro-distance-4.5.save/

     init_run     :     48.48s CPU     49.70s WALL (       1 calls)
     electrons    :   1985.78s CPU   2052.79s WALL (       1 calls)

     Called by init_run:
     wfcinit      :     20.88s CPU     21.05s WALL (       1 calls)
     wfcinit:atom :      0.01s CPU      0.04s WALL (       1 calls)
     wfcinit:wfcr :     20.73s CPU     20.83s WALL (       1 calls)
     potinit      :     12.25s CPU     12.66s WALL (       1 calls)
     hinit0       :     10.79s CPU     10.81s WALL (       1 calls)

     Called by electrons:
     c_bands      :   1161.21s CPU   1167.43s WALL (      40 calls)
     sum_band     :    405.31s CPU    428.90s WALL (      40 calls)
     v_of_rho     :    249.43s CPU    264.91s WALL (      41 calls)
     v_h          :      2.85s CPU      2.96s WALL (      41 calls)
     v_xc         :    246.58s CPU    261.95s WALL (      41 calls)
     newd         :    166.75s CPU    189.14s WALL (      41 calls)
     mix_rho      :      8.34s CPU      8.46s WALL (      40 calls)

     Called by c_bands:
     init_us_2    :      3.49s CPU      3.55s WALL (      81 calls)
     cegterg      :   1152.82s CPU   1159.01s WALL (      40 calls)

     Called by sum_band:
     sum_band:bec :      0.03s CPU      0.03s WALL (      40 calls)
     addusdens    :    248.39s CPU    270.87s WALL (      40 calls)

     Called by *egterg:
     h_psi        :    613.68s CPU    617.87s WALL (     108 calls)
     s_psi        :    208.76s CPU    208.84s WALL (     108 calls)
     g_psi        :      0.59s CPU      0.60s WALL (      67 calls)
     cdiaghg      :      6.49s CPU      6.49s WALL (     107 calls)
     cegterg:over :    136.30s CPU    136.39s WALL (      67 calls)
     cegterg:upda :     75.92s CPU     76.38s WALL (      67 calls)
     cegterg:last :     62.96s CPU     62.99s WALL (      40 calls)

     Called by h_psi:
     h_psi:pot    :    612.90s CPU    616.32s WALL (     108 calls)
     h_psi:calbec :    207.00s CPU    207.13s WALL (     108 calls)
     vloc_psi     :    197.01s CPU    200.24s WALL (     108 calls)
     add_vuspsi   :    208.89s CPU    208.95s WALL (     108 calls)

     General routines
     calbec       :    303.60s CPU    303.80s WALL (     148 calls)
     fft          :    145.81s CPU    151.49s WALL (    2581 calls)
     ffts         :      1.36s CPU      1.42s WALL (      81 calls)
     fftw         :    212.86s CPU    216.58s WALL (   27122 calls)
     interpolate  :      3.42s CPU      3.51s WALL (      41 calls)

     Parallel routines
     fft_scatt_xy :     60.44s CPU     61.18s WALL (   29784 calls)
     fft_scatt_yz :    129.77s CPU    136.68s WALL (   29784 calls)

     PWSCF        :  33m55.49s CPU  35m 3.92s WALL


   This run was terminated on:  11:14:47   4Sep2022            

=------------------------------------------------------------------------------=
   JOB DONE.
=------------------------------------------------------------------------------=
