
     Program PWSCF v.6.4.1 starts on 22Jan2023 at 14:31:23 

     This program is part of the open-source Quantum ESPRESSO suite
     for quantum simulation of materials; please cite
         "P. Giannozzi et al., J. Phys.:Condens. Matter 21 395502 (2009);
         "P. Giannozzi et al., J. Phys.:Condens. Matter 29 465901 (2017);
          URL http://www.quantum-espresso.org", 
     in publications or presentations arising from this work. More details at
     http://www.quantum-espresso.org/quote

     Parallel version (MPI), running on     6 processors

     MPI processes distributed on     1 nodes
     R & G space division:  proc/nbgrp/npool/nimage =       6
     Reading input from distance-2.2.in

     Current dimensions of program PWSCF are:
     Max number of different atomic species (ntypx) = 10
     Max number of k-points (npk) =  40000
     Max angular momentum in pseudopotentials (lmaxx) =  3

     IMPORTANT: XC functional enforced from input :
     Exchange-correlation      = RVV10 ( 1  4 13  4 3 0)
     Any further DFT definition will be discarded
     Please, verify this is what you really want

               file H.pbe-rrkjus.UPF: wavefunction(s)  1S renormalized
               file Mn.pbe-spn-rrkjus_psl.0.3.1.UPF: wavefunction(s)  3D renormalized

     Subspace diagonalization in iterative solution of the eigenvalue problem:
     a serial algorithm will be used


     Parallelization info
     --------------------
     sticks:   dense  smooth     PW     G-vecs:    dense   smooth      PW
     Min        3051    1746    432               270999   117096   14629
     Max        3053    1747    437               271001   117099   14630
     Sum       18313   10477   2611              1626001   702581   87777



     bravais-lattice index     =            4
     lattice parameter (alat)  =      23.2937  a.u.
     unit-cell volume          =    8879.8548 (a.u.)^3
     number of atoms/cell      =           52
     number of atomic types    =            3
     number of electrons       =       213.00
     number of Kohn-Sham states=          128
     kinetic-energy cutoff     =      70.0000  Ry
     charge density cutoff     =     490.0000  Ry
     convergence threshold     =      1.0E-06
     mixing beta               =       0.7000
     number of iterations used =            8  plain     mixing
     Exchange-correlation      = RVV10 ( 1  4 13  4 3 0)

     celldm(1)=  23.293684  celldm(2)=   0.000000  celldm(3)=   0.811261
     celldm(4)=   0.000000  celldm(5)=   0.000000  celldm(6)=   0.000000

     crystal axes: (cart. coord. in units of alat)
               a(1) = (   1.000000   0.000000   0.000000 )  
               a(2) = (  -0.500000   0.866025   0.000000 )  
               a(3) = (   0.000000   0.000000   0.811261 )  

     reciprocal axes: (cart. coord. in units 2 pi/alat)
               b(1) = (  1.000000  0.577350 -0.000000 )  
               b(2) = (  0.000000  1.154701  0.000000 )  
               b(3) = (  0.000000 -0.000000  1.232649 )  


     PseudoPot. # 1 for H  read from file:
     /home/cristian/Escritorio/Proyecto_Grafeno/pseudopotenciales/H.pbe-rrkjus.UPF
     MD5 check sum: 7cc9d459525c9a0585f487a71c3c9563
     Pseudo is Ultrasoft, Zval =  1.0
     Generated by new atomic code, or converted to UPF format
     Using radial grid of 1061 points,  2 beta functions with: 
                l(1) =   0
                l(2) =   0
     Q(r) pseudized with 0 coefficients 


     PseudoPot. # 2 for C  read from file:
     /home/cristian/Escritorio/Proyecto_Grafeno/pseudopotenciales/C.pbe-n-rrkjus_psl.1.0.0.UPF
     MD5 check sum: 1fdd950c42eb37d8afe3dd2f8d12311e
     Pseudo is Ultrasoft + core correction, Zval =  4.0
     Generated using "atomic" code by A. Dal Corso v.6.3MaX
     Using radial grid of 1073 points,  4 beta functions with: 
                l(1) =   0
                l(2) =   0
                l(3) =   1
                l(4) =   1
     Q(r) pseudized with 0 coefficients 


     PseudoPot. # 3 for Mn read from file:
     /home/cristian/Escritorio/Proyecto_Grafeno/pseudopotenciales/Mn.pbe-spn-rrkjus_psl.0.3.1.UPF
     MD5 check sum: e1cac159bdd2ba70c18e85765a5d4279
     Pseudo is Ultrasoft + core correction, Zval = 15.0
     Generated using "atomic" code by A. Dal Corso v.6.2.2
     Using radial grid of 1187 points,  6 beta functions with: 
                l(1) =   0
                l(2) =   0
                l(3) =   1
                l(4) =   1
                l(5) =   2
                l(6) =   2
     Q(r) pseudized with 0 coefficients 


     vdW kernel table read from file rVV10_kernel_table
     MD5 check sum: b8e2538accc0c0b3206b45ba4daaba6c

     atomic species   valence    mass     pseudopotential
        H              1.00     1.00794     H ( 1.00)
        C              4.00    12.01070     C ( 1.00)
        Mn            15.00    54.93804     Mn( 1.00)

     Starting magnetic structure 
     atomic species   magnetization
        H            0.500
        C            0.300
        Mn           0.800

     No symmetry found


                                    s                        frac. trans.

      isym =  1     identity                                     

 cryst.   s( 1) = (     1          0          0      )
                  (     0          1          0      )
                  (     0          0          1      )

 cart.    s( 1) = (  1.0000000  0.0000000  0.0000000 )
                  (  0.0000000  1.0000000  0.0000000 )
                  (  0.0000000  0.0000000  1.0000000 )


     point group C_1 (1)    
     there are  1 classes
     the character table:

       E    
A      1.00

     the symmetry operations in each class and the name of the first element:

     E        1
          identity                                               

   Cartesian axes

     site n.     atom                  positions (alat units)
         1           H   tau(   1) = (   0.1694937   0.4618802   0.1784775  )
         2           H   tau(   2) = (   0.2305063   0.4618802   0.1784775  )
         3           C   tau(   3) = (   0.0000000   0.0000000   0.0000000  )
         4           C   tau(   4) = (   0.0000000   0.1154701   0.0000000  )
         5           C   tau(   5) = (  -0.1000000   0.1732051   0.0000000  )
         6           C   tau(   6) = (  -0.1000000   0.2886751   0.0000000  )
         7           C   tau(   7) = (  -0.2000000   0.3464102   0.0000000  )
         8           C   tau(   8) = (  -0.2000000   0.4618802   0.0000000  )
         9           C   tau(   9) = (  -0.3000000   0.5196152   0.0000000  )
        10           C   tau(  10) = (  -0.3000000   0.6350853   0.0000000  )
        11           C   tau(  11) = (  -0.4000000   0.6928203   0.0000000  )
        12           C   tau(  12) = (  -0.4000000   0.8082904   0.0000000  )
        13           C   tau(  13) = (   0.2000000   0.0000000   0.0000000  )
        14           C   tau(  14) = (   0.2000000   0.1154701   0.0000000  )
        15           C   tau(  15) = (   0.1000000   0.1732051   0.0000000  )
        16           C   tau(  16) = (   0.1000000   0.2886751   0.0000000  )
        17           C   tau(  17) = (   0.0000000   0.3464102   0.0000000  )
        18           C   tau(  18) = (   0.0000000   0.4618802   0.0000000  )
        19           C   tau(  19) = (  -0.1000000   0.5196152   0.0000000  )
        20           C   tau(  20) = (  -0.1000000   0.6350853   0.0000000  )
        21           C   tau(  21) = (  -0.2000000   0.6928203   0.0000000  )
        22           C   tau(  22) = (  -0.2000000   0.8082904   0.0000000  )
        23           C   tau(  23) = (   0.4000000   0.0000000   0.0000000  )
        24           C   tau(  24) = (   0.4000000   0.1154701   0.0000000  )
        25           C   tau(  25) = (   0.3000000   0.1732051   0.0000000  )
        26           C   tau(  26) = (   0.3000000   0.2886751   0.0000000  )
        27           C   tau(  27) = (   0.2000000   0.3464102   0.0000000  )
        28           Mn  tau(  28) = (   0.2000000   0.4618802   0.0000000  )
        29           C   tau(  29) = (   0.1000000   0.5196152   0.0000000  )
        30           C   tau(  30) = (   0.1000000   0.6350853   0.0000000  )
        31           C   tau(  31) = (   0.0000000   0.6928203   0.0000000  )
        32           C   tau(  32) = (   0.0000000   0.8082904   0.0000000  )
        33           C   tau(  33) = (   0.6000000   0.0000000   0.0000000  )
        34           C   tau(  34) = (   0.6000000   0.1154701   0.0000000  )
        35           C   tau(  35) = (   0.5000000   0.1732051   0.0000000  )
        36           C   tau(  36) = (   0.5000000   0.2886751   0.0000000  )
        37           C   tau(  37) = (   0.4000000   0.3464102   0.0000000  )
        38           C   tau(  38) = (   0.4000000   0.4618802   0.0000000  )
        39           C   tau(  39) = (   0.3000000   0.5196152   0.0000000  )
        40           C   tau(  40) = (   0.3000000   0.6350853   0.0000000  )
        41           C   tau(  41) = (   0.2000000   0.6928203   0.0000000  )
        42           C   tau(  42) = (   0.2000000   0.8082904   0.0000000  )
        43           C   tau(  43) = (   0.8000000   0.0000000   0.0000000  )
        44           C   tau(  44) = (   0.8000000   0.1154701   0.0000000  )
        45           C   tau(  45) = (   0.7000000   0.1732051   0.0000000  )
        46           C   tau(  46) = (   0.7000000   0.2886751   0.0000000  )
        47           C   tau(  47) = (   0.6000000   0.3464102   0.0000000  )
        48           C   tau(  48) = (   0.6000000   0.4618802   0.0000000  )
        49           C   tau(  49) = (   0.5000000   0.5196152   0.0000000  )
        50           C   tau(  50) = (   0.5000000   0.6350853   0.0000000  )
        51           C   tau(  51) = (   0.4000000   0.6928203   0.0000000  )
        52           C   tau(  52) = (   0.4000000   0.8082904   0.0000000  )

   Crystallographic axes

     site n.     atom                  positions (cryst. coord.)
         1           H   tau(   1) = (  0.4361603  0.5333333  0.2200000  )
         2           H   tau(   2) = (  0.4971730  0.5333333  0.2200000  )
         3           C   tau(   3) = (  0.0000000  0.0000000  0.0000000  )
         4           C   tau(   4) = (  0.0666667  0.1333333  0.0000000  )
         5           C   tau(   5) = (  0.0000000  0.2000000  0.0000000  )
         6           C   tau(   6) = (  0.0666667  0.3333333  0.0000000  )
         7           C   tau(   7) = (  0.0000000  0.4000000  0.0000000  )
         8           C   tau(   8) = (  0.0666667  0.5333333  0.0000000  )
         9           C   tau(   9) = (  0.0000000  0.6000000  0.0000000  )
        10           C   tau(  10) = (  0.0666667  0.7333333  0.0000000  )
        11           C   tau(  11) = (  0.0000000  0.8000000  0.0000000  )
        12           C   tau(  12) = (  0.0666667  0.9333333  0.0000000  )
        13           C   tau(  13) = (  0.2000000  0.0000000  0.0000000  )
        14           C   tau(  14) = (  0.2666667  0.1333333  0.0000000  )
        15           C   tau(  15) = (  0.2000000  0.2000000  0.0000000  )
        16           C   tau(  16) = (  0.2666667  0.3333333  0.0000000  )
        17           C   tau(  17) = (  0.2000000  0.4000000  0.0000000  )
        18           C   tau(  18) = (  0.2666667  0.5333333  0.0000000  )
        19           C   tau(  19) = (  0.2000000  0.6000000  0.0000000  )
        20           C   tau(  20) = (  0.2666667  0.7333333  0.0000000  )
        21           C   tau(  21) = (  0.2000000  0.8000000  0.0000000  )
        22           C   tau(  22) = (  0.2666667  0.9333333  0.0000000  )
        23           C   tau(  23) = (  0.4000000  0.0000000  0.0000000  )
        24           C   tau(  24) = (  0.4666667  0.1333333  0.0000000  )
        25           C   tau(  25) = (  0.4000000  0.2000000  0.0000000  )
        26           C   tau(  26) = (  0.4666667  0.3333333  0.0000000  )
        27           C   tau(  27) = (  0.4000000  0.4000000  0.0000000  )
        28           Mn  tau(  28) = (  0.4666667  0.5333333  0.0000000  )
        29           C   tau(  29) = (  0.4000000  0.6000000  0.0000000  )
        30           C   tau(  30) = (  0.4666667  0.7333333  0.0000000  )
        31           C   tau(  31) = (  0.4000000  0.8000000  0.0000000  )
        32           C   tau(  32) = (  0.4666667  0.9333333  0.0000000  )
        33           C   tau(  33) = (  0.6000000  0.0000000  0.0000000  )
        34           C   tau(  34) = (  0.6666667  0.1333333  0.0000000  )
        35           C   tau(  35) = (  0.6000000  0.2000000  0.0000000  )
        36           C   tau(  36) = (  0.6666667  0.3333333  0.0000000  )
        37           C   tau(  37) = (  0.6000000  0.4000000  0.0000000  )
        38           C   tau(  38) = (  0.6666667  0.5333333  0.0000000  )
        39           C   tau(  39) = (  0.6000000  0.6000000  0.0000000  )
        40           C   tau(  40) = (  0.6666667  0.7333333  0.0000000  )
        41           C   tau(  41) = (  0.6000000  0.8000000  0.0000000  )
        42           C   tau(  42) = (  0.6666667  0.9333333  0.0000000  )
        43           C   tau(  43) = (  0.8000000  0.0000000  0.0000000  )
        44           C   tau(  44) = (  0.8666667  0.1333333  0.0000000  )
        45           C   tau(  45) = (  0.8000000  0.2000000  0.0000000  )
        46           C   tau(  46) = (  0.8666667  0.3333333  0.0000000  )
        47           C   tau(  47) = (  0.8000000  0.4000000  0.0000000  )
        48           C   tau(  48) = (  0.8666667  0.5333333  0.0000000  )
        49           C   tau(  49) = (  0.8000000  0.6000000  0.0000000  )
        50           C   tau(  50) = (  0.8666667  0.7333333  0.0000000  )
        51           C   tau(  51) = (  0.8000000  0.8000000  0.0000000  )
        52           C   tau(  52) = (  0.8666667  0.9333333  0.0000000  )

     number of k points=     1  Marzari-Vanderbilt smearing, width (Ry)=  0.0010
                       cart. coord. in units 2pi/alat
        k(    1) = (   0.0000000   0.0000000   0.0000000), wk =   1.0000000

                       cryst. coord.
        k(    1) = (   0.0000000   0.0000000   0.0000000), wk =   1.0000000

     Dense  grid:  1626001 G-vectors     FFT dimensions: ( 180, 180, 135)

     Smooth grid:   702581 G-vectors     FFT dimensions: ( 125, 125, 108)

     Dynamical RAM for                 wfc:      28.59 MB

     Dynamical RAM for     wfc (w. buffer):      85.76 MB

     Dynamical RAM for           str. fact:      12.41 MB

     Dynamical RAM for           local pot:       0.00 MB

     Dynamical RAM for          nlocal pot:      92.46 MB

     Dynamical RAM for                qrad:      19.73 MB

     Dynamical RAM for          rho,v,vnew:      58.92 MB

     Dynamical RAM for               rhoin:      19.64 MB

     Dynamical RAM for            rho*nmix:     132.32 MB

     Dynamical RAM for           G-vectors:      16.40 MB

     Dynamical RAM for          h,s,v(r/c):      12.00 MB

     Dynamical RAM for          <psi|beta>:       0.81 MB

     Dynamical RAM for                 psi:     114.35 MB

     Dynamical RAM for                hpsi:     114.35 MB

     Dynamical RAM for                spsi:     114.35 MB

     Dynamical RAM for      wfcinit/wfcrot:      93.90 MB

     Dynamical RAM for           addusdens:     975.89 MB

     Estimated static dynamical RAM per process >     488.30 MB

     Estimated max dynamical RAM per process >       1.43 GB

     Estimated total dynamical RAM >       8.58 GB
     Generating pointlists ...
     new r_m :   0.0252 (alat units)  0.5862 (a.u.) for type    1
     new r_m :   0.0476 (alat units)  1.1095 (a.u.) for type    2
     new r_m :   0.0476 (alat units)  1.1095 (a.u.) for type    3

     Check: negative core charge=   -0.000002

     Initial potential from superposition of free atoms

     starting charge  212.80506, renormalised to  213.00000

     negative rho (up, down):  8.058E-05 1.232E-02


---------------------------------------------------------------------------------
Carrying out rVV10 run using the following parameters:
Nqs =      20    Nr_points =    1024   r_max =   100.000
b_value =  6.30000    beta =  0.00901
     q_mesh =  0.00010000  0.00030000  0.00058939  0.00100810
               0.00161396  0.00249058  0.00375900  0.00559430
               0.00824984  0.01209221  0.01765183  0.02569619
               0.03733578  0.05417739  0.07854596  0.11380545
               0.16482331  0.23864234  0.34545298  0.50000000

Gradients computed in Reciprocal space

---------------------------------------------------------------------------------


     Starting wfcs are  208 randomized atomic wfcs

     total cpu time spent up to now is       78.6 secs

     Self-consistent Calculation

     iteration #  1     ecut=    70.00 Ry     beta= 0.70
     Davidson diagonalization with overlap
     ethr =  1.00E-02,  avg # of iterations =  2.5

     negative rho (up, down):  1.644E-04 1.176E-02

     total cpu time spent up to now is      208.9 secs

     total energy              =    -821.25587060 Ry
     Harris-Foulkes estimate   =    -825.09497755 Ry
     estimated scf accuracy    <      12.20696940 Ry

     total magnetization       =     7.00 Bohr mag/cell
     absolute magnetization    =     7.33 Bohr mag/cell

     iteration #  2     ecut=    70.00 Ry     beta= 0.70
     Davidson diagonalization with overlap
     ethr =  5.73E-03,  avg # of iterations =  6.5

     negative rho (up, down):  2.059E-04 1.251E-02

     total cpu time spent up to now is      334.1 secs

     total energy              =    -811.64012152 Ry
     Harris-Foulkes estimate   =    -837.09362511 Ry
     estimated scf accuracy    <     104.53737250 Ry

     total magnetization       =     3.00 Bohr mag/cell
     absolute magnetization    =     3.24 Bohr mag/cell

     iteration #  3     ecut=    70.00 Ry     beta= 0.70
     Davidson diagonalization with overlap
     ethr =  5.73E-03,  avg # of iterations =  5.0

     negative rho (up, down):  2.579E-04 9.112E-03

     total cpu time spent up to now is      522.6 secs

     total energy              =    -824.41841994 Ry
     Harris-Foulkes estimate   =    -826.83710111 Ry
     estimated scf accuracy    <      12.91342795 Ry

     total magnetization       =     3.11 Bohr mag/cell
     absolute magnetization    =     3.72 Bohr mag/cell

     iteration #  4     ecut=    70.00 Ry     beta= 0.70
     Davidson diagonalization with overlap
     ethr =  5.73E-03,  avg # of iterations =  2.5

     negative rho (up, down):  3.037E-04 1.021E-02

     total cpu time spent up to now is      618.5 secs

     total energy              =    -825.20967411 Ry
     Harris-Foulkes estimate   =    -826.42517671 Ry
     estimated scf accuracy    <       3.97525164 Ry

     total magnetization       =     1.00 Bohr mag/cell
     absolute magnetization    =     1.69 Bohr mag/cell

     iteration #  5     ecut=    70.00 Ry     beta= 0.70
     Davidson diagonalization with overlap
     ethr =  1.87E-03,  avg # of iterations =  3.0

     negative rho (up, down):  3.845E-04 1.693E-02

     total cpu time spent up to now is      724.8 secs

     total energy              =    -825.64751200 Ry
     Harris-Foulkes estimate   =    -826.06129233 Ry
     estimated scf accuracy    <       1.65279194 Ry

     total magnetization       =     3.00 Bohr mag/cell
     absolute magnetization    =     3.24 Bohr mag/cell

     iteration #  6     ecut=    70.00 Ry     beta= 0.70
     Davidson diagonalization with overlap
     ethr =  7.76E-04,  avg # of iterations =  3.0

     negative rho (up, down):  6.539E-04 4.480E-03

     total cpu time spent up to now is      823.0 secs

     total energy              =    -825.87423924 Ry
     Harris-Foulkes estimate   =    -825.94455478 Ry
     estimated scf accuracy    <       0.33340254 Ry

     total magnetization       =     1.00 Bohr mag/cell
     absolute magnetization    =     1.54 Bohr mag/cell

     iteration #  7     ecut=    70.00 Ry     beta= 0.70
     Davidson diagonalization with overlap
     ethr =  1.57E-04,  avg # of iterations =  5.0

     negative rho (up, down):  7.413E-04 6.289E-03

     total cpu time spent up to now is      922.5 secs

     total energy              =    -825.89134495 Ry
     Harris-Foulkes estimate   =    -825.92046509 Ry
     estimated scf accuracy    <       0.12343743 Ry

     total magnetization       =     1.00 Bohr mag/cell
     absolute magnetization    =     1.51 Bohr mag/cell

     iteration #  8     ecut=    70.00 Ry     beta= 0.70
     Davidson diagonalization with overlap
     ethr =  5.80E-05,  avg # of iterations =  3.0

     negative rho (up, down):  7.756E-04 7.726E-03

     total cpu time spent up to now is     1018.6 secs

     total energy              =    -825.90040434 Ry
     Harris-Foulkes estimate   =    -825.91439322 Ry
     estimated scf accuracy    <       0.05905333 Ry

     total magnetization       =     1.00 Bohr mag/cell
     absolute magnetization    =     1.59 Bohr mag/cell

     iteration #  9     ecut=    70.00 Ry     beta= 0.70
     Davidson diagonalization with overlap
     ethr =  2.77E-05,  avg # of iterations =  7.0

     negative rho (up, down):  7.639E-04 6.345E-03

     total cpu time spent up to now is     1117.9 secs

     total energy              =    -825.90405397 Ry
     Harris-Foulkes estimate   =    -825.91154695 Ry
     estimated scf accuracy    <       0.03876773 Ry

     total magnetization       =     1.00 Bohr mag/cell
     absolute magnetization    =     1.70 Bohr mag/cell

     iteration # 10     ecut=    70.00 Ry     beta= 0.70
     Davidson diagonalization with overlap
     ethr =  1.82E-05,  avg # of iterations =  1.5

     negative rho (up, down):  7.242E-04 3.866E-03

     total cpu time spent up to now is     1211.4 secs

     total energy              =    -825.90761664 Ry
     Harris-Foulkes estimate   =    -825.90823970 Ry
     estimated scf accuracy    <       0.00724695 Ry

     total magnetization       =     1.39 Bohr mag/cell
     absolute magnetization    =     2.02 Bohr mag/cell

     iteration # 11     ecut=    70.00 Ry     beta= 0.70
     Davidson diagonalization with overlap
     ethr =  3.40E-06,  avg # of iterations =  7.5

     negative rho (up, down):  7.038E-04 3.144E-03

     total cpu time spent up to now is     1312.7 secs

     total energy              =    -825.90881655 Ry
     Harris-Foulkes estimate   =    -825.90846111 Ry
     estimated scf accuracy    <       0.00086745 Ry

     total magnetization       =     1.01 Bohr mag/cell
     absolute magnetization    =     1.93 Bohr mag/cell

     iteration # 12     ecut=    70.00 Ry     beta= 0.70
     Davidson diagonalization with overlap
     ethr =  4.07E-07,  avg # of iterations =  3.0

     negative rho (up, down):  7.028E-04 3.456E-03

     total cpu time spent up to now is     1414.5 secs

     total energy              =    -825.90911448 Ry
     Harris-Foulkes estimate   =    -825.90915928 Ry
     estimated scf accuracy    <       0.00372911 Ry

     total magnetization       =     1.30 Bohr mag/cell
     absolute magnetization    =     2.25 Bohr mag/cell

     iteration # 13     ecut=    70.00 Ry     beta= 0.70
     Davidson diagonalization with overlap
     ethr =  4.07E-07,  avg # of iterations =  1.0

     negative rho (up, down):  7.034E-04 3.556E-03

     total cpu time spent up to now is     1507.7 secs

     total energy              =    -825.90921828 Ry
     Harris-Foulkes estimate   =    -825.90920008 Ry
     estimated scf accuracy    <       0.00169174 Ry

     total magnetization       =     1.25 Bohr mag/cell
     absolute magnetization    =     2.23 Bohr mag/cell

     iteration # 14     ecut=    70.00 Ry     beta= 0.70
     Davidson diagonalization with overlap
     ethr =  4.07E-07,  avg # of iterations =  1.5

     negative rho (up, down):  6.993E-04 3.636E-03

     total cpu time spent up to now is     1601.3 secs

     total energy              =    -825.90964092 Ry
     Harris-Foulkes estimate   =    -825.90929984 Ry
     estimated scf accuracy    <       0.00058696 Ry

     total magnetization       =     1.12 Bohr mag/cell
     absolute magnetization    =     2.17 Bohr mag/cell

     iteration # 15     ecut=    70.00 Ry     beta= 0.70
     Davidson diagonalization with overlap
     ethr =  2.76E-07,  avg # of iterations =  2.5

     negative rho (up, down):  7.041E-04 4.349E-03

     total cpu time spent up to now is     1698.8 secs

     total energy              =    -825.90991936 Ry
     Harris-Foulkes estimate   =    -825.91005142 Ry
     estimated scf accuracy    <       0.01296855 Ry

     total magnetization       =     1.77 Bohr mag/cell
     absolute magnetization    =     2.68 Bohr mag/cell

     iteration # 16     ecut=    70.00 Ry     beta= 0.70
     Davidson diagonalization with overlap
     ethr =  2.76E-07,  avg # of iterations =  1.0

     negative rho (up, down):  7.042E-04 4.585E-03

     total cpu time spent up to now is     1792.1 secs

     total energy              =    -825.90991267 Ry
     Harris-Foulkes estimate   =    -825.90992861 Ry
     estimated scf accuracy    <       0.01166988 Ry

     total magnetization       =     1.71 Bohr mag/cell
     absolute magnetization    =     2.64 Bohr mag/cell

     iteration # 17     ecut=    70.00 Ry     beta= 0.70
     Davidson diagonalization with overlap
     ethr =  2.76E-07,  avg # of iterations =  1.0

     negative rho (up, down):  7.056E-04 4.906E-03

     total cpu time spent up to now is     1885.5 secs

     total energy              =    -825.90993614 Ry
     Harris-Foulkes estimate   =    -825.90995283 Ry
     estimated scf accuracy    <       0.01694739 Ry

     total magnetization       =     1.88 Bohr mag/cell
     absolute magnetization    =     2.71 Bohr mag/cell

     iteration # 18     ecut=    70.00 Ry     beta= 0.70
     Davidson diagonalization with overlap
     ethr =  2.76E-07,  avg # of iterations =  1.0

     negative rho (up, down):  7.068E-04 4.936E-03

     total cpu time spent up to now is     1979.1 secs

     total energy              =    -825.90984964 Ry
     Harris-Foulkes estimate   =    -825.90995644 Ry
     estimated scf accuracy    <       0.01474063 Ry

     total magnetization       =     1.79 Bohr mag/cell
     absolute magnetization    =     2.67 Bohr mag/cell

     iteration # 19     ecut=    70.00 Ry     beta= 0.70
     Davidson diagonalization with overlap
     ethr =  2.76E-07,  avg # of iterations =  1.0

     negative rho (up, down):  7.063E-04 4.910E-03

     total cpu time spent up to now is     2072.5 secs

     total energy              =    -825.90994561 Ry
     Harris-Foulkes estimate   =    -825.90985944 Ry
     estimated scf accuracy    <       0.01562310 Ry

     total magnetization       =     1.79 Bohr mag/cell
     absolute magnetization    =     2.65 Bohr mag/cell

     iteration # 20     ecut=    70.00 Ry     beta= 0.70
     Davidson diagonalization with overlap
     ethr =  2.76E-07,  avg # of iterations =  1.0

     negative rho (up, down):  7.056E-04 4.886E-03

     total cpu time spent up to now is     2166.0 secs

     total energy              =    -825.91017023 Ry
     Harris-Foulkes estimate   =    -825.90995313 Ry
     estimated scf accuracy    <       0.01562302 Ry

     total magnetization       =     1.81 Bohr mag/cell
     absolute magnetization    =     2.68 Bohr mag/cell

     iteration # 21     ecut=    70.00 Ry     beta= 0.70
     Davidson diagonalization with overlap
     ethr =  2.76E-07,  avg # of iterations =  1.5

     negative rho (up, down):  7.063E-04 5.111E-03

     total cpu time spent up to now is     2259.7 secs

     total energy              =    -825.90988431 Ry
     Harris-Foulkes estimate   =    -825.91019985 Ry
     estimated scf accuracy    <       0.01945137 Ry

     total magnetization       =     1.93 Bohr mag/cell
     absolute magnetization    =     2.79 Bohr mag/cell

     iteration # 22     ecut=    70.00 Ry     beta= 0.70
     Davidson diagonalization with overlap
     ethr =  2.76E-07,  avg # of iterations =  1.5

     negative rho (up, down):  7.037E-04 4.765E-03

     total cpu time spent up to now is     2353.5 secs

     total energy              =    -825.91038985 Ry
     Harris-Foulkes estimate   =    -825.90992709 Ry
     estimated scf accuracy    <       0.01225890 Ry

     total magnetization       =     1.73 Bohr mag/cell
     absolute magnetization    =     2.64 Bohr mag/cell

     iteration # 23     ecut=    70.00 Ry     beta= 0.70
     Davidson diagonalization with overlap
     ethr =  2.76E-07,  avg # of iterations =  3.0

     negative rho (up, down):  6.968E-04 5.278E-03

     total cpu time spent up to now is     2450.8 secs

     total energy              =    -825.90997392 Ry
     Harris-Foulkes estimate   =    -825.91056540 Ry
     estimated scf accuracy    <       0.02339276 Ry

     total magnetization       =     2.10 Bohr mag/cell
     absolute magnetization    =     2.94 Bohr mag/cell

     iteration # 24     ecut=    70.00 Ry     beta= 0.70
     Davidson diagonalization with overlap
     ethr =  2.76E-07,  avg # of iterations =  7.5

     negative rho (up, down):  6.972E-04 4.232E-03

     total cpu time spent up to now is     2595.9 secs

     total energy              =    -825.90840968 Ry
     Harris-Foulkes estimate   =    -825.91241239 Ry
     estimated scf accuracy    <       0.02368906 Ry

     total magnetization       =     1.29 Bohr mag/cell
     absolute magnetization    =     2.44 Bohr mag/cell

     iteration # 25     ecut=    70.00 Ry     beta= 0.70
     Davidson diagonalization with overlap
     ethr =  2.76E-07,  avg # of iterations =  5.0

     negative rho (up, down):  7.043E-04 6.012E-03

     total cpu time spent up to now is     2740.7 secs

     total energy              =    -825.91025249 Ry
     Harris-Foulkes estimate   =    -825.91104405 Ry
     estimated scf accuracy    <       0.01822098 Ry

     total magnetization       =     2.28 Bohr mag/cell
     absolute magnetization    =     3.17 Bohr mag/cell

     iteration # 26     ecut=    70.00 Ry     beta= 0.70
     Davidson diagonalization with overlap
     ethr =  2.76E-07,  avg # of iterations =  4.0

     negative rho (up, down):  7.083E-04 6.601E-03

     total cpu time spent up to now is     2867.3 secs

     total energy              =    -825.90995282 Ry
     Harris-Foulkes estimate   =    -825.91105296 Ry
     estimated scf accuracy    <       0.02491198 Ry

     total magnetization       =     1.83 Bohr mag/cell
     absolute magnetization    =     2.83 Bohr mag/cell

     iteration # 27     ecut=    70.00 Ry     beta= 0.70
     Davidson diagonalization with overlap
     ethr =  2.76E-07,  avg # of iterations =  4.0

     negative rho (up, down):  7.143E-04 8.368E-03

     total cpu time spent up to now is     2989.8 secs

     total energy              =    -825.90999917 Ry
     Harris-Foulkes estimate   =    -825.91042537 Ry
     estimated scf accuracy    <       0.01981829 Ry

     total magnetization       =     1.67 Bohr mag/cell
     absolute magnetization    =     2.68 Bohr mag/cell

     iteration # 28     ecut=    70.00 Ry     beta= 0.70
     Davidson diagonalization with overlap
     ethr =  2.76E-07,  avg # of iterations =  3.0

     negative rho (up, down):  7.232E-04 1.087E-02

     total cpu time spent up to now is     3105.7 secs

     total energy              =    -825.90961771 Ry
     Harris-Foulkes estimate   =    -825.91045861 Ry
     estimated scf accuracy    <       0.01377680 Ry

     total magnetization       =     1.15 Bohr mag/cell
     absolute magnetization    =     2.46 Bohr mag/cell

     iteration # 29     ecut=    70.00 Ry     beta= 0.70
     Davidson diagonalization with overlap
     ethr =  2.76E-07,  avg # of iterations =  4.0

     negative rho (up, down):  7.266E-04 1.149E-02

     total cpu time spent up to now is     3227.5 secs

     total energy              =    -825.90973538 Ry
     Harris-Foulkes estimate   =    -825.91001912 Ry
     estimated scf accuracy    <       0.01203016 Ry

     total magnetization       =     1.00 Bohr mag/cell
     absolute magnetization    =     2.34 Bohr mag/cell

     iteration # 30     ecut=    70.00 Ry     beta= 0.70
     Davidson diagonalization with overlap
     ethr =  2.76E-07,  avg # of iterations =  2.5

     negative rho (up, down):  7.249E-04 9.773E-03

     total cpu time spent up to now is     3323.3 secs

     total energy              =    -825.90905842 Ry
     Harris-Foulkes estimate   =    -825.90982560 Ry
     estimated scf accuracy    <       0.01534163 Ry

     total magnetization       =     1.00 Bohr mag/cell
     absolute magnetization    =     2.28 Bohr mag/cell

     iteration # 31     ecut=    70.00 Ry     beta= 0.70
     Davidson diagonalization with overlap
     ethr =  2.76E-07,  avg # of iterations =  3.0

     negative rho (up, down):  9.092E-04 3.270E-02

     total cpu time spent up to now is     3444.1 secs

     total energy              =    -825.89784401 Ry
     Harris-Foulkes estimate   =    -825.90968355 Ry
     estimated scf accuracy    <       0.01881187 Ry

     total magnetization       =     1.00 Bohr mag/cell
     absolute magnetization    =     2.10 Bohr mag/cell

     iteration # 32     ecut=    70.00 Ry     beta= 0.70
     Davidson diagonalization with overlap
     ethr =  2.76E-07,  avg # of iterations =  5.5

     negative rho (up, down):  7.785E-04 2.295E-02

     total cpu time spent up to now is     3632.9 secs

     total energy              =    -825.90730270 Ry
     Harris-Foulkes estimate   =    -825.93755393 Ry
     estimated scf accuracy    <       0.40023314 Ry

     total magnetization       =    -3.00 Bohr mag/cell
     absolute magnetization    =     3.11 Bohr mag/cell

     iteration # 33     ecut=    70.00 Ry     beta= 0.70
     Davidson diagonalization with overlap
     ethr =  2.76E-07,  avg # of iterations =  4.0

     negative rho (up, down):  8.557E-04 2.772E-02

     total cpu time spent up to now is     3789.6 secs

     total energy              =    -825.91997886 Ry
     Harris-Foulkes estimate   =    -825.91462536 Ry
     estimated scf accuracy    <       0.33393651 Ry

     total magnetization       =     0.85 Bohr mag/cell
     absolute magnetization    =     2.62 Bohr mag/cell

     iteration # 34     ecut=    70.00 Ry     beta= 0.70
     Davidson diagonalization with overlap
     ethr =  2.76E-07,  avg # of iterations =  4.5

     negative rho (up, down):  7.250E-04 1.095E-02

     total cpu time spent up to now is     3938.9 secs

     total energy              =    -825.86355984 Ry
     Harris-Foulkes estimate   =    -825.92551351 Ry
     estimated scf accuracy    <       0.47412912 Ry

     total magnetization       =    -1.66 Bohr mag/cell
     absolute magnetization    =     1.87 Bohr mag/cell

     iteration # 35     ecut=    70.00 Ry     beta= 0.70
     Davidson diagonalization with overlap
     ethr =  2.76E-07,  avg # of iterations =  6.5

     negative rho (up, down):  7.568E-04 1.685E-02

     total cpu time spent up to now is     4127.1 secs

     total energy              =    -825.90959432 Ry
     Harris-Foulkes estimate   =    -825.91455315 Ry
     estimated scf accuracy    <       0.07054373 Ry

     total magnetization       =     1.00 Bohr mag/cell
     absolute magnetization    =     2.75 Bohr mag/cell

     iteration # 36     ecut=    70.00 Ry     beta= 0.70
     Davidson diagonalization with overlap
     ethr =  2.76E-07,  avg # of iterations =  5.0

     negative rho (up, down):  7.040E-04 6.980E-03

     total cpu time spent up to now is     4295.0 secs

     total energy              =    -825.88872685 Ry
     Harris-Foulkes estimate   =    -825.91314852 Ry
     estimated scf accuracy    <       0.08146229 Ry

     total magnetization       =     0.95 Bohr mag/cell
     absolute magnetization    =     2.62 Bohr mag/cell

     iteration # 37     ecut=    70.00 Ry     beta= 0.70
     Davidson diagonalization with overlap
     ethr =  2.76E-07,  avg # of iterations =  7.5

     negative rho (up, down):  7.050E-04 5.993E-03

     total cpu time spent up to now is     4490.8 secs

     total energy              =    -825.90798946 Ry
     Harris-Foulkes estimate   =    -825.90894747 Ry
     estimated scf accuracy    <       0.01230845 Ry

     total magnetization       =     1.00 Bohr mag/cell
     absolute magnetization    =     2.02 Bohr mag/cell

     iteration # 38     ecut=    70.00 Ry     beta= 0.70
     Davidson diagonalization with overlap
     ethr =  2.76E-07,  avg # of iterations =  5.5

     negative rho (up, down):  7.046E-04 6.097E-03

     total cpu time spent up to now is     4615.1 secs

     total energy              =    -825.90657490 Ry
     Harris-Foulkes estimate   =    -825.90912752 Ry
     estimated scf accuracy    <       0.01632885 Ry

     total magnetization       =     1.00 Bohr mag/cell
     absolute magnetization    =     2.13 Bohr mag/cell

     iteration # 39     ecut=    70.00 Ry     beta= 0.70
     Davidson diagonalization with overlap
     ethr =  2.76E-07,  avg # of iterations =  3.5

     negative rho (up, down):  7.031E-04 4.909E-03

     total cpu time spent up to now is     4733.7 secs

     total energy              =    -825.90620834 Ry
     Harris-Foulkes estimate   =    -825.90783580 Ry
     estimated scf accuracy    <       0.00844582 Ry

     total magnetization       =     1.00 Bohr mag/cell
     absolute magnetization    =     1.87 Bohr mag/cell

     iteration # 40     ecut=    70.00 Ry     beta= 0.70
     Davidson diagonalization with overlap
     ethr =  2.76E-07,  avg # of iterations =  3.0

     negative rho (up, down):  7.019E-04 4.237E-03

     total cpu time spent up to now is     4850.1 secs

     total energy              =    -825.90512500 Ry
     Harris-Foulkes estimate   =    -825.90703185 Ry
     estimated scf accuracy    <       0.00661839 Ry

     total magnetization       =     1.00 Bohr mag/cell
     absolute magnetization    =     1.65 Bohr mag/cell

     iteration # 41     ecut=    70.00 Ry     beta= 0.70
     Davidson diagonalization with overlap
     ethr =  2.76E-07,  avg # of iterations =  4.0

     negative rho (up, down):  7.046E-04 2.732E-03

     total cpu time spent up to now is     4974.1 secs

     total energy              =    -825.90422557 Ry
     Harris-Foulkes estimate   =    -825.90682438 Ry
     estimated scf accuracy    <       0.01478466 Ry

     total magnetization       =     1.00 Bohr mag/cell
     absolute magnetization    =     1.83 Bohr mag/cell

     iteration # 42     ecut=    70.00 Ry     beta= 0.70
     Davidson diagonalization with overlap
     ethr =  2.76E-07,  avg # of iterations =  4.0

     negative rho (up, down):  7.043E-04 2.806E-03

     total cpu time spent up to now is     5113.0 secs

     total energy              =    -825.90604481 Ry
     Harris-Foulkes estimate   =    -825.90680277 Ry
     estimated scf accuracy    <       0.00911261 Ry

     total magnetization       =     1.00 Bohr mag/cell
     absolute magnetization    =     1.73 Bohr mag/cell

     iteration # 43     ecut=    70.00 Ry     beta= 0.70
     Davidson diagonalization with overlap
     ethr =  2.76E-07,  avg # of iterations =  3.5

     negative rho (up, down):  7.023E-04 2.684E-03

     total cpu time spent up to now is     5230.1 secs

     total energy              =    -825.90647566 Ry
     Harris-Foulkes estimate   =    -825.90684183 Ry
     estimated scf accuracy    <       0.00149245 Ry

     total magnetization       =     1.00 Bohr mag/cell
     absolute magnetization    =     1.69 Bohr mag/cell

     iteration # 44     ecut=    70.00 Ry     beta= 0.70
     Davidson diagonalization with overlap
     ethr =  2.76E-07,  avg # of iterations =  3.0

     negative rho (up, down):  7.028E-04 2.404E-03

     total cpu time spent up to now is     5338.3 secs

     total energy              =    -825.90667713 Ry
     Harris-Foulkes estimate   =    -825.90725252 Ry
     estimated scf accuracy    <       0.00630140 Ry

     total magnetization       =     1.00 Bohr mag/cell
     absolute magnetization    =     1.63 Bohr mag/cell

     iteration # 45     ecut=    70.00 Ry     beta= 0.70
     Davidson diagonalization with overlap
     ethr =  2.76E-07,  avg # of iterations =  3.5

     negative rho (up, down):  7.028E-04 2.374E-03

     total cpu time spent up to now is     5444.3 secs

     total energy              =    -825.90699753 Ry
     Harris-Foulkes estimate   =    -825.90705510 Ry
     estimated scf accuracy    <       0.00075943 Ry

     total magnetization       =     1.00 Bohr mag/cell
     absolute magnetization    =     1.63 Bohr mag/cell

     iteration # 46     ecut=    70.00 Ry     beta= 0.70
     Davidson diagonalization with overlap
     ethr =  2.76E-07,  avg # of iterations =  3.0

     negative rho (up, down):  7.027E-04 2.417E-03

     total cpu time spent up to now is     5540.0 secs

     total energy              =    -825.90715005 Ry
     Harris-Foulkes estimate   =    -825.90714952 Ry
     estimated scf accuracy    <       0.00072030 Ry

     total magnetization       =     1.00 Bohr mag/cell
     absolute magnetization    =     1.65 Bohr mag/cell

     iteration # 47     ecut=    70.00 Ry     beta= 0.70
     Davidson diagonalization with overlap
     ethr =  2.76E-07,  avg # of iterations =  1.0

     negative rho (up, down):  7.027E-04 2.423E-03

     total cpu time spent up to now is     5633.5 secs

     total energy              =    -825.90723696 Ry
     Harris-Foulkes estimate   =    -825.90718985 Ry
     estimated scf accuracy    <       0.00061256 Ry

     total magnetization       =     1.00 Bohr mag/cell
     absolute magnetization    =     1.64 Bohr mag/cell

     iteration # 48     ecut=    70.00 Ry     beta= 0.70
     Davidson diagonalization with overlap
     ethr =  2.76E-07,  avg # of iterations =  2.0

     negative rho (up, down):  7.026E-04 2.444E-03

     total cpu time spent up to now is     5727.2 secs

     total energy              =    -825.90729884 Ry
     Harris-Foulkes estimate   =    -825.90730833 Ry
     estimated scf accuracy    <       0.00053583 Ry

     total magnetization       =     1.00 Bohr mag/cell
     absolute magnetization    =     1.67 Bohr mag/cell

     iteration # 49     ecut=    70.00 Ry     beta= 0.70
     Davidson diagonalization with overlap
     ethr =  2.52E-07,  avg # of iterations =  1.0

     negative rho (up, down):  7.026E-04 2.471E-03

     total cpu time spent up to now is     5820.7 secs

     total energy              =    -825.90729912 Ry
     Harris-Foulkes estimate   =    -825.90730640 Ry
     estimated scf accuracy    <       0.00028343 Ry

     total magnetization       =     1.00 Bohr mag/cell
     absolute magnetization    =     1.68 Bohr mag/cell

     iteration # 50     ecut=    70.00 Ry     beta= 0.70
     Davidson diagonalization with overlap
     ethr =  1.33E-07,  avg # of iterations =  1.0

     negative rho (up, down):  7.026E-04 2.474E-03

     total cpu time spent up to now is     5914.2 secs

     total energy              =    -825.90724397 Ry
     Harris-Foulkes estimate   =    -825.90729991 Ry
     estimated scf accuracy    <       0.00029822 Ry

     total magnetization       =     1.00 Bohr mag/cell
     absolute magnetization    =     1.67 Bohr mag/cell

     iteration # 51     ecut=    70.00 Ry     beta= 0.70
     Davidson diagonalization with overlap
     ethr =  1.33E-07,  avg # of iterations =  1.0

     negative rho (up, down):  7.024E-04 2.489E-03

     total cpu time spent up to now is     6007.5 secs

     total energy              =    -825.90714904 Ry
     Harris-Foulkes estimate   =    -825.90726008 Ry
     estimated scf accuracy    <       0.00054418 Ry

     total magnetization       =     1.00 Bohr mag/cell
     absolute magnetization    =     1.65 Bohr mag/cell

     iteration # 52     ecut=    70.00 Ry     beta= 0.70
     Davidson diagonalization with overlap
     ethr =  1.33E-07,  avg # of iterations =  2.0

     negative rho (up, down):  7.023E-04 2.427E-03

     total cpu time spent up to now is     6101.6 secs

     total energy              =    -825.90723947 Ry
     Harris-Foulkes estimate   =    -825.90718911 Ry
     estimated scf accuracy    <       0.00055571 Ry

     total magnetization       =     1.00 Bohr mag/cell
     absolute magnetization    =     1.61 Bohr mag/cell

     iteration # 53     ecut=    70.00 Ry     beta= 0.70
     Davidson diagonalization with overlap
     ethr =  1.33E-07,  avg # of iterations =  2.5

     negative rho (up, down):  7.024E-04 2.468E-03

     total cpu time spent up to now is     6198.7 secs

     total energy              =    -825.90738241 Ry
     Harris-Foulkes estimate   =    -825.90737594 Ry
     estimated scf accuracy    <       0.00024522 Ry

     total magnetization       =     1.00 Bohr mag/cell
     absolute magnetization    =     1.68 Bohr mag/cell

     iteration # 54     ecut=    70.00 Ry     beta= 0.70
     Davidson diagonalization with overlap
     ethr =  1.15E-07,  avg # of iterations =  2.0

     negative rho (up, down):  7.023E-04 2.593E-03

     total cpu time spent up to now is     6293.1 secs

     total energy              =    -825.90748299 Ry
     Harris-Foulkes estimate   =    -825.90743105 Ry
     estimated scf accuracy    <       0.00030454 Ry

     total magnetization       =     1.00 Bohr mag/cell
     absolute magnetization    =     1.72 Bohr mag/cell

     iteration # 55     ecut=    70.00 Ry     beta= 0.70
     Davidson diagonalization with overlap
     ethr =  1.15E-07,  avg # of iterations =  2.0

     negative rho (up, down):  7.022E-04 2.626E-03

     total cpu time spent up to now is     6388.3 secs

     total energy              =    -825.90753701 Ry
     Harris-Foulkes estimate   =    -825.90754291 Ry
     estimated scf accuracy    <       0.00031738 Ry

     total magnetization       =     1.00 Bohr mag/cell
     absolute magnetization    =     1.76 Bohr mag/cell

     iteration # 56     ecut=    70.00 Ry     beta= 0.70
     Davidson diagonalization with overlap
     ethr =  1.15E-07,  avg # of iterations =  1.0

     negative rho (up, down):  7.023E-04 2.625E-03

     total cpu time spent up to now is     6481.9 secs

     total energy              =    -825.90747095 Ry
     Harris-Foulkes estimate   =    -825.90754154 Ry
     estimated scf accuracy    <       0.00019487 Ry

     total magnetization       =     1.00 Bohr mag/cell
     absolute magnetization    =     1.76 Bohr mag/cell

     iteration # 57     ecut=    70.00 Ry     beta= 0.70
     Davidson diagonalization with overlap
     ethr =  9.15E-08,  avg # of iterations =  1.0

     negative rho (up, down):  7.024E-04 2.598E-03

     total cpu time spent up to now is     6575.2 secs

     total energy              =    -825.90737966 Ry
     Harris-Foulkes estimate   =    -825.90747970 Ry
     estimated scf accuracy    <       0.00022390 Ry

     total magnetization       =     1.00 Bohr mag/cell
     absolute magnetization    =     1.73 Bohr mag/cell

     iteration # 58     ecut=    70.00 Ry     beta= 0.70
     Davidson diagonalization with overlap
     ethr =  9.15E-08,  avg # of iterations =  2.0

     negative rho (up, down):  7.023E-04 2.572E-03

     total cpu time spent up to now is     6669.4 secs

     total energy              =    -825.90739012 Ry
     Harris-Foulkes estimate   =    -825.90740348 Ry
     estimated scf accuracy    <       0.00055973 Ry

     total magnetization       =     1.00 Bohr mag/cell
     absolute magnetization    =     1.71 Bohr mag/cell

     iteration # 59     ecut=    70.00 Ry     beta= 0.70
     Davidson diagonalization with overlap
     ethr =  9.15E-08,  avg # of iterations =  1.0

     negative rho (up, down):  7.021E-04 2.645E-03

     total cpu time spent up to now is     6762.7 secs

     total energy              =    -825.90748145 Ry
     Harris-Foulkes estimate   =    -825.90739423 Ry
     estimated scf accuracy    <       0.00048325 Ry

     total magnetization       =     1.00 Bohr mag/cell
     absolute magnetization    =     1.70 Bohr mag/cell

     iteration # 60     ecut=    70.00 Ry     beta= 0.70
     Davidson diagonalization with overlap
     ethr =  9.15E-08,  avg # of iterations =  3.5

     negative rho (up, down):  7.022E-04 2.688E-03

     total cpu time spent up to now is     6869.9 secs

     total energy              =    -825.90705579 Ry
     Harris-Foulkes estimate   =    -825.90765368 Ry
     estimated scf accuracy    <       0.00040624 Ry

     total magnetization       =     1.00 Bohr mag/cell
     absolute magnetization    =     1.79 Bohr mag/cell

     iteration # 61     ecut=    70.00 Ry     beta= 0.70
     Davidson diagonalization with overlap
     ethr =  9.15E-08,  avg # of iterations =  4.0

     negative rho (up, down):  7.020E-04 2.620E-03

     total cpu time spent up to now is     6980.5 secs

     total energy              =    -825.90724031 Ry
     Harris-Foulkes estimate   =    -825.90732931 Ry
     estimated scf accuracy    <       0.00038843 Ry

     total magnetization       =     1.00 Bohr mag/cell
     absolute magnetization    =     1.68 Bohr mag/cell

     iteration # 62     ecut=    70.00 Ry     beta= 0.70
     Davidson diagonalization with overlap
     ethr =  9.15E-08,  avg # of iterations =  2.0

     negative rho (up, down):  7.014E-04 2.581E-03

     total cpu time spent up to now is     7074.8 secs

     total energy              =    -825.90725477 Ry
     Harris-Foulkes estimate   =    -825.90727636 Ry
     estimated scf accuracy    <       0.00048954 Ry

     total magnetization       =     1.00 Bohr mag/cell
     absolute magnetization    =     1.65 Bohr mag/cell

     iteration # 63     ecut=    70.00 Ry     beta= 0.70
     Davidson diagonalization with overlap
     ethr =  9.15E-08,  avg # of iterations =  2.5

     negative rho (up, down):  7.010E-04 2.702E-03

     total cpu time spent up to now is     7173.4 secs

     total energy              =    -825.90715626 Ry
     Harris-Foulkes estimate   =    -825.90731352 Ry
     estimated scf accuracy    <       0.00034926 Ry

     total magnetization       =     1.00 Bohr mag/cell
     absolute magnetization    =     1.69 Bohr mag/cell

     iteration # 64     ecut=    70.00 Ry     beta= 0.70
     Davidson diagonalization with overlap
     ethr =  9.15E-08,  avg # of iterations =  2.0

     negative rho (up, down):  7.005E-04 2.758E-03

     total cpu time spent up to now is     7269.1 secs

     total energy              =    -825.90718364 Ry
     Harris-Foulkes estimate   =    -825.90723631 Ry
     estimated scf accuracy    <       0.00025541 Ry

     total magnetization       =     1.00 Bohr mag/cell
     absolute magnetization    =     1.68 Bohr mag/cell

     iteration # 65     ecut=    70.00 Ry     beta= 0.70
     Davidson diagonalization with overlap
     ethr =  9.15E-08,  avg # of iterations =  2.0

     negative rho (up, down):  7.006E-04 2.670E-03

     total cpu time spent up to now is     7363.4 secs

     total energy              =    -825.90716341 Ry
     Harris-Foulkes estimate   =    -825.90721696 Ry
     estimated scf accuracy    <       0.00019495 Ry

     total magnetization       =     1.00 Bohr mag/cell
     absolute magnetization    =     1.69 Bohr mag/cell

     iteration # 66     ecut=    70.00 Ry     beta= 0.70
     Davidson diagonalization with overlap
     ethr =  9.15E-08,  avg # of iterations =  2.5

     negative rho (up, down):  7.001E-04 2.751E-03

     total cpu time spent up to now is     7460.6 secs

     total energy              =    -825.90717793 Ry
     Harris-Foulkes estimate   =    -825.90730405 Ry
     estimated scf accuracy    <       0.00015729 Ry

     total magnetization       =     1.00 Bohr mag/cell
     absolute magnetization    =     1.70 Bohr mag/cell

     iteration # 67     ecut=    70.00 Ry     beta= 0.70
     Davidson diagonalization with overlap
     ethr =  7.38E-08,  avg # of iterations =  2.5

     negative rho (up, down):  6.992E-04 2.928E-03

     total cpu time spent up to now is     7557.3 secs

     total energy              =    -825.90715718 Ry
     Harris-Foulkes estimate   =    -825.90726408 Ry
     estimated scf accuracy    <       0.00034560 Ry

     total magnetization       =     1.00 Bohr mag/cell
     absolute magnetization    =     1.73 Bohr mag/cell

     iteration # 68     ecut=    70.00 Ry     beta= 0.70
     Davidson diagonalization with overlap
     ethr =  7.38E-08,  avg # of iterations =  3.0

     negative rho (up, down):  6.996E-04 2.882E-03

     total cpu time spent up to now is     7658.1 secs

     total energy              =    -825.90720328 Ry
     Harris-Foulkes estimate   =    -825.90726234 Ry
     estimated scf accuracy    <       0.00047185 Ry

     total magnetization       =     1.00 Bohr mag/cell
     absolute magnetization    =     1.77 Bohr mag/cell

     iteration # 69     ecut=    70.00 Ry     beta= 0.70
     Davidson diagonalization with overlap
     ethr =  7.38E-08,  avg # of iterations =  3.0

     negative rho (up, down):  6.994E-04 2.874E-03

     total cpu time spent up to now is     7755.2 secs

     total energy              =    -825.90726743 Ry
     Harris-Foulkes estimate   =    -825.90727739 Ry
     estimated scf accuracy    <       0.00026495 Ry

     total magnetization       =     1.00 Bohr mag/cell
     absolute magnetization    =     1.74 Bohr mag/cell

     iteration # 70     ecut=    70.00 Ry     beta= 0.70
     Davidson diagonalization with overlap
     ethr =  7.38E-08,  avg # of iterations =  2.0

     negative rho (up, down):  6.984E-04 3.014E-03

     total cpu time spent up to now is     7849.2 secs

     total energy              =    -825.90721812 Ry
     Harris-Foulkes estimate   =    -825.90728188 Ry
     estimated scf accuracy    <       0.00024617 Ry

     total magnetization       =     1.00 Bohr mag/cell
     absolute magnetization    =     1.76 Bohr mag/cell

     iteration # 71     ecut=    70.00 Ry     beta= 0.70
     Davidson diagonalization with overlap
     ethr =  7.38E-08,  avg # of iterations =  3.0

     negative rho (up, down):  6.955E-04 3.570E-03

     total cpu time spent up to now is     7954.6 secs

     total energy              =    -825.90661690 Ry
     Harris-Foulkes estimate   =    -825.90730342 Ry
     estimated scf accuracy    <       0.00016594 Ry

     total magnetization       =     1.00 Bohr mag/cell
     absolute magnetization    =     1.83 Bohr mag/cell

     iteration # 72     ecut=    70.00 Ry     beta= 0.70
     Davidson diagonalization with overlap
     ethr =  7.38E-08,  avg # of iterations =  4.0

     negative rho (up, down):  6.976E-04 3.284E-03

     total cpu time spent up to now is     8097.0 secs

     total energy              =    -825.90688462 Ry
     Harris-Foulkes estimate   =    -825.90731351 Ry
     estimated scf accuracy    <       0.00107526 Ry

     total magnetization       =     1.00 Bohr mag/cell
     absolute magnetization    =     1.97 Bohr mag/cell

     iteration # 73     ecut=    70.00 Ry     beta= 0.70
     Davidson diagonalization with overlap
     ethr =  7.38E-08,  avg # of iterations =  4.0

     negative rho (up, down):  6.966E-04 3.327E-03

     total cpu time spent up to now is     8231.5 secs

     total energy              =    -825.90724527 Ry
     Harris-Foulkes estimate   =    -825.90732230 Ry
     estimated scf accuracy    <       0.00014678 Ry

     total magnetization       =     1.00 Bohr mag/cell
     absolute magnetization    =     1.86 Bohr mag/cell

     iteration # 74     ecut=    70.00 Ry     beta= 0.70
     Davidson diagonalization with overlap
     ethr =  6.89E-08,  avg # of iterations =  3.0

     negative rho (up, down):  6.958E-04 3.459E-03

     total cpu time spent up to now is     8335.9 secs

     total energy              =    -825.90724614 Ry
     Harris-Foulkes estimate   =    -825.90731418 Ry
     estimated scf accuracy    <       0.00004207 Ry

     total magnetization       =     1.00 Bohr mag/cell
     absolute magnetization    =     1.91 Bohr mag/cell

     iteration # 75     ecut=    70.00 Ry     beta= 0.70
     Davidson diagonalization with overlap
     ethr =  1.98E-08,  avg # of iterations =  3.0

     negative rho (up, down):  6.959E-04 3.467E-03

     total cpu time spent up to now is     8459.5 secs

     total energy              =    -825.90729317 Ry
     Harris-Foulkes estimate   =    -825.90728881 Ry
     estimated scf accuracy    <       0.00005685 Ry

     total magnetization       =     1.00 Bohr mag/cell
     absolute magnetization    =     1.95 Bohr mag/cell

     iteration # 76     ecut=    70.00 Ry     beta= 0.70
     Davidson diagonalization with overlap
     ethr =  1.98E-08,  avg # of iterations =  1.0

     negative rho (up, down):  6.963E-04 3.421E-03

     total cpu time spent up to now is     8553.0 secs

     total energy              =    -825.90729770 Ry
     Harris-Foulkes estimate   =    -825.90729409 Ry
     estimated scf accuracy    <       0.00004998 Ry

     total magnetization       =     1.00 Bohr mag/cell
     absolute magnetization    =     1.95 Bohr mag/cell

     iteration # 77     ecut=    70.00 Ry     beta= 0.70
     Davidson diagonalization with overlap
     ethr =  1.98E-08,  avg # of iterations =  2.5

     negative rho (up, down):  6.956E-04 3.504E-03

     total cpu time spent up to now is     8652.2 secs

     total energy              =    -825.90725845 Ry
     Harris-Foulkes estimate   =    -825.90730882 Ry
     estimated scf accuracy    <       0.00002986 Ry

     total magnetization       =     1.00 Bohr mag/cell
     absolute magnetization    =     1.93 Bohr mag/cell

     iteration # 78     ecut=    70.00 Ry     beta= 0.70
     Davidson diagonalization with overlap
     ethr =  1.40E-08,  avg # of iterations =  3.5

     negative rho (up, down):  6.957E-04 3.494E-03

     total cpu time spent up to now is     8781.0 secs

     total energy              =    -825.90729105 Ry
     Harris-Foulkes estimate   =    -825.90729590 Ry
     estimated scf accuracy    <       0.00012409 Ry

     total magnetization       =     1.00 Bohr mag/cell
     absolute magnetization    =     1.96 Bohr mag/cell

     iteration # 79     ecut=    70.00 Ry     beta= 0.70
     Davidson diagonalization with overlap
     ethr =  1.40E-08,  avg # of iterations =  2.5

     negative rho (up, down):  6.967E-04 3.388E-03

     total cpu time spent up to now is     8882.1 secs

     total energy              =    -825.90725985 Ry
     Harris-Foulkes estimate   =    -825.90729764 Ry
     estimated scf accuracy    <       0.00008687 Ry

     total magnetization       =     1.00 Bohr mag/cell
     absolute magnetization    =     1.95 Bohr mag/cell

     iteration # 80     ecut=    70.00 Ry     beta= 0.70
     Davidson diagonalization with overlap
     ethr =  1.40E-08,  avg # of iterations =  3.5

     negative rho (up, down):  6.967E-04 3.355E-03

     total cpu time spent up to now is     9014.2 secs

     total energy              =    -825.90732791 Ry
     Harris-Foulkes estimate   =    -825.90732741 Ry
     estimated scf accuracy    <       0.00002118 Ry

     total magnetization       =     1.00 Bohr mag/cell
     absolute magnetization    =     1.91 Bohr mag/cell

     iteration # 81     ecut=    70.00 Ry     beta= 0.70
     Davidson diagonalization with overlap
     ethr =  9.94E-09,  avg # of iterations =  2.0

     negative rho (up, down):  6.965E-04 3.369E-03

     total cpu time spent up to now is     9108.9 secs

     total energy              =    -825.90731378 Ry
     Harris-Foulkes estimate   =    -825.90733122 Ry
     estimated scf accuracy    <       0.00003062 Ry

     total magnetization       =     1.00 Bohr mag/cell
     absolute magnetization    =     1.91 Bohr mag/cell

     iteration # 82     ecut=    70.00 Ry     beta= 0.70
     Davidson diagonalization with overlap
     ethr =  9.94E-09,  avg # of iterations =  4.0

     negative rho (up, down):  6.966E-04 3.359E-03

     total cpu time spent up to now is     9217.0 secs

     total energy              =    -825.90730180 Ry
     Harris-Foulkes estimate   =    -825.90734291 Ry
     estimated scf accuracy    <       0.00038650 Ry

     total magnetization       =     1.00 Bohr mag/cell
     absolute magnetization    =     1.93 Bohr mag/cell

     iteration # 83     ecut=    70.00 Ry     beta= 0.70
     Davidson diagonalization with overlap
     ethr =  9.94E-09,  avg # of iterations =  4.0

     negative rho (up, down):  6.966E-04 3.358E-03

     total cpu time spent up to now is     9323.9 secs

     total energy              =    -825.90733432 Ry
     Harris-Foulkes estimate   =    -825.90733163 Ry
     estimated scf accuracy    <       0.00003425 Ry

     total magnetization       =     1.00 Bohr mag/cell
     absolute magnetization    =     1.92 Bohr mag/cell

     iteration # 84     ecut=    70.00 Ry     beta= 0.70
     Davidson diagonalization with overlap
     ethr =  9.94E-09,  avg # of iterations =  1.0

     negative rho (up, down):  6.966E-04 3.365E-03

     total cpu time spent up to now is     9417.5 secs

     total energy              =    -825.90733630 Ry
     Harris-Foulkes estimate   =    -825.90733528 Ry
     estimated scf accuracy    <       0.00003285 Ry

     total magnetization       =     1.00 Bohr mag/cell
     absolute magnetization    =     1.92 Bohr mag/cell

     iteration # 85     ecut=    70.00 Ry     beta= 0.70
     Davidson diagonalization with overlap
     ethr =  9.94E-09,  avg # of iterations =  1.0

     negative rho (up, down):  6.965E-04 3.368E-03

     total cpu time spent up to now is     9511.1 secs

     total energy              =    -825.90733652 Ry
     Harris-Foulkes estimate   =    -825.90733780 Ry
     estimated scf accuracy    <       0.00002375 Ry

     total magnetization       =     1.00 Bohr mag/cell
     absolute magnetization    =     1.92 Bohr mag/cell

     iteration # 86     ecut=    70.00 Ry     beta= 0.70
     Davidson diagonalization with overlap
     ethr =  9.94E-09,  avg # of iterations =  1.0

     negative rho (up, down):  6.966E-04 3.363E-03

     total cpu time spent up to now is     9604.5 secs

     total energy              =    -825.90734203 Ry
     Harris-Foulkes estimate   =    -825.90733799 Ry
     estimated scf accuracy    <       0.00003739 Ry

     total magnetization       =     1.00 Bohr mag/cell
     absolute magnetization    =     1.92 Bohr mag/cell

     iteration # 87     ecut=    70.00 Ry     beta= 0.70
     Davidson diagonalization with overlap
     ethr =  9.94E-09,  avg # of iterations =  1.0

     negative rho (up, down):  6.966E-04 3.363E-03

     total cpu time spent up to now is     9698.0 secs

     total energy              =    -825.90734367 Ry
     Harris-Foulkes estimate   =    -825.90734295 Ry
     estimated scf accuracy    <       0.00004376 Ry

     total magnetization       =     1.00 Bohr mag/cell
     absolute magnetization    =     1.92 Bohr mag/cell

     iteration # 88     ecut=    70.00 Ry     beta= 0.70
     Davidson diagonalization with overlap
     ethr =  9.94E-09,  avg # of iterations =  1.0

     negative rho (up, down):  6.966E-04 3.360E-03

     total cpu time spent up to now is     9791.3 secs

     total energy              =    -825.90734519 Ry
     Harris-Foulkes estimate   =    -825.90734438 Ry
     estimated scf accuracy    <       0.00003930 Ry

     total magnetization       =     1.00 Bohr mag/cell
     absolute magnetization    =     1.92 Bohr mag/cell

     iteration # 89     ecut=    70.00 Ry     beta= 0.70
     Davidson diagonalization with overlap
     ethr =  9.94E-09,  avg # of iterations =  1.0

     negative rho (up, down):  6.966E-04 3.348E-03

     total cpu time spent up to now is     9884.8 secs

     total energy              =    -825.90735293 Ry
     Harris-Foulkes estimate   =    -825.90734591 Ry
     estimated scf accuracy    <       0.00003819 Ry

     total magnetization       =     1.00 Bohr mag/cell
     absolute magnetization    =     1.92 Bohr mag/cell

     iteration # 90     ecut=    70.00 Ry     beta= 0.70
     Davidson diagonalization with overlap
     ethr =  9.94E-09,  avg # of iterations =  3.0

     negative rho (up, down):  6.966E-04 3.369E-03

     total cpu time spent up to now is     9991.1 secs

     total energy              =    -825.90734987 Ry
     Harris-Foulkes estimate   =    -825.90736303 Ry
     estimated scf accuracy    <       0.00004767 Ry

     total magnetization       =     1.00 Bohr mag/cell
     absolute magnetization    =     1.93 Bohr mag/cell

     iteration # 91     ecut=    70.00 Ry     beta= 0.70
     Davidson diagonalization with overlap
     ethr =  9.94E-09,  avg # of iterations =  3.0

     negative rho (up, down):  6.969E-04 3.342E-03

     total cpu time spent up to now is    10088.8 secs

     total energy              =    -825.90735049 Ry
     Harris-Foulkes estimate   =    -825.90735413 Ry
     estimated scf accuracy    <       0.00003803 Ry

     total magnetization       =     1.00 Bohr mag/cell
     absolute magnetization    =     1.92 Bohr mag/cell

     iteration # 92     ecut=    70.00 Ry     beta= 0.70
     Davidson diagonalization with overlap
     ethr =  9.94E-09,  avg # of iterations =  4.0

     negative rho (up, down):  6.967E-04 3.357E-03

     total cpu time spent up to now is    10211.6 secs

     total energy              =    -825.90730207 Ry
     Harris-Foulkes estimate   =    -825.90742243 Ry
     estimated scf accuracy    <       0.00094181 Ry

     total magnetization       =     1.00 Bohr mag/cell
     absolute magnetization    =     1.93 Bohr mag/cell

     iteration # 93     ecut=    70.00 Ry     beta= 0.70
     Davidson diagonalization with overlap
     ethr =  9.94E-09,  avg # of iterations =  4.0

     negative rho (up, down):  6.967E-04 3.364E-03

     total cpu time spent up to now is    10332.6 secs

     total energy              =    -825.90735069 Ry
     Harris-Foulkes estimate   =    -825.90736502 Ry
     estimated scf accuracy    <       0.00003350 Ry

     total magnetization       =     1.00 Bohr mag/cell
     absolute magnetization    =     1.92 Bohr mag/cell

     iteration # 94     ecut=    70.00 Ry     beta= 0.70
     Davidson diagonalization with overlap
     ethr =  9.94E-09,  avg # of iterations =  2.0

     negative rho (up, down):  6.966E-04 3.416E-03

     total cpu time spent up to now is    10426.6 secs

     total energy              =    -825.90726571 Ry
     Harris-Foulkes estimate   =    -825.90735391 Ry
     estimated scf accuracy    <       0.00003063 Ry

     total magnetization       =     1.00 Bohr mag/cell
     absolute magnetization    =     1.92 Bohr mag/cell

     iteration # 95     ecut=    70.00 Ry     beta= 0.70
     Davidson diagonalization with overlap
     ethr =  9.94E-09,  avg # of iterations =  3.0

     negative rho (up, down):  6.967E-04 3.371E-03

     total cpu time spent up to now is    10545.6 secs

     total energy              =    -825.90730145 Ry
     Harris-Foulkes estimate   =    -825.90731871 Ry
     estimated scf accuracy    <       0.00004441 Ry

     total magnetization       =     1.00 Bohr mag/cell
     absolute magnetization    =     1.92 Bohr mag/cell

     iteration # 96     ecut=    70.00 Ry     beta= 0.70
     Davidson diagonalization with overlap
     ethr =  9.94E-09,  avg # of iterations =  3.0

     negative rho (up, down):  6.965E-04 3.457E-03

     total cpu time spent up to now is    10649.9 secs

     total energy              =    -825.90721082 Ry
     Harris-Foulkes estimate   =    -825.90731051 Ry
     estimated scf accuracy    <       0.00004095 Ry

     total magnetization       =     1.00 Bohr mag/cell
     absolute magnetization    =     1.92 Bohr mag/cell

     iteration # 97     ecut=    70.00 Ry     beta= 0.70
     Davidson diagonalization with overlap
     ethr =  9.94E-09,  avg # of iterations =  3.0

     negative rho (up, down):  6.965E-04 3.442E-03

     total cpu time spent up to now is    10764.9 secs

     total energy              =    -825.90725840 Ry
     Harris-Foulkes estimate   =    -825.90727371 Ry
     estimated scf accuracy    <       0.00002416 Ry

     total magnetization       =     1.00 Bohr mag/cell
     absolute magnetization    =     1.92 Bohr mag/cell

     iteration # 98     ecut=    70.00 Ry     beta= 0.70
     Davidson diagonalization with overlap
     ethr =  9.94E-09,  avg # of iterations =  2.5

     negative rho (up, down):  6.964E-04 3.507E-03

     total cpu time spent up to now is    10863.9 secs

     total energy              =    -825.90720862 Ry
     Harris-Foulkes estimate   =    -825.90726599 Ry
     estimated scf accuracy    <       0.00001816 Ry

     total magnetization       =     1.00 Bohr mag/cell
     absolute magnetization    =     1.92 Bohr mag/cell

     iteration # 99     ecut=    70.00 Ry     beta= 0.70
     Davidson diagonalization with overlap
     ethr =  8.53E-09,  avg # of iterations =  3.0

     negative rho (up, down):  6.963E-04 3.564E-03

     total cpu time spent up to now is    10981.2 secs

     total energy              =    -825.90719299 Ry
     Harris-Foulkes estimate   =    -825.90724207 Ry
     estimated scf accuracy    <       0.00004011 Ry

     total magnetization       =     1.00 Bohr mag/cell
     absolute magnetization    =     1.93 Bohr mag/cell

     iteration #100     ecut=    70.00 Ry     beta= 0.70
     Davidson diagonalization with overlap
     ethr =  8.53E-09,  avg # of iterations =  3.0

     negative rho (up, down):  6.963E-04 3.600E-03

     Magnetic moment per site:
     atom:    1    charge:    0.2086    magn:   -0.0014    constr:    0.0000
     atom:    2    charge:    0.2084    magn:   -0.0011    constr:    0.0000
     atom:    3    charge:    1.7168    magn:   -0.0063    constr:    0.0000
     atom:    4    charge:    1.7154    magn:    0.0146    constr:    0.0000
     atom:    5    charge:    1.7174    magn:   -0.0025    constr:    0.0000
     atom:    6    charge:    1.7147    magn:    0.0022    constr:    0.0000
     atom:    7    charge:    1.7167    magn:   -0.0008    constr:    0.0000
     atom:    8    charge:    1.7169    magn:    0.0047    constr:    0.0000
     atom:    9    charge:    1.7154    magn:   -0.0050    constr:    0.0000
     atom:   10    charge:    1.7202    magn:    0.0157    constr:    0.0000
     atom:   11    charge:    1.7159    magn:   -0.0092    constr:    0.0000
     atom:   12    charge:    1.7154    magn:    0.0541    constr:    0.0000
     atom:   13    charge:    1.7163    magn:   -0.0102    constr:    0.0000
     atom:   14    charge:    1.7190    magn:    0.0150    constr:    0.0000
     atom:   15    charge:    1.7127    magn:   -0.0050    constr:    0.0000
     atom:   16    charge:    1.7165    magn:    0.0268    constr:    0.0000
     atom:   17    charge:    1.7213    magn:    0.0005    constr:    0.0000
     atom:   18    charge:    1.7169    magn:    0.0323    constr:    0.0000
     atom:   19    charge:    1.7135    magn:   -0.0082    constr:    0.0000
     atom:   20    charge:    1.7164    magn:    0.0409    constr:    0.0000
     atom:   21    charge:    1.7156    magn:   -0.0093    constr:    0.0000
     atom:   22    charge:    1.7176    magn:    0.0374    constr:    0.0000
     atom:   23    charge:    1.7161    magn:   -0.0047    constr:    0.0000
     atom:   24    charge:    1.7158    magn:    0.0117    constr:    0.0000
     atom:   25    charge:    1.7126    magn:   -0.0052    constr:    0.0000
     atom:   26    charge:    1.7180    magn:    0.0131    constr:    0.0000
     atom:   27    charge:    1.8709    magn:    0.0007    constr:    0.0000
     atom:   28    charge:   10.0432    magn:    0.0699    constr:    0.0000
     atom:   29    charge:    1.8731    magn:    0.0010    constr:    0.0000
     atom:   30    charge:    1.7147    magn:    0.0502    constr:    0.0000
     atom:   31    charge:    1.7138    magn:   -0.0094    constr:    0.0000
     atom:   32    charge:    1.7167    magn:    0.0077    constr:    0.0000
     atom:   33    charge:    1.7169    magn:   -0.0022    constr:    0.0000
     atom:   34    charge:    1.7155    magn:    0.0064    constr:    0.0000
     atom:   35    charge:    1.7172    magn:   -0.0019    constr:    0.0000
     atom:   36    charge:    1.7146    magn:    0.0018    constr:    0.0000
     atom:   37    charge:    1.7204    magn:    0.0035    constr:    0.0000
     atom:   38    charge:    1.7188    magn:    0.0134    constr:    0.0000
     atom:   39    charge:    1.8716    magn:    0.0026    constr:    0.0000
     atom:   40    charge:    1.7151    magn:    0.0452    constr:    0.0000
     atom:   41    charge:    1.7218    magn:   -0.0011    constr:    0.0000
     atom:   42    charge:    1.7149    magn:    0.0016    constr:    0.0000
     atom:   43    charge:    1.7171    magn:   -0.0021    constr:    0.0000
     atom:   44    charge:    1.7151    magn:    0.0088    constr:    0.0000
     atom:   45    charge:    1.7207    magn:    0.0096    constr:    0.0000
     atom:   46    charge:    1.7160    magn:    0.0018    constr:    0.0000
     atom:   47    charge:    1.7168    magn:   -0.0007    constr:    0.0000
     atom:   48    charge:    1.7165    magn:    0.0063    constr:    0.0000
     atom:   49    charge:    1.7128    magn:   -0.0060    constr:    0.0000
     atom:   50    charge:    1.7180    magn:    0.0260    constr:    0.0000
     atom:   51    charge:    1.7133    magn:   -0.0070    constr:    0.0000
     atom:   52    charge:    1.7160    magn:    0.0123    constr:    0.0000

     total cpu time spent up to now is    11088.9 secs

     total energy              =    -825.90717621 Ry
     Harris-Foulkes estimate   =    -825.90722073 Ry
     estimated scf accuracy    <       0.00004326 Ry

     total magnetization       =     1.00 Bohr mag/cell
     absolute magnetization    =     1.94 Bohr mag/cell

     iteration #101     ecut=    70.00 Ry     beta= 0.70
     Davidson diagonalization with overlap
     ethr =  8.53E-09,  avg # of iterations =  3.0

     negative rho (up, down):  6.965E-04 3.357E-03

     total cpu time spent up to now is    11196.4 secs

     total energy              =    -825.90688058 Ry
     Harris-Foulkes estimate   =    -825.90719679 Ry
     estimated scf accuracy    <       0.00004036 Ry

     total magnetization       =     1.00 Bohr mag/cell
     absolute magnetization    =     1.95 Bohr mag/cell

     iteration #102     ecut=    70.00 Ry     beta= 0.70
     Davidson diagonalization with overlap
     ethr =  8.53E-09,  avg # of iterations =  4.0

     negative rho (up, down):  6.964E-04 3.453E-03

     total cpu time spent up to now is    11343.2 secs

     total energy              =    -825.90717928 Ry
     Harris-Foulkes estimate   =    -825.90729319 Ry
     estimated scf accuracy    <       0.00007981 Ry

     total magnetization       =     1.00 Bohr mag/cell
     absolute magnetization    =     1.92 Bohr mag/cell

     iteration #103     ecut=    70.00 Ry     beta= 0.70
     Davidson diagonalization with overlap
     ethr =  8.53E-09,  avg # of iterations =  3.5

     negative rho (up, down):  6.964E-04 3.387E-03

     total cpu time spent up to now is    11471.4 secs

     total energy              =    -825.90725647 Ry
     Harris-Foulkes estimate   =    -825.90725321 Ry
     estimated scf accuracy    <       0.00002897 Ry

     total magnetization       =     1.00 Bohr mag/cell
     absolute magnetization    =     1.92 Bohr mag/cell

     iteration #104     ecut=    70.00 Ry     beta= 0.70
     Davidson diagonalization with overlap
     ethr =  8.53E-09,  avg # of iterations =  3.0

     negative rho (up, down):  6.962E-04 3.628E-03

     total cpu time spent up to now is    11570.2 secs

     total energy              =    -825.90705094 Ry
     Harris-Foulkes estimate   =    -825.90726613 Ry
     estimated scf accuracy    <       0.00002620 Ry

     total magnetization       =     1.00 Bohr mag/cell
     absolute magnetization    =     1.92 Bohr mag/cell

     iteration #105     ecut=    70.00 Ry     beta= 0.70
     Davidson diagonalization with overlap
     ethr =  8.53E-09,  avg # of iterations =  4.0

     negative rho (up, down):  6.964E-04 3.407E-03

     total cpu time spent up to now is    11707.1 secs

     total energy              =    -825.90716583 Ry
     Harris-Foulkes estimate   =    -825.90721017 Ry
     estimated scf accuracy    <       0.00002338 Ry

     total magnetization       =     1.00 Bohr mag/cell
     absolute magnetization    =     1.94 Bohr mag/cell

     iteration #106     ecut=    70.00 Ry     beta= 0.70
     Davidson diagonalization with overlap
     ethr =  8.53E-09,  avg # of iterations =  4.0

     negative rho (up, down):  6.965E-04 3.421E-03

     total cpu time spent up to now is    11838.5 secs

     total energy              =    -825.90724587 Ry
     Harris-Foulkes estimate   =    -825.90725458 Ry
     estimated scf accuracy    <       0.00003367 Ry

     total magnetization       =     1.00 Bohr mag/cell
     absolute magnetization    =     1.92 Bohr mag/cell

     iteration #107     ecut=    70.00 Ry     beta= 0.70
     Davidson diagonalization with overlap
     ethr =  8.53E-09,  avg # of iterations =  2.0

     negative rho (up, down):  6.965E-04 3.439E-03

     total cpu time spent up to now is    11934.8 secs

     total energy              =    -825.90724267 Ry
     Harris-Foulkes estimate   =    -825.90725039 Ry
     estimated scf accuracy    <       0.00003474 Ry

     total magnetization       =     1.00 Bohr mag/cell
     absolute magnetization    =     1.92 Bohr mag/cell

     iteration #108     ecut=    70.00 Ry     beta= 0.70
     Davidson diagonalization with overlap
     ethr =  8.53E-09,  avg # of iterations =  2.0

     negative rho (up, down):  6.965E-04 3.481E-03

     total cpu time spent up to now is    12029.6 secs

     total energy              =    -825.90722879 Ry
     Harris-Foulkes estimate   =    -825.90724600 Ry
     estimated scf accuracy    <       0.00003374 Ry

     total magnetization       =     1.00 Bohr mag/cell
     absolute magnetization    =     1.92 Bohr mag/cell

     iteration #109     ecut=    70.00 Ry     beta= 0.70
     Davidson diagonalization with overlap
     ethr =  8.53E-09,  avg # of iterations =  2.5

     negative rho (up, down):  6.963E-04 3.354E-03

     total cpu time spent up to now is    12126.9 secs

     total energy              =    -825.90717614 Ry
     Harris-Foulkes estimate   =    -825.90723536 Ry
     estimated scf accuracy    <       0.00003528 Ry

     total magnetization       =     1.00 Bohr mag/cell
     absolute magnetization    =     1.92 Bohr mag/cell

     iteration #110     ecut=    70.00 Ry     beta= 0.70
     Davidson diagonalization with overlap
     ethr =  8.53E-09,  avg # of iterations =  4.0

     negative rho (up, down):  6.961E-04 3.394E-03

     total cpu time spent up to now is    12259.8 secs

     total energy              =    -825.90708597 Ry
     Harris-Foulkes estimate   =    -825.90727671 Ry
     estimated scf accuracy    <       0.00003152 Ry

     total magnetization       =     1.00 Bohr mag/cell
     absolute magnetization    =     1.92 Bohr mag/cell

     iteration #111     ecut=    70.00 Ry     beta= 0.70
     Davidson diagonalization with overlap
     ethr =  8.53E-09,  avg # of iterations =  4.0

     negative rho (up, down):  6.962E-04 3.425E-03

     total cpu time spent up to now is    12404.1 secs

     total energy              =    -825.90719890 Ry
     Harris-Foulkes estimate   =    -825.90736073 Ry
     estimated scf accuracy    <       0.00004220 Ry

     total magnetization       =     1.00 Bohr mag/cell
[...]
     Davidson diagonalization with overlap
     ethr =  7.41E-09,  avg # of iterations =  3.0

     negative rho (up, down):  6.965E-04 3.474E-03

     total cpu time spent up to now is    46732.4 secs

     total energy              =    -825.90721217 Ry
     Harris-Foulkes estimate   =    -825.90731990 Ry
     estimated scf accuracy    <       0.00002928 Ry

     total magnetization       =     1.00 Bohr mag/cell
     absolute magnetization    =     1.94 Bohr mag/cell

     iteration #378     ecut=    70.00 Ry     beta= 0.70
     Davidson diagonalization with overlap
     ethr =  7.41E-09,  avg # of iterations =  4.0

     negative rho (up, down):  6.966E-04 3.480E-03

     total cpu time spent up to now is    46867.4 secs

     total energy              =    -825.90724998 Ry
     Harris-Foulkes estimate   =    -825.90728959 Ry
     estimated scf accuracy    <       0.00003707 Ry

     total magnetization       =     1.00 Bohr mag/cell
     absolute magnetization    =     1.93 Bohr mag/cell

     iteration #379     ecut=    70.00 Ry     beta= 0.70
     Davidson diagonalization with overlap
     ethr =  7.41E-09,  avg # of iterations =  3.5

     negative rho (up, down):  6.967E-04 3.485E-03

     total cpu time spent up to now is    46983.0 secs

     total energy              =    -825.90724941 Ry
     Harris-Foulkes estimate   =    -825.90727308 Ry
     estimated scf accuracy    <       0.00001975 Ry

     total magnetization       =     1.00 Bohr mag/cell
     absolute magnetization    =     1.92 Bohr mag/cell

     iteration #380     ecut=    70.00 Ry     beta= 0.70
     Davidson diagonalization with overlap
     ethr =  7.41E-09,  avg # of iterations =  3.0

     negative rho (up, down):  6.967E-04 3.471E-03

     total cpu time spent up to now is    47086.0 secs

     total energy              =    -825.90725469 Ry
     Harris-Foulkes estimate   =    -825.90726221 Ry
     estimated scf accuracy    <       0.00002865 Ry

     total magnetization       =     1.00 Bohr mag/cell
     absolute magnetization    =     1.92 Bohr mag/cell

     iteration #381     ecut=    70.00 Ry     beta= 0.70
     Davidson diagonalization with overlap
     ethr =  7.41E-09,  avg # of iterations =  2.0

     negative rho (up, down):  6.968E-04 3.799E-03

     total cpu time spent up to now is    47180.5 secs

     total energy              =    -825.90690481 Ry
     Harris-Foulkes estimate   =    -825.90725686 Ry
     estimated scf accuracy    <       0.00002287 Ry

     total magnetization       =     1.00 Bohr mag/cell
     absolute magnetization    =     1.92 Bohr mag/cell

     iteration #382     ecut=    70.00 Ry     beta= 0.70
     Davidson diagonalization with overlap
     ethr =  7.41E-09,  avg # of iterations =  4.0

     negative rho (up, down):  6.969E-04 3.674E-03

     total cpu time spent up to now is    47332.8 secs

     total energy              =    -825.90718321 Ry
     Harris-Foulkes estimate   =    -825.90719504 Ry
     estimated scf accuracy    <       0.00022021 Ry

     total magnetization       =     1.00 Bohr mag/cell
     absolute magnetization    =     1.93 Bohr mag/cell

     iteration #383     ecut=    70.00 Ry     beta= 0.70
     Davidson diagonalization with overlap
     ethr =  7.41E-09,  avg # of iterations =  2.0

     negative rho (up, down):  6.967E-04 3.466E-03

     total cpu time spent up to now is    47428.6 secs

     total energy              =    -825.90711315 Ry
     Harris-Foulkes estimate   =    -825.90718655 Ry
     estimated scf accuracy    <       0.00013490 Ry

     total magnetization       =     1.00 Bohr mag/cell
     absolute magnetization    =     1.94 Bohr mag/cell

     iteration #384     ecut=    70.00 Ry     beta= 0.70
     Davidson diagonalization with overlap
     ethr =  7.41E-09,  avg # of iterations =  4.0

     negative rho (up, down):  6.967E-04 3.449E-03

     total cpu time spent up to now is    47567.6 secs

     total energy              =    -825.90723497 Ry
     Harris-Foulkes estimate   =    -825.90723649 Ry
     estimated scf accuracy    <       0.00003721 Ry

     total magnetization       =     1.00 Bohr mag/cell
     absolute magnetization    =     1.92 Bohr mag/cell

     iteration #385     ecut=    70.00 Ry     beta= 0.70
     Davidson diagonalization with overlap
     ethr =  7.41E-09,  avg # of iterations =  3.0

     negative rho (up, down):  6.968E-04 3.590E-03

     total cpu time spent up to now is    47675.0 secs

     total energy              =    -825.90716220 Ry
     Harris-Foulkes estimate   =    -825.90724553 Ry
     estimated scf accuracy    <       0.00002995 Ry

     total magnetization       =     1.00 Bohr mag/cell
     absolute magnetization    =     1.92 Bohr mag/cell

     iteration #386     ecut=    70.00 Ry     beta= 0.70
     Davidson diagonalization with overlap
     ethr =  7.41E-09,  avg # of iterations =  4.0

     negative rho (up, down):  6.966E-04 3.419E-03

     total cpu time spent up to now is    47806.6 secs

     total energy              =    -825.90712969 Ry
     Harris-Foulkes estimate   =    -825.90721856 Ry
     estimated scf accuracy    <       0.00007514 Ry

     total magnetization       =     1.00 Bohr mag/cell
     absolute magnetization    =     1.93 Bohr mag/cell

     iteration #387     ecut=    70.00 Ry     beta= 0.70
     Davidson diagonalization with overlap
     ethr =  7.41E-09,  avg # of iterations =  4.0

     negative rho (up, down):  6.966E-04 3.429E-03

     total cpu time spent up to now is    47945.6 secs

     total energy              =    -825.90726061 Ry
     Harris-Foulkes estimate   =    -825.90726040 Ry
     estimated scf accuracy    <       0.00002024 Ry

     total magnetization       =     1.00 Bohr mag/cell
     absolute magnetization    =     1.93 Bohr mag/cell

     iteration #388     ecut=    70.00 Ry     beta= 0.70
     Davidson diagonalization with overlap
     ethr =  7.41E-09,  avg # of iterations =  2.0

     negative rho (up, down):  6.966E-04 3.436E-03

     total cpu time spent up to now is    48040.8 secs

     total energy              =    -825.90726312 Ry
     Harris-Foulkes estimate   =    -825.90726284 Ry
     estimated scf accuracy    <       0.00002487 Ry

     total magnetization       =     1.00 Bohr mag/cell
     absolute magnetization    =     1.92 Bohr mag/cell

     iteration #389     ecut=    70.00 Ry     beta= 0.70
     Davidson diagonalization with overlap
     ethr =  7.41E-09,  avg # of iterations =  1.0

     negative rho (up, down):  6.966E-04 3.442E-03

     total cpu time spent up to now is    48134.6 secs

     total energy              =    -825.90725620 Ry
     Harris-Foulkes estimate   =    -825.90726333 Ry
     estimated scf accuracy    <       0.00002854 Ry

     total magnetization       =     1.00 Bohr mag/cell
     absolute magnetization    =     1.92 Bohr mag/cell

     iteration #390     ecut=    70.00 Ry     beta= 0.70
     Davidson diagonalization with overlap
     ethr =  7.41E-09,  avg # of iterations =  2.5

     negative rho (up, down):  6.965E-04 3.386E-03

     total cpu time spent up to now is    48236.0 secs

     total energy              =    -825.90724420 Ry
     Harris-Foulkes estimate   =    -825.90726143 Ry
     estimated scf accuracy    <       0.00002289 Ry

     total magnetization       =     1.00 Bohr mag/cell
     absolute magnetization    =     1.92 Bohr mag/cell

     iteration #391     ecut=    70.00 Ry     beta= 0.70
     Davidson diagonalization with overlap
     ethr =  7.41E-09,  avg # of iterations =  3.5

     negative rho (up, down):  6.965E-04 3.386E-03

     total cpu time spent up to now is    48363.3 secs

     total energy              =    -825.90727945 Ry
     Harris-Foulkes estimate   =    -825.90728106 Ry
     estimated scf accuracy    <       0.00003265 Ry

     total magnetization       =     1.00 Bohr mag/cell
     absolute magnetization    =     1.92 Bohr mag/cell

     iteration #392     ecut=    70.00 Ry     beta= 0.70
     Davidson diagonalization with overlap
     ethr =  7.41E-09,  avg # of iterations =  3.0

     negative rho (up, down):  6.965E-04 3.377E-03

     total cpu time spent up to now is    48465.5 secs

     total energy              =    -825.90728728 Ry
     Harris-Foulkes estimate   =    -825.90728544 Ry
     estimated scf accuracy    <       0.00004398 Ry

     total magnetization       =     1.00 Bohr mag/cell
     absolute magnetization    =     1.92 Bohr mag/cell

     iteration #393     ecut=    70.00 Ry     beta= 0.70
     Davidson diagonalization with overlap
     ethr =  7.41E-09,  avg # of iterations =  3.0

     negative rho (up, down):  6.964E-04 3.377E-03

     total cpu time spent up to now is    48563.0 secs

     total energy              =    -825.90729353 Ry
     Harris-Foulkes estimate   =    -825.90729302 Ry
     estimated scf accuracy    <       0.00003223 Ry

     total magnetization       =     1.00 Bohr mag/cell
     absolute magnetization    =     1.93 Bohr mag/cell

     iteration #394     ecut=    70.00 Ry     beta= 0.70
     Davidson diagonalization with overlap
     ethr =  7.41E-09,  avg # of iterations =  3.0

     negative rho (up, down):  6.964E-04 3.365E-03

     total cpu time spent up to now is    48671.7 secs

     total energy              =    -825.90729825 Ry
     Harris-Foulkes estimate   =    -825.90730277 Ry
     estimated scf accuracy    <       0.00003463 Ry

     total magnetization       =     1.00 Bohr mag/cell
     absolute magnetization    =     1.92 Bohr mag/cell

     iteration #395     ecut=    70.00 Ry     beta= 0.70
     Davidson diagonalization with overlap
     ethr =  7.41E-09,  avg # of iterations =  3.0

     negative rho (up, down):  6.968E-04 3.780E-03

     total cpu time spent up to now is    48785.9 secs

     total energy              =    -825.90646415 Ry
     Harris-Foulkes estimate   =    -825.90731318 Ry
     estimated scf accuracy    <       0.00004988 Ry

     total magnetization       =     1.00 Bohr mag/cell
     absolute magnetization    =     1.93 Bohr mag/cell

     iteration #396     ecut=    70.00 Ry     beta= 0.70
     Davidson diagonalization with overlap
     ethr =  7.41E-09,  avg # of iterations =  5.0

     negative rho (up, down):  6.971E-04 3.941E-03

     total cpu time spent up to now is    48952.4 secs

     total energy              =    -825.90691017 Ry
     Harris-Foulkes estimate   =    -825.90723083 Ry
     estimated scf accuracy    <       0.00004123 Ry

     total magnetization       =     1.00 Bohr mag/cell
     absolute magnetization    =     1.93 Bohr mag/cell

     iteration #397     ecut=    70.00 Ry     beta= 0.70
     Davidson diagonalization with overlap
     ethr =  7.41E-09,  avg # of iterations =  4.0

     negative rho (up, down):  6.974E-04 4.249E-03

     total cpu time spent up to now is    49107.4 secs

     total energy              =    -825.90672916 Ry
     Harris-Foulkes estimate   =    -825.90716464 Ry
     estimated scf accuracy    <       0.00024908 Ry

     total magnetization       =     1.00 Bohr mag/cell
     absolute magnetization    =     1.95 Bohr mag/cell

     iteration #398     ecut=    70.00 Ry     beta= 0.70
     Davidson diagonalization with overlap
     ethr =  7.41E-09,  avg # of iterations =  4.5

     negative rho (up, down):  6.972E-04 3.852E-03

     total cpu time spent up to now is    49265.7 secs

     total energy              =    -825.90698378 Ry
     Harris-Foulkes estimate   =    -825.90703526 Ry
     estimated scf accuracy    <       0.00095980 Ry

     total magnetization       =     1.00 Bohr mag/cell
     absolute magnetization    =     2.01 Bohr mag/cell

     iteration #399     ecut=    70.00 Ry     beta= 0.70
     Davidson diagonalization with overlap
     ethr =  7.41E-09,  avg # of iterations =  4.0

     negative rho (up, down):  6.970E-04 3.631E-03

     total cpu time spent up to now is    49414.2 secs

     total energy              =    -825.90706084 Ry
     Harris-Foulkes estimate   =    -825.90712342 Ry
     estimated scf accuracy    <       0.00040007 Ry

     total magnetization       =     1.00 Bohr mag/cell
     absolute magnetization    =     1.97 Bohr mag/cell

     iteration #400     ecut=    70.00 Ry     beta= 0.70
     Davidson diagonalization with overlap
     ethr =  7.41E-09,  avg # of iterations =  4.0

     negative rho (up, down):  6.969E-04 3.565E-03

     Magnetic moment per site:
     atom:    1    charge:    0.2087    magn:   -0.0015    constr:    0.0000
     atom:    2    charge:    0.2083    magn:   -0.0009    constr:    0.0000
     atom:    3    charge:    1.7169    magn:   -0.0064    constr:    0.0000
     atom:    4    charge:    1.7156    magn:    0.0139    constr:    0.0000
     atom:    5    charge:    1.7173    magn:   -0.0020    constr:    0.0000
     atom:    6    charge:    1.7148    magn:    0.0021    constr:    0.0000
     atom:    7    charge:    1.7167    magn:   -0.0005    constr:    0.0000
     atom:    8    charge:    1.7168    magn:    0.0058    constr:    0.0000
     atom:    9    charge:    1.7157    magn:   -0.0050    constr:    0.0000
     atom:   10    charge:    1.7191    magn:    0.0249    constr:    0.0000
     atom:   11    charge:    1.7160    magn:   -0.0089    constr:    0.0000
     atom:   12    charge:    1.7151    magn:    0.0565    constr:    0.0000
     atom:   13    charge:    1.7161    magn:   -0.0100    constr:    0.0000
     atom:   14    charge:    1.7184    magn:    0.0217    constr:    0.0000
     atom:   15    charge:    1.7130    magn:   -0.0058    constr:    0.0000
     atom:   16    charge:    1.7155    magn:    0.0379    constr:    0.0000
     atom:   17    charge:    1.7219    magn:    0.0001    constr:    0.0000
     atom:   18    charge:    1.7158    magn:    0.0430    constr:    0.0000
     atom:   19    charge:    1.7138    magn:   -0.0087    constr:    0.0000
     atom:   20    charge:    1.7161    magn:    0.0439    constr:    0.0000
     atom:   21    charge:    1.7156    magn:   -0.0094    constr:    0.0000
     atom:   22    charge:    1.7191    magn:    0.0254    constr:    0.0000
     atom:   23    charge:    1.7154    magn:   -0.0033    constr:    0.0000
     atom:   24    charge:    1.7162    magn:    0.0084    constr:    0.0000
     atom:   25    charge:    1.7128    magn:   -0.0060    constr:    0.0000
     atom:   26    charge:    1.7183    magn:    0.0121    constr:    0.0000
     atom:   27    charge:    1.8714    magn:    0.0028    constr:    0.0000
     atom:   28    charge:   10.0432    magn:    0.0548    constr:    0.0000
     atom:   29    charge:    1.8734    magn:    0.0026    constr:    0.0000
     atom:   30    charge:    1.7155    magn:    0.0433    constr:    0.0000
     atom:   31    charge:    1.7138    magn:   -0.0099    constr:    0.0000
     atom:   32    charge:    1.7170    magn:    0.0052    constr:    0.0000
     atom:   33    charge:    1.7168    magn:   -0.0014    constr:    0.0000
     atom:   34    charge:    1.7158    magn:    0.0040    constr:    0.0000
     atom:   35    charge:    1.7170    magn:   -0.0009    constr:    0.0000
     atom:   36    charge:    1.7147    magn:    0.0012    constr:    0.0000
     atom:   37    charge:    1.7202    magn:    0.0059    constr:    0.0000
     atom:   38    charge:    1.7194    magn:    0.0075    constr:    0.0000
     atom:   39    charge:    1.8706    magn:    0.0061    constr:    0.0000
     atom:   40    charge:    1.7162    magn:    0.0337    constr:    0.0000
     atom:   41    charge:    1.7213    magn:    0.0018    constr:    0.0000
     atom:   42    charge:    1.7149    magn:    0.0012    constr:    0.0000
     atom:   43    charge:    1.7172    magn:   -0.0013    constr:    0.0000
     atom:   44    charge:    1.7151    magn:    0.0086    constr:    0.0000
     atom:   45    charge:    1.7206    magn:    0.0122    constr:    0.0000
     atom:   46    charge:    1.7158    magn:    0.0029    constr:    0.0000
     atom:   47    charge:    1.7169    magn:   -0.0002    constr:    0.0000
     atom:   48    charge:    1.7161    magn:    0.0087    constr:    0.0000
     atom:   49    charge:    1.7124    magn:   -0.0044    constr:    0.0000
     atom:   50    charge:    1.7190    magn:    0.0160    constr:    0.0000
     atom:   51    charge:    1.7128    magn:   -0.0052    constr:    0.0000
     atom:   52    charge:    1.7157    magn:    0.0139    constr:    0.0000

     total cpu time spent up to now is    49556.2 secs

     total energy              =    -825.90717332 Ry
     Harris-Foulkes estimate   =    -825.90720430 Ry
     estimated scf accuracy    <       0.00021419 Ry

     total magnetization       =     1.00 Bohr mag/cell
     absolute magnetization    =     1.95 Bohr mag/cell

     End of self-consistent calculation

     convergence NOT achieved after 400 iterations: stopping

     Writing output data file manganeso-top-distance-2.2.save/

     init_run     :     76.16s CPU     77.45s WALL (       1 calls)
     electrons    :  48704.97s CPU  49477.91s WALL (       1 calls)

     Called by init_run:
     wfcinit      :     43.49s CPU     43.79s WALL (       1 calls)
     wfcinit:atom :      0.07s CPU      0.09s WALL (       2 calls)
     wfcinit:wfcr :     43.07s CPU     43.27s WALL (       2 calls)
     potinit      :     13.50s CPU     13.97s WALL (       1 calls)
     hinit0       :     10.33s CPU     10.36s WALL (       1 calls)

     Called by electrons:
     c_bands      :  33800.02s CPU  33978.32s WALL (     400 calls)
     sum_band     :   8664.83s CPU   8909.35s WALL (     400 calls)
     v_of_rho     :   2988.41s CPU   3123.44s WALL (     401 calls)
     v_h          :     32.62s CPU     33.76s WALL (     401 calls)
     v_xc         :   2955.79s CPU   3089.67s WALL (     401 calls)
     newd         :   2956.03s CPU   3166.54s WALL (     401 calls)
     mix_rho      :    211.59s CPU    214.58s WALL (     400 calls)

     Called by c_bands:
     init_us_2    :     79.37s CPU     79.57s WALL (    1602 calls)
     cegterg      :  33592.61s CPU  33769.87s WALL (     800 calls)

     Called by sum_band:
     sum_band:bec :      0.65s CPU      0.65s WALL (     800 calls)
     addusdens    :   5303.87s CPU   5528.52s WALL (     400 calls)

     Called by *egterg:
     h_psi        :  16593.91s CPU  16718.85s WALL (    3417 calls)
     s_psi        :   5612.53s CPU   5615.49s WALL (    3417 calls)
     g_psi        :     19.23s CPU     19.30s WALL (    2615 calls)
     cdiaghg      :    334.98s CPU    335.12s WALL (    3415 calls)
     cegterg:over :   4688.01s CPU   4690.09s WALL (    2615 calls)
     cegterg:upda :   3183.32s CPU   3197.69s WALL (    2615 calls)
     cegterg:last :   1846.54s CPU   1847.18s WALL (     832 calls)

     Called by h_psi:
     h_psi:pot    :  16574.71s CPU  16679.36s WALL (    3417 calls)
     h_psi:calbec :   5569.41s CPU   5572.19s WALL (    3417 calls)
     vloc_psi     :   5384.42s CPU   5484.05s WALL (    3417 calls)
     add_vuspsi   :   5620.82s CPU   5623.09s WALL (    3417 calls)

     General routines
     calbec       :   7622.00s CPU   7625.74s WALL (    4217 calls)
     fft          :   1754.26s CPU   1809.24s WALL (   30073 calls)
     ffts         :     31.60s CPU     32.66s WALL (    1602 calls)
     fftw         :   5572.12s CPU   5676.50s WALL (  656590 calls)
     interpolate  :     72.75s CPU     74.81s WALL (     802 calls)
     davcio       :      0.00s CPU      0.12s WALL (      20 calls)

     Parallel routines
     fft_scatt_xy :   1353.32s CPU   1371.66s WALL (  688265 calls)
     fft_scatt_yz :   2442.90s CPU   2558.38s WALL (  688265 calls)

     PWSCF        :     13h33m CPU     13h45m WALL


   This run was terminated on:   4:17:20  23Jan2023            

=------------------------------------------------------------------------------=
   JOB DONE.
=------------------------------------------------------------------------------=
