
     Program PWSCF v.6.4.1 starts on 22Jan2023 at 12:48:14 

     This program is part of the open-source Quantum ESPRESSO suite
     for quantum simulation of materials; please cite
         "P. Giannozzi et al., J. Phys.:Condens. Matter 21 395502 (2009);
         "P. Giannozzi et al., J. Phys.:Condens. Matter 29 465901 (2017);
          URL http://www.quantum-espresso.org", 
     in publications or presentations arising from this work. More details at
     http://www.quantum-espresso.org/quote

     Parallel version (MPI), running on     6 processors

     MPI processes distributed on     1 nodes
     R & G space division:  proc/nbgrp/npool/nimage =       6
     Reading input from distance-2.8.in

     Current dimensions of program PWSCF are:
     Max number of different atomic species (ntypx) = 10
     Max number of k-points (npk) =  40000
     Max angular momentum in pseudopotentials (lmaxx) =  3

     IMPORTANT: XC functional enforced from input :
     Exchange-correlation      = RVV10 ( 1  4 13  4 3 0)
     Any further DFT definition will be discarded
     Please, verify this is what you really want

               file H.pbe-rrkjus.UPF: wavefunction(s)  1S renormalized
               file Mn.pbe-spn-rrkjus_psl.0.3.1.UPF: wavefunction(s)  3D renormalized

     Subspace diagonalization in iterative solution of the eigenvalue problem:
     a serial algorithm will be used


     Parallelization info
     --------------------
     sticks:   dense  smooth     PW     G-vecs:    dense   smooth      PW
     Min        3051    1746    432               270999   117096   14629
     Max        3053    1747    437               271001   117099   14630
     Sum       18313   10477   2611              1626001   702581   87777



     bravais-lattice index     =            4
     lattice parameter (alat)  =      23.2937  a.u.
     unit-cell volume          =    8879.8548 (a.u.)^3
     number of atoms/cell      =           52
     number of atomic types    =            3
     number of electrons       =       213.00
     number of Kohn-Sham states=          128
     kinetic-energy cutoff     =      70.0000  Ry
     charge density cutoff     =     490.0000  Ry
     convergence threshold     =      1.0E-06
     mixing beta               =       0.7000
     number of iterations used =            8  plain     mixing
     Exchange-correlation      = RVV10 ( 1  4 13  4 3 0)

     celldm(1)=  23.293684  celldm(2)=   0.000000  celldm(3)=   0.811261
     celldm(4)=   0.000000  celldm(5)=   0.000000  celldm(6)=   0.000000

     crystal axes: (cart. coord. in units of alat)
               a(1) = (   1.000000   0.000000   0.000000 )  
               a(2) = (  -0.500000   0.866025   0.000000 )  
               a(3) = (   0.000000   0.000000   0.811261 )  

     reciprocal axes: (cart. coord. in units 2 pi/alat)
               b(1) = (  1.000000  0.577350 -0.000000 )  
               b(2) = (  0.000000  1.154701  0.000000 )  
               b(3) = (  0.000000 -0.000000  1.232649 )  


     PseudoPot. # 1 for H  read from file:
     /home/cristian/Escritorio/Proyecto_Grafeno/pseudopotenciales/H.pbe-rrkjus.UPF
     MD5 check sum: 7cc9d459525c9a0585f487a71c3c9563
     Pseudo is Ultrasoft, Zval =  1.0
     Generated by new atomic code, or converted to UPF format
     Using radial grid of 1061 points,  2 beta functions with: 
                l(1) =   0
                l(2) =   0
     Q(r) pseudized with 0 coefficients 


     PseudoPot. # 2 for C  read from file:
     /home/cristian/Escritorio/Proyecto_Grafeno/pseudopotenciales/C.pbe-n-rrkjus_psl.1.0.0.UPF
     MD5 check sum: 1fdd950c42eb37d8afe3dd2f8d12311e
     Pseudo is Ultrasoft + core correction, Zval =  4.0
     Generated using "atomic" code by A. Dal Corso v.6.3MaX
     Using radial grid of 1073 points,  4 beta functions with: 
                l(1) =   0
                l(2) =   0
                l(3) =   1
                l(4) =   1
     Q(r) pseudized with 0 coefficients 


     PseudoPot. # 3 for Mn read from file:
     /home/cristian/Escritorio/Proyecto_Grafeno/pseudopotenciales/Mn.pbe-spn-rrkjus_psl.0.3.1.UPF
     MD5 check sum: e1cac159bdd2ba70c18e85765a5d4279
     Pseudo is Ultrasoft + core correction, Zval = 15.0
     Generated using "atomic" code by A. Dal Corso v.6.2.2
     Using radial grid of 1187 points,  6 beta functions with: 
                l(1) =   0
                l(2) =   0
                l(3) =   1
                l(4) =   1
                l(5) =   2
                l(6) =   2
     Q(r) pseudized with 0 coefficients 


     vdW kernel table read from file rVV10_kernel_table
     MD5 check sum: b8e2538accc0c0b3206b45ba4daaba6c

     atomic species   valence    mass     pseudopotential
        H              1.00     1.00794     H ( 1.00)
        C              4.00    12.01070     C ( 1.00)
        Mn            15.00    54.93804     Mn( 1.00)

     Starting magnetic structure 
     atomic species   magnetization
        H            0.500
        C            0.300
        Mn           0.800

     No symmetry found


                                    s                        frac. trans.

      isym =  1     identity                                     

 cryst.   s( 1) = (     1          0          0      )
                  (     0          1          0      )
                  (     0          0          1      )

 cart.    s( 1) = (  1.0000000  0.0000000  0.0000000 )
                  (  0.0000000  1.0000000  0.0000000 )
                  (  0.0000000  0.0000000  1.0000000 )


     point group C_1 (1)    
     there are  1 classes
     the character table:

       E    
A      1.00

     the symmetry operations in each class and the name of the first element:

     E        1
          identity                                               

   Cartesian axes

     site n.     atom                  positions (alat units)
         1           H   tau(   1) = (   0.1694937   0.4618802   0.2271531  )
         2           H   tau(   2) = (   0.2305063   0.4618802   0.2271531  )
         3           C   tau(   3) = (   0.0000000   0.0000000   0.0000000  )
         4           C   tau(   4) = (   0.0000000   0.1154701   0.0000000  )
         5           C   tau(   5) = (  -0.1000000   0.1732051   0.0000000  )
         6           C   tau(   6) = (  -0.1000000   0.2886751   0.0000000  )
         7           C   tau(   7) = (  -0.2000000   0.3464102   0.0000000  )
         8           C   tau(   8) = (  -0.2000000   0.4618802   0.0000000  )
         9           C   tau(   9) = (  -0.3000000   0.5196152   0.0000000  )
        10           C   tau(  10) = (  -0.3000000   0.6350853   0.0000000  )
        11           C   tau(  11) = (  -0.4000000   0.6928203   0.0000000  )
        12           C   tau(  12) = (  -0.4000000   0.8082904   0.0000000  )
        13           C   tau(  13) = (   0.2000000   0.0000000   0.0000000  )
        14           C   tau(  14) = (   0.2000000   0.1154701   0.0000000  )
        15           C   tau(  15) = (   0.1000000   0.1732051   0.0000000  )
        16           C   tau(  16) = (   0.1000000   0.2886751   0.0000000  )
        17           C   tau(  17) = (   0.0000000   0.3464102   0.0000000  )
        18           C   tau(  18) = (   0.0000000   0.4618802   0.0000000  )
        19           C   tau(  19) = (  -0.1000000   0.5196152   0.0000000  )
        20           C   tau(  20) = (  -0.1000000   0.6350853   0.0000000  )
        21           C   tau(  21) = (  -0.2000000   0.6928203   0.0000000  )
        22           C   tau(  22) = (  -0.2000000   0.8082904   0.0000000  )
        23           C   tau(  23) = (   0.4000000   0.0000000   0.0000000  )
        24           C   tau(  24) = (   0.4000000   0.1154701   0.0000000  )
        25           C   tau(  25) = (   0.3000000   0.1732051   0.0000000  )
        26           C   tau(  26) = (   0.3000000   0.2886751   0.0000000  )
        27           C   tau(  27) = (   0.2000000   0.3464102   0.0000000  )
        28           Mn  tau(  28) = (   0.2000000   0.4618802   0.0000000  )
        29           C   tau(  29) = (   0.1000000   0.5196152   0.0000000  )
        30           C   tau(  30) = (   0.1000000   0.6350853   0.0000000  )
        31           C   tau(  31) = (   0.0000000   0.6928203   0.0000000  )
        32           C   tau(  32) = (   0.0000000   0.8082904   0.0000000  )
        33           C   tau(  33) = (   0.6000000   0.0000000   0.0000000  )
        34           C   tau(  34) = (   0.6000000   0.1154701   0.0000000  )
        35           C   tau(  35) = (   0.5000000   0.1732051   0.0000000  )
        36           C   tau(  36) = (   0.5000000   0.2886751   0.0000000  )
        37           C   tau(  37) = (   0.4000000   0.3464102   0.0000000  )
        38           C   tau(  38) = (   0.4000000   0.4618802   0.0000000  )
        39           C   tau(  39) = (   0.3000000   0.5196152   0.0000000  )
        40           C   tau(  40) = (   0.3000000   0.6350853   0.0000000  )
        41           C   tau(  41) = (   0.2000000   0.6928203   0.0000000  )
        42           C   tau(  42) = (   0.2000000   0.8082904   0.0000000  )
        43           C   tau(  43) = (   0.8000000   0.0000000   0.0000000  )
        44           C   tau(  44) = (   0.8000000   0.1154701   0.0000000  )
        45           C   tau(  45) = (   0.7000000   0.1732051   0.0000000  )
        46           C   tau(  46) = (   0.7000000   0.2886751   0.0000000  )
        47           C   tau(  47) = (   0.6000000   0.3464102   0.0000000  )
        48           C   tau(  48) = (   0.6000000   0.4618802   0.0000000  )
        49           C   tau(  49) = (   0.5000000   0.5196152   0.0000000  )
        50           C   tau(  50) = (   0.5000000   0.6350853   0.0000000  )
        51           C   tau(  51) = (   0.4000000   0.6928203   0.0000000  )
        52           C   tau(  52) = (   0.4000000   0.8082904   0.0000000  )

   Crystallographic axes

     site n.     atom                  positions (cryst. coord.)
         1           H   tau(   1) = (  0.4361603  0.5333333  0.2800000  )
         2           H   tau(   2) = (  0.4971730  0.5333333  0.2800000  )
         3           C   tau(   3) = (  0.0000000  0.0000000  0.0000000  )
         4           C   tau(   4) = (  0.0666667  0.1333333  0.0000000  )
         5           C   tau(   5) = (  0.0000000  0.2000000  0.0000000  )
         6           C   tau(   6) = (  0.0666667  0.3333333  0.0000000  )
         7           C   tau(   7) = (  0.0000000  0.4000000  0.0000000  )
         8           C   tau(   8) = (  0.0666667  0.5333333  0.0000000  )
         9           C   tau(   9) = (  0.0000000  0.6000000  0.0000000  )
        10           C   tau(  10) = (  0.0666667  0.7333333  0.0000000  )
        11           C   tau(  11) = (  0.0000000  0.8000000  0.0000000  )
        12           C   tau(  12) = (  0.0666667  0.9333333  0.0000000  )
        13           C   tau(  13) = (  0.2000000  0.0000000  0.0000000  )
        14           C   tau(  14) = (  0.2666667  0.1333333  0.0000000  )
        15           C   tau(  15) = (  0.2000000  0.2000000  0.0000000  )
        16           C   tau(  16) = (  0.2666667  0.3333333  0.0000000  )
        17           C   tau(  17) = (  0.2000000  0.4000000  0.0000000  )
        18           C   tau(  18) = (  0.2666667  0.5333333  0.0000000  )
        19           C   tau(  19) = (  0.2000000  0.6000000  0.0000000  )
        20           C   tau(  20) = (  0.2666667  0.7333333  0.0000000  )
        21           C   tau(  21) = (  0.2000000  0.8000000  0.0000000  )
        22           C   tau(  22) = (  0.2666667  0.9333333  0.0000000  )
        23           C   tau(  23) = (  0.4000000  0.0000000  0.0000000  )
        24           C   tau(  24) = (  0.4666667  0.1333333  0.0000000  )
        25           C   tau(  25) = (  0.4000000  0.2000000  0.0000000  )
        26           C   tau(  26) = (  0.4666667  0.3333333  0.0000000  )
        27           C   tau(  27) = (  0.4000000  0.4000000  0.0000000  )
        28           Mn  tau(  28) = (  0.4666667  0.5333333  0.0000000  )
        29           C   tau(  29) = (  0.4000000  0.6000000  0.0000000  )
        30           C   tau(  30) = (  0.4666667  0.7333333  0.0000000  )
        31           C   tau(  31) = (  0.4000000  0.8000000  0.0000000  )
        32           C   tau(  32) = (  0.4666667  0.9333333  0.0000000  )
        33           C   tau(  33) = (  0.6000000  0.0000000  0.0000000  )
        34           C   tau(  34) = (  0.6666667  0.1333333  0.0000000  )
        35           C   tau(  35) = (  0.6000000  0.2000000  0.0000000  )
        36           C   tau(  36) = (  0.6666667  0.3333333  0.0000000  )
        37           C   tau(  37) = (  0.6000000  0.4000000  0.0000000  )
        38           C   tau(  38) = (  0.6666667  0.5333333  0.0000000  )
        39           C   tau(  39) = (  0.6000000  0.6000000  0.0000000  )
        40           C   tau(  40) = (  0.6666667  0.7333333  0.0000000  )
        41           C   tau(  41) = (  0.6000000  0.8000000  0.0000000  )
        42           C   tau(  42) = (  0.6666667  0.9333333  0.0000000  )
        43           C   tau(  43) = (  0.8000000  0.0000000  0.0000000  )
        44           C   tau(  44) = (  0.8666667  0.1333333  0.0000000  )
        45           C   tau(  45) = (  0.8000000  0.2000000  0.0000000  )
        46           C   tau(  46) = (  0.8666667  0.3333333  0.0000000  )
        47           C   tau(  47) = (  0.8000000  0.4000000  0.0000000  )
        48           C   tau(  48) = (  0.8666667  0.5333333  0.0000000  )
        49           C   tau(  49) = (  0.8000000  0.6000000  0.0000000  )
        50           C   tau(  50) = (  0.8666667  0.7333333  0.0000000  )
        51           C   tau(  51) = (  0.8000000  0.8000000  0.0000000  )
        52           C   tau(  52) = (  0.8666667  0.9333333  0.0000000  )

     number of k points=     1  Marzari-Vanderbilt smearing, width (Ry)=  0.0010
                       cart. coord. in units 2pi/alat
        k(    1) = (   0.0000000   0.0000000   0.0000000), wk =   1.0000000

                       cryst. coord.
        k(    1) = (   0.0000000   0.0000000   0.0000000), wk =   1.0000000

     Dense  grid:  1626001 G-vectors     FFT dimensions: ( 180, 180, 135)

     Smooth grid:   702581 G-vectors     FFT dimensions: ( 125, 125, 108)

     Dynamical RAM for                 wfc:      28.59 MB

     Dynamical RAM for     wfc (w. buffer):      85.76 MB

     Dynamical RAM for           str. fact:      12.41 MB

     Dynamical RAM for           local pot:       0.00 MB

     Dynamical RAM for          nlocal pot:      92.46 MB

     Dynamical RAM for                qrad:      19.73 MB

     Dynamical RAM for          rho,v,vnew:      58.92 MB

     Dynamical RAM for               rhoin:      19.64 MB

     Dynamical RAM for            rho*nmix:     132.32 MB

     Dynamical RAM for           G-vectors:      16.40 MB

     Dynamical RAM for          h,s,v(r/c):      12.00 MB

     Dynamical RAM for          <psi|beta>:       0.81 MB

     Dynamical RAM for                 psi:     114.35 MB

     Dynamical RAM for                hpsi:     114.35 MB

     Dynamical RAM for                spsi:     114.35 MB

     Dynamical RAM for      wfcinit/wfcrot:      93.90 MB

     Dynamical RAM for           addusdens:     975.89 MB

     Estimated static dynamical RAM per process >     488.30 MB

     Estimated max dynamical RAM per process >       1.43 GB

     Estimated total dynamical RAM >       8.58 GB
     Generating pointlists ...
     new r_m :   0.0252 (alat units)  0.5862 (a.u.) for type    1
     new r_m :   0.0476 (alat units)  1.1095 (a.u.) for type    2
     new r_m :   0.0476 (alat units)  1.1095 (a.u.) for type    3

     Check: negative core charge=   -0.000002

     Initial potential from superposition of free atoms

     starting charge  212.80506, renormalised to  213.00000

     negative rho (up, down):  7.094E-05 1.040E-02


---------------------------------------------------------------------------------
Carrying out rVV10 run using the following parameters:
Nqs =      20    Nr_points =    1024   r_max =   100.000
b_value =  6.30000    beta =  0.00901
     q_mesh =  0.00010000  0.00030000  0.00058939  0.00100810
               0.00161396  0.00249058  0.00375900  0.00559430
               0.00824984  0.01209221  0.01765183  0.02569619
               0.03733578  0.05417739  0.07854596  0.11380545
               0.16482331  0.23864234  0.34545298  0.50000000

Gradients computed in Reciprocal space

---------------------------------------------------------------------------------


     Starting wfcs are  208 randomized atomic wfcs

     total cpu time spent up to now is       79.5 secs

     Self-consistent Calculation

     iteration #  1     ecut=    70.00 Ry     beta= 0.70
     Davidson diagonalization with overlap
     ethr =  1.00E-02,  avg # of iterations =  2.5

     negative rho (up, down):  1.393E-04 9.895E-03

     total cpu time spent up to now is      210.8 secs

     total energy              =    -821.92229633 Ry
     Harris-Foulkes estimate   =    -824.95804922 Ry
     estimated scf accuracy    <      11.26976683 Ry

     total magnetization       =     7.00 Bohr mag/cell
     absolute magnetization    =     7.34 Bohr mag/cell

     iteration #  2     ecut=    70.00 Ry     beta= 0.70
     Davidson diagonalization with overlap
     ethr =  5.29E-03,  avg # of iterations =  7.0

     negative rho (up, down):  1.731E-04 1.056E-02

     total cpu time spent up to now is      335.2 secs

     total energy              =    -812.38494404 Ry
     Harris-Foulkes estimate   =    -834.34602551 Ry
     estimated scf accuracy    <      92.89884672 Ry

     total magnetization       =     3.00 Bohr mag/cell
     absolute magnetization    =     3.22 Bohr mag/cell

     iteration #  3     ecut=    70.00 Ry     beta= 0.70
     Davidson diagonalization with overlap
     ethr =  5.29E-03,  avg # of iterations =  4.5

     negative rho (up, down):  2.070E-04 9.813E-03

     total cpu time spent up to now is      520.7 secs

     total energy              =    -823.89727422 Ry
     Harris-Foulkes estimate   =    -827.08365104 Ry
     estimated scf accuracy    <      18.32697331 Ry

     total magnetization       =     7.00 Bohr mag/cell
     absolute magnetization    =     7.05 Bohr mag/cell

     iteration #  4     ecut=    70.00 Ry     beta= 0.70
     Davidson diagonalization with overlap
     ethr =  5.29E-03,  avg # of iterations =  3.5

     negative rho (up, down):  2.404E-04 1.172E-02

     total cpu time spent up to now is      619.3 secs

     total energy              =    -825.35241039 Ry
     Harris-Foulkes estimate   =    -826.35043733 Ry
     estimated scf accuracy    <       2.96336948 Ry

     total magnetization       =     3.00 Bohr mag/cell
     absolute magnetization    =     3.39 Bohr mag/cell

     iteration #  5     ecut=    70.00 Ry     beta= 0.70
     Davidson diagonalization with overlap
     ethr =  1.39E-03,  avg # of iterations =  4.0

     negative rho (up, down):  3.297E-04 1.861E-02

     total cpu time spent up to now is      730.1 secs

     total energy              =    -825.78083856 Ry
     Harris-Foulkes estimate   =    -825.99619381 Ry
     estimated scf accuracy    <       0.63758904 Ry

     total magnetization       =     3.00 Bohr mag/cell
     absolute magnetization    =     3.32 Bohr mag/cell

     iteration #  6     ecut=    70.00 Ry     beta= 0.70
     Davidson diagonalization with overlap
     ethr =  2.99E-04,  avg # of iterations =  6.5

     negative rho (up, down):  5.796E-04 7.381E-03

     total cpu time spent up to now is      841.6 secs

     total energy              =    -825.91160064 Ry
     Harris-Foulkes estimate   =    -825.95250287 Ry
     estimated scf accuracy    <       0.13825787 Ry

     total magnetization       =     3.00 Bohr mag/cell
     absolute magnetization    =     3.46 Bohr mag/cell

     iteration #  7     ecut=    70.00 Ry     beta= 0.70
     Davidson diagonalization with overlap
     ethr =  6.49E-05,  avg # of iterations =  3.0

     negative rho (up, down):  6.414E-04 5.794E-03

     total cpu time spent up to now is      947.2 secs

     total energy              =    -825.93276572 Ry
     Harris-Foulkes estimate   =    -825.93833860 Ry
     estimated scf accuracy    <       0.01336846 Ry

     total magnetization       =     3.00 Bohr mag/cell
     absolute magnetization    =     3.63 Bohr mag/cell

     iteration #  8     ecut=    70.00 Ry     beta= 0.70
     Davidson diagonalization with overlap
     ethr =  6.28E-06,  avg # of iterations =  9.0

     negative rho (up, down):  6.533E-04 5.796E-03

     total cpu time spent up to now is     1075.0 secs

     total energy              =    -825.93630845 Ry
     Harris-Foulkes estimate   =    -825.93854967 Ry
     estimated scf accuracy    <       0.00711374 Ry

     total magnetization       =     3.00 Bohr mag/cell
     absolute magnetization    =     3.78 Bohr mag/cell

     iteration #  9     ecut=    70.00 Ry     beta= 0.70
     Davidson diagonalization with overlap
     ethr =  3.34E-06,  avg # of iterations =  5.5

     negative rho (up, down):  6.578E-04 5.757E-03

     total cpu time spent up to now is     1185.5 secs

     total energy              =    -825.93802844 Ry
     Harris-Foulkes estimate   =    -825.93822253 Ry
     estimated scf accuracy    <       0.00119210 Ry

     total magnetization       =     3.00 Bohr mag/cell
     absolute magnetization    =     3.88 Bohr mag/cell

     iteration # 10     ecut=    70.00 Ry     beta= 0.70
     Davidson diagonalization with overlap
     ethr =  5.60E-07,  avg # of iterations =  2.0

     negative rho (up, down):  6.614E-04 5.797E-03

     total cpu time spent up to now is     1293.2 secs

     total energy              =    -825.93845091 Ry
     Harris-Foulkes estimate   =    -825.93831995 Ry
     estimated scf accuracy    <       0.00009377 Ry

     total magnetization       =     3.00 Bohr mag/cell
     absolute magnetization    =     3.98 Bohr mag/cell

     iteration # 11     ecut=    70.00 Ry     beta= 0.70
     Davidson diagonalization with overlap
     ethr =  4.40E-08,  avg # of iterations =  3.0

     negative rho (up, down):  6.596E-04 5.814E-03

     total cpu time spent up to now is     1422.3 secs

     total energy              =    -825.93857308 Ry
     Harris-Foulkes estimate   =    -825.93851780 Ry
     estimated scf accuracy    <       0.00003984 Ry

     total magnetization       =     3.00 Bohr mag/cell
     absolute magnetization    =     4.09 Bohr mag/cell

     iteration # 12     ecut=    70.00 Ry     beta= 0.70
     Davidson diagonalization with overlap
     ethr =  1.87E-08,  avg # of iterations =  3.0

     negative rho (up, down):  6.573E-04 5.891E-03

     total cpu time spent up to now is     1550.5 secs

     total energy              =    -825.93862510 Ry
     Harris-Foulkes estimate   =    -825.93860726 Ry
     estimated scf accuracy    <       0.00001226 Ry

     total magnetization       =     3.00 Bohr mag/cell
     absolute magnetization    =     4.17 Bohr mag/cell

     iteration # 13     ecut=    70.00 Ry     beta= 0.70
     Davidson diagonalization with overlap
     ethr =  5.76E-09,  avg # of iterations =  3.0

     negative rho (up, down):  6.589E-04 5.906E-03

     total cpu time spent up to now is     1681.4 secs

     total energy              =    -825.93864271 Ry
     Harris-Foulkes estimate   =    -825.93864238 Ry
     estimated scf accuracy    <       0.00001938 Ry

     total magnetization       =     3.00 Bohr mag/cell
     absolute magnetization    =     4.23 Bohr mag/cell

     iteration # 14     ecut=    70.00 Ry     beta= 0.70
     Davidson diagonalization with overlap
     ethr =  5.76E-09,  avg # of iterations =  3.0

     negative rho (up, down):  6.600E-04 5.940E-03

     total cpu time spent up to now is     1805.8 secs

     total energy              =    -825.93865148 Ry
     Harris-Foulkes estimate   =    -825.93865033 Ry
     estimated scf accuracy    <       0.00000263 Ry

     total magnetization       =     3.00 Bohr mag/cell
     absolute magnetization    =     4.27 Bohr mag/cell

     iteration # 15     ecut=    70.00 Ry     beta= 0.70
     Davidson diagonalization with overlap
     ethr =  1.23E-09,  avg # of iterations =  3.0

     negative rho (up, down):  6.601E-04 5.958E-03

     total cpu time spent up to now is     1933.5 secs

     total energy              =    -825.93865380 Ry
     Harris-Foulkes estimate   =    -825.93865338 Ry
     estimated scf accuracy    <       0.00000114 Ry

     total magnetization       =     3.00 Bohr mag/cell
     absolute magnetization    =     4.29 Bohr mag/cell

     iteration # 16     ecut=    70.00 Ry     beta= 0.70
     Davidson diagonalization with overlap
     ethr =  5.34E-10,  avg # of iterations =  3.5

     negative rho (up, down):  6.607E-04 5.976E-03

     Magnetic moment per site:
     atom:    1    charge:    0.2110    magn:    0.0028    constr:    0.0000
     atom:    2    charge:    0.2110    magn:    0.0028    constr:    0.0000
     atom:    3    charge:    1.7170    magn:   -0.0127    constr:    0.0000
     atom:    4    charge:    1.7156    magn:    0.0179    constr:    0.0000
     atom:    5    charge:    1.7177    magn:   -0.0096    constr:    0.0000
     atom:    6    charge:    1.7142    magn:    0.0061    constr:    0.0000
     atom:    7    charge:    1.7177    magn:   -0.0096    constr:    0.0000
     atom:    8    charge:    1.7156    magn:    0.0179    constr:    0.0000
     atom:    9    charge:    1.7171    magn:   -0.0127    constr:    0.0000
     atom:   10    charge:    1.7155    magn:    0.0574    constr:    0.0000
     atom:   11    charge:    1.7175    magn:   -0.0179    constr:    0.0000
     atom:   12    charge:    1.7155    magn:    0.0575    constr:    0.0000
     atom:   13    charge:    1.7175    magn:   -0.0180    constr:    0.0000
     atom:   14    charge:    1.7159    magn:    0.0460    constr:    0.0000
     atom:   15    charge:    1.7144    magn:   -0.0148    constr:    0.0000
     atom:   16    charge:    1.7124    magn:    0.0614    constr:    0.0000
     atom:   17    charge:    1.7237    magn:   -0.0137    constr:    0.0000
     atom:   18    charge:    1.7125    magn:    0.0613    constr:    0.0000
     atom:   19    charge:    1.7145    magn:   -0.0148    constr:    0.0000
     atom:   20    charge:    1.7160    magn:    0.0459    constr:    0.0000
     atom:   21    charge:    1.7175    magn:   -0.0179    constr:    0.0000
     atom:   22    charge:    1.7155    magn:    0.0575    constr:    0.0000
     atom:   23    charge:    1.7170    magn:   -0.0127    constr:    0.0000
     atom:   24    charge:    1.7156    magn:    0.0179    constr:    0.0000
     atom:   25    charge:    1.7144    magn:   -0.0148    constr:    0.0000
     atom:   26    charge:    1.7124    magn:    0.0614    constr:    0.0000
     atom:   27    charge:    1.8746    magn:   -0.0294    constr:    0.0000
     atom:   28    charge:   10.0209    magn:    0.7989    constr:    0.0000
     atom:   29    charge:    1.8747    magn:   -0.0293    constr:    0.0000
     atom:   30    charge:    1.7124    magn:    0.0614    constr:    0.0000
     atom:   31    charge:    1.7144    magn:   -0.0148    constr:    0.0000
     atom:   32    charge:    1.7156    magn:    0.0179    constr:    0.0000
     atom:   33    charge:    1.7177    magn:   -0.0096    constr:    0.0000
     atom:   34    charge:    1.7141    magn:    0.0125    constr:    0.0000
     atom:   35    charge:    1.7177    magn:   -0.0096    constr:    0.0000
     atom:   36    charge:    1.7142    magn:    0.0061    constr:    0.0000
     atom:   37    charge:    1.7237    magn:   -0.0137    constr:    0.0000
     atom:   38    charge:    1.7125    magn:    0.0613    constr:    0.0000
     atom:   39    charge:    1.8747    magn:   -0.0293    constr:    0.0000
     atom:   40    charge:    1.7124    magn:    0.0614    constr:    0.0000
     atom:   41    charge:    1.7237    magn:   -0.0137    constr:    0.0000
     atom:   42    charge:    1.7142    magn:    0.0061    constr:    0.0000
     atom:   43    charge:    1.7177    magn:   -0.0096    constr:    0.0000
     atom:   44    charge:    1.7141    magn:    0.0125    constr:    0.0000
     atom:   45    charge:    1.7234    magn:   -0.0065    constr:    0.0000
     atom:   46    charge:    1.7142    magn:    0.0125    constr:    0.0000
     atom:   47    charge:    1.7177    magn:   -0.0096    constr:    0.0000
     atom:   48    charge:    1.7156    magn:    0.0179    constr:    0.0000
     atom:   49    charge:    1.7144    magn:   -0.0148    constr:    0.0000
     atom:   50    charge:    1.7160    magn:    0.0459    constr:    0.0000
     atom:   51    charge:    1.7144    magn:   -0.0148    constr:    0.0000
     atom:   52    charge:    1.7156    magn:    0.0179    constr:    0.0000

     total cpu time spent up to now is     2062.7 secs

     End of self-consistent calculation

 ------ SPIN UP ------------


          k = 0.0000 0.0000 0.0000 ( 87777 PWs)   bands (ev):

   -80.6708 -50.1768 -50.1755 -49.0897 -19.7588 -18.9234 -18.9226 -18.8313
   -18.8118 -18.8111 -18.4648 -17.0604 -17.0600 -17.0556 -16.9748 -16.9738
   -16.6633 -16.2151 -16.2146 -16.1072 -16.0449 -16.0439 -15.3429 -14.1023
   -14.1022 -14.0381 -13.9735 -13.9731 -13.3051 -13.0468 -13.0466 -13.0196
   -12.7158 -12.7151 -12.2995 -11.8228 -11.8228 -11.6401 -11.3642 -11.3637
   -10.4507  -9.6530  -9.6523  -9.4164  -9.3007  -9.3006  -9.2066  -9.1795
    -9.1795  -9.1650  -8.6750  -8.6747  -8.1460  -8.1456  -8.0420  -7.9391
    -7.8124  -7.4082  -7.4078  -7.1830  -7.1804  -7.1747  -7.0635  -6.8976
    -6.8973  -6.8101  -6.8097  -6.7970  -6.6930  -6.5443  -6.5438  -6.5128
    -6.5037  -6.5032  -6.4574  -6.3870  -5.6230  -5.6185  -5.5023  -5.5021
    -5.2991  -5.2987  -5.0003  -4.9631  -4.8642  -4.7341  -4.7145  -4.7138
    -4.3771  -4.2119  -4.2117  -4.1897  -4.1897  -3.8735  -3.8731  -3.7750
    -3.6493  -3.6492  -3.1072  -2.7363  -2.7347  -1.8836  -1.7863  -1.7859
    -1.2793  -1.0946  -1.0946  -0.8052   0.9188   0.9799   0.9810   1.5841
     1.5856   1.6094   2.5001   2.7705   2.7736   2.8720   2.9450   3.0369
     3.4436   3.4888   3.5168   3.5367   3.6478   3.7330   3.7344   3.7457

     occupation numbers 
     1.0000   1.0000   1.0000   1.0000   1.0000   1.0000   1.0000   1.0000
     1.0000   1.0000   1.0000   1.0000   1.0000   1.0000   1.0000   1.0000
     1.0000   1.0000   1.0000   1.0000   1.0000   1.0000   1.0000   1.0000
     1.0000   1.0000   1.0000   1.0000   1.0000   1.0000   1.0000   1.0000
     1.0000   1.0000   1.0000   1.0000   1.0000   1.0000   1.0000   1.0000
     1.0000   1.0000   1.0000   1.0000   1.0000   1.0000   1.0000   1.0000
     1.0000   1.0000   1.0000   1.0000   1.0000   1.0000   1.0000   1.0000
     1.0000   1.0000   1.0000   1.0000   1.0000   1.0000   1.0000   1.0000
     1.0000   1.0000   1.0000   1.0000   1.0000   1.0000   1.0000   1.0000
     1.0000   1.0000   1.0000   1.0000   1.0000   1.0000   1.0000   1.0000
     1.0000   1.0000   1.0000   1.0000   1.0000   1.0000   1.0000   1.0000
     1.0000   1.0000   1.0000   1.0000   1.0000   1.0000   1.0000   1.0000
     1.0000   1.0000   1.0000   1.0000   1.0000   1.0000   1.0000   1.0000
     1.0000   1.0000   1.0000   1.0000   0.0000   0.0000   0.0000   0.0000
     0.0000   0.0000   0.0000   0.0000   0.0000   0.0000   0.0000   0.0000
     0.0000   0.0000   0.0000   0.0000   0.0000   0.0000   0.0000   0.0000

 ------ SPIN DOWN ----------


          k = 0.0000 0.0000 0.0000 ( 87777 PWs)   bands (ev):

   -79.3103 -49.0893 -49.0882 -47.2998 -19.7171 -18.8752 -18.8747 -18.7939
   -18.7852 -18.7842 -18.3994 -17.0264 -17.0230 -17.0226 -16.9188 -16.9178
   -16.6336 -16.1650 -16.1644 -16.0760 -16.0012 -16.0001 -15.3116 -14.0287
   -14.0286 -13.9697 -13.9634 -13.9631 -13.3111 -13.0205 -13.0202 -12.9869
   -12.6967 -12.6960 -12.2622 -11.7805 -11.7804 -11.6150 -11.3399 -11.3394
   -10.4125  -9.5845  -9.5838  -9.3857  -9.2657  -9.2656  -9.1905  -9.1549
    -9.1549  -9.1474  -8.6590  -8.6587  -8.0958  -8.0955  -8.0107  -7.8405
    -7.7944  -7.3919  -7.3915  -7.1275  -6.9856  -6.9806  -6.9626  -6.8352
    -6.8348  -6.7533  -6.7529  -6.7169  -6.6769  -6.5251  -6.5245  -6.5013
    -6.4906  -6.4901  -6.4399  -6.2466  -5.4649  -5.4646  -5.3351  -5.3298
    -5.2209  -5.2204  -4.9496  -4.8527  -4.6596  -4.6452  -4.6231  -4.6222
    -4.3022  -4.0814  -4.0812  -3.9776  -3.9775  -3.7377  -3.7372  -3.6878
    -3.6302  -3.6300  -3.0358  -2.4761  -2.4745  -1.7616  -1.7613  -1.7139
    -0.7841  -0.4922  -0.4922   0.1358   1.0216   1.0228   1.0757   1.7651
     1.7661   1.7675   2.5288   2.9076   2.9109   2.9414   3.1588   3.3134
     3.6018   3.6700   3.6725   3.6891   3.7130   3.7454   3.7483   3.7628

     occupation numbers 
     1.0000   1.0000   1.0000   1.0000   1.0000   1.0000   1.0000   1.0000
     1.0000   1.0000   1.0000   1.0000   1.0000   1.0000   1.0000   1.0000
     1.0000   1.0000   1.0000   1.0000   1.0000   1.0000   1.0000   1.0000
     1.0000   1.0000   1.0000   1.0000   1.0000   1.0000   1.0000   1.0000
     1.0000   1.0000   1.0000   1.0000   1.0000   1.0000   1.0000   1.0000
     1.0000   1.0000   1.0000   1.0000   1.0000   1.0000   1.0000   1.0000
     1.0000   1.0000   1.0000   1.0000   1.0000   1.0000   1.0000   1.0000
     1.0000   1.0000   1.0000   1.0000   1.0000   1.0000   1.0000   1.0000
     1.0000   1.0000   1.0000   1.0000   1.0000   1.0000   1.0000   1.0000
     1.0000   1.0000   1.0000   1.0000   1.0000   1.0000   1.0000   1.0000
     1.0000   1.0000   1.0000   1.0000   1.0000   1.0000   1.0000   1.0000
     1.0000   1.0000   1.0000   1.0000   1.0000   1.0000   1.0000   1.0000
     1.0000   1.0000   1.0000   1.0000   1.0000   1.0000   1.0000   1.0000
     1.0000   0.0000   0.0000   0.0000   0.0000   0.0000   0.0000   0.0000
     0.0000   0.0000   0.0000   0.0000   0.0000   0.0000   0.0000   0.0000
     0.0000   0.0000   0.0000   0.0000   0.0000   0.0000   0.0000   0.0000

     the Fermi energy is    -0.6655 ev

!    total energy              =    -825.93865448 Ry
     Harris-Foulkes estimate   =    -825.93865457 Ry
     estimated scf accuracy    <       0.00000045 Ry

     The total energy is the sum of the following terms:

     one-electron contribution =   -2727.71511505 Ry
     hartree contribution      =    1408.84941939 Ry
     xc contribution           =    -259.67093354 Ry
     ewald contribution        =     752.59797472 Ry
     smearing contrib. (-TS)   =       0.00000000 Ry

     total magnetization       =     3.00 Bohr mag/cell
     absolute magnetization    =     4.30 Bohr mag/cell

     convergence has been achieved in  16 iterations

     Writing output data file manganeso-top-distance-2.8.save/

     init_run     :     76.97s CPU     78.31s WALL (       1 calls)
     electrons    :   1953.02s CPU   1983.41s WALL (       1 calls)

     Called by init_run:
     wfcinit      :     43.85s CPU     44.18s WALL (       1 calls)
     wfcinit:atom :      0.06s CPU      0.10s WALL (       2 calls)
     wfcinit:wfcr :     43.45s CPU     43.67s WALL (       2 calls)
     potinit      :     13.69s CPU     14.14s WALL (       1 calls)
     hinit0       :     10.49s CPU     10.53s WALL (       1 calls)

     Called by electrons:
     c_bands      :   1372.00s CPU   1378.89s WALL (      16 calls)
     sum_band     :    337.68s CPU    347.24s WALL (      16 calls)
     v_of_rho     :    124.65s CPU    130.40s WALL (      17 calls)
     v_h          :      1.34s CPU      1.39s WALL (      17 calls)
     v_xc         :    123.31s CPU    129.01s WALL (      17 calls)
     newd         :    122.80s CPU    131.57s WALL (      17 calls)
     mix_rho      :      6.94s CPU      7.10s WALL (      16 calls)

     Called by c_bands:
     init_us_2    :      3.10s CPU      3.15s WALL (      66 calls)
     cegterg      :   1364.46s CPU   1371.29s WALL (      32 calls)

     Called by sum_band:
     sum_band:bec :      0.03s CPU      0.03s WALL (      32 calls)
     addusdens    :    205.42s CPU    214.31s WALL (      16 calls)

     Called by *egterg:
     h_psi        :    689.33s CPU    694.11s WALL (     166 calls)
     s_psi        :    233.95s CPU    234.06s WALL (     166 calls)
     g_psi        :      0.80s CPU      0.81s WALL (     132 calls)
     cdiaghg      :     15.64s CPU     15.65s WALL (     164 calls)
     cegterg:over :    191.17s CPU    191.23s WALL (     132 calls)
     cegterg:upda :    131.60s CPU    132.22s WALL (     132 calls)
     cegterg:last :     79.84s CPU     79.85s WALL (      34 calls)

     Called by h_psi:
     h_psi:pot    :    688.58s CPU    692.47s WALL (     166 calls)
     h_psi:calbec :    234.32s CPU    234.43s WALL (     166 calls)
     vloc_psi     :    219.67s CPU    223.38s WALL (     166 calls)
     add_vuspsi   :    234.60s CPU    234.65s WALL (     166 calls)

     General routines
     calbec       :    315.03s CPU    315.17s WALL (     198 calls)
     fft          :     74.24s CPU     76.60s WALL (    1269 calls)
     ffts         :      1.32s CPU      1.37s WALL (      66 calls)
     fftw         :    225.16s CPU    229.02s WALL (   27858 calls)
     interpolate  :      3.02s CPU      3.12s WALL (      34 calls)

     Parallel routines
     fft_scatt_xy :     54.39s CPU     55.03s WALL (   29193 calls)
     fft_scatt_yz :    103.07s CPU    107.69s WALL (   29193 calls)

     PWSCF        :  33m51.31s CPU  34m23.41s WALL


   This run was terminated on:  13:22:37  22Jan2023            

=------------------------------------------------------------------------------=
   JOB DONE.
=------------------------------------------------------------------------------=
