
     Program PWSCF v.6.4.1 starts on 22Jan2023 at 10:29:57 

     This program is part of the open-source Quantum ESPRESSO suite
     for quantum simulation of materials; please cite
         "P. Giannozzi et al., J. Phys.:Condens. Matter 21 395502 (2009);
         "P. Giannozzi et al., J. Phys.:Condens. Matter 29 465901 (2017);
          URL http://www.quantum-espresso.org", 
     in publications or presentations arising from this work. More details at
     http://www.quantum-espresso.org/quote

     Parallel version (MPI), running on     6 processors

     MPI processes distributed on     1 nodes
     R & G space division:  proc/nbgrp/npool/nimage =       6
     Reading input from distance-4.5.in

     Current dimensions of program PWSCF are:
     Max number of different atomic species (ntypx) = 10
     Max number of k-points (npk) =  40000
     Max angular momentum in pseudopotentials (lmaxx) =  3

     IMPORTANT: XC functional enforced from input :
     Exchange-correlation      = RVV10 ( 1  4 13  4 3 0)
     Any further DFT definition will be discarded
     Please, verify this is what you really want

               file H.pbe-rrkjus.UPF: wavefunction(s)  1S renormalized
               file Mn.pbe-spn-rrkjus_psl.0.3.1.UPF: wavefunction(s)  3D renormalized

     Subspace diagonalization in iterative solution of the eigenvalue problem:
     a serial algorithm will be used


     Parallelization info
     --------------------
     sticks:   dense  smooth     PW     G-vecs:    dense   smooth      PW
     Min        3051    1746    432               270999   117096   14629
     Max        3053    1747    437               271001   117099   14630
     Sum       18313   10477   2611              1626001   702581   87777



     bravais-lattice index     =            4
     lattice parameter (alat)  =      23.2937  a.u.
     unit-cell volume          =    8879.8548 (a.u.)^3
     number of atoms/cell      =           52
     number of atomic types    =            3
     number of electrons       =       213.00
     number of Kohn-Sham states=          128
     kinetic-energy cutoff     =      70.0000  Ry
     charge density cutoff     =     490.0000  Ry
     convergence threshold     =      1.0E-06
     mixing beta               =       0.7000
     number of iterations used =            8  plain     mixing
     Exchange-correlation      = RVV10 ( 1  4 13  4 3 0)

     celldm(1)=  23.293684  celldm(2)=   0.000000  celldm(3)=   0.811261
     celldm(4)=   0.000000  celldm(5)=   0.000000  celldm(6)=   0.000000

     crystal axes: (cart. coord. in units of alat)
               a(1) = (   1.000000   0.000000   0.000000 )  
               a(2) = (  -0.500000   0.866025   0.000000 )  
               a(3) = (   0.000000   0.000000   0.811261 )  

     reciprocal axes: (cart. coord. in units 2 pi/alat)
               b(1) = (  1.000000  0.577350 -0.000000 )  
               b(2) = (  0.000000  1.154701  0.000000 )  
               b(3) = (  0.000000 -0.000000  1.232649 )  


     PseudoPot. # 1 for H  read from file:
     /home/cristian/Escritorio/Proyecto_Grafeno/pseudopotenciales/H.pbe-rrkjus.UPF
     MD5 check sum: 7cc9d459525c9a0585f487a71c3c9563
     Pseudo is Ultrasoft, Zval =  1.0
     Generated by new atomic code, or converted to UPF format
     Using radial grid of 1061 points,  2 beta functions with: 
                l(1) =   0
                l(2) =   0
     Q(r) pseudized with 0 coefficients 


     PseudoPot. # 2 for C  read from file:
     /home/cristian/Escritorio/Proyecto_Grafeno/pseudopotenciales/C.pbe-n-rrkjus_psl.1.0.0.UPF
     MD5 check sum: 1fdd950c42eb37d8afe3dd2f8d12311e
     Pseudo is Ultrasoft + core correction, Zval =  4.0
     Generated using "atomic" code by A. Dal Corso v.6.3MaX
     Using radial grid of 1073 points,  4 beta functions with: 
                l(1) =   0
                l(2) =   0
                l(3) =   1
                l(4) =   1
     Q(r) pseudized with 0 coefficients 


     PseudoPot. # 3 for Mn read from file:
     /home/cristian/Escritorio/Proyecto_Grafeno/pseudopotenciales/Mn.pbe-spn-rrkjus_psl.0.3.1.UPF
     MD5 check sum: e1cac159bdd2ba70c18e85765a5d4279
     Pseudo is Ultrasoft + core correction, Zval = 15.0
     Generated using "atomic" code by A. Dal Corso v.6.2.2
     Using radial grid of 1187 points,  6 beta functions with: 
                l(1) =   0
                l(2) =   0
                l(3) =   1
                l(4) =   1
                l(5) =   2
                l(6) =   2
     Q(r) pseudized with 0 coefficients 


     vdW kernel table read from file rVV10_kernel_table
     MD5 check sum: b8e2538accc0c0b3206b45ba4daaba6c

     atomic species   valence    mass     pseudopotential
        H              1.00     1.00794     H ( 1.00)
        C              4.00    12.01070     C ( 1.00)
        Mn            15.00    54.93804     Mn( 1.00)

     Starting magnetic structure 
     atomic species   magnetization
        H            0.500
        C            0.300
        Mn           0.800

     No symmetry found


                                    s                        frac. trans.

      isym =  1     identity                                     

 cryst.   s( 1) = (     1          0          0      )
                  (     0          1          0      )
                  (     0          0          1      )

 cart.    s( 1) = (  1.0000000  0.0000000  0.0000000 )
                  (  0.0000000  1.0000000  0.0000000 )
                  (  0.0000000  0.0000000  1.0000000 )


     point group C_1 (1)    
     there are  1 classes
     the character table:

       E    
A      1.00

     the symmetry operations in each class and the name of the first element:

     E        1
          identity                                               

   Cartesian axes

     site n.     atom                  positions (alat units)
         1           H   tau(   1) = (   0.1694937   0.4618802   0.3650675  )
         2           H   tau(   2) = (   0.2305063   0.4618802   0.3650675  )
         3           C   tau(   3) = (   0.0000000   0.0000000   0.0000000  )
         4           C   tau(   4) = (   0.0000000   0.1154701   0.0000000  )
         5           C   tau(   5) = (  -0.1000000   0.1732051   0.0000000  )
         6           C   tau(   6) = (  -0.1000000   0.2886751   0.0000000  )
         7           C   tau(   7) = (  -0.2000000   0.3464102   0.0000000  )
         8           C   tau(   8) = (  -0.2000000   0.4618802   0.0000000  )
         9           C   tau(   9) = (  -0.3000000   0.5196152   0.0000000  )
        10           C   tau(  10) = (  -0.3000000   0.6350853   0.0000000  )
        11           C   tau(  11) = (  -0.4000000   0.6928203   0.0000000  )
        12           C   tau(  12) = (  -0.4000000   0.8082904   0.0000000  )
        13           C   tau(  13) = (   0.2000000   0.0000000   0.0000000  )
        14           C   tau(  14) = (   0.2000000   0.1154701   0.0000000  )
        15           C   tau(  15) = (   0.1000000   0.1732051   0.0000000  )
        16           C   tau(  16) = (   0.1000000   0.2886751   0.0000000  )
        17           C   tau(  17) = (   0.0000000   0.3464102   0.0000000  )
        18           C   tau(  18) = (   0.0000000   0.4618802   0.0000000  )
        19           C   tau(  19) = (  -0.1000000   0.5196152   0.0000000  )
        20           C   tau(  20) = (  -0.1000000   0.6350853   0.0000000  )
        21           C   tau(  21) = (  -0.2000000   0.6928203   0.0000000  )
        22           C   tau(  22) = (  -0.2000000   0.8082904   0.0000000  )
        23           C   tau(  23) = (   0.4000000   0.0000000   0.0000000  )
        24           C   tau(  24) = (   0.4000000   0.1154701   0.0000000  )
        25           C   tau(  25) = (   0.3000000   0.1732051   0.0000000  )
        26           C   tau(  26) = (   0.3000000   0.2886751   0.0000000  )
        27           C   tau(  27) = (   0.2000000   0.3464102   0.0000000  )
        28           Mn  tau(  28) = (   0.2000000   0.4618802   0.0000000  )
        29           C   tau(  29) = (   0.1000000   0.5196152   0.0000000  )
        30           C   tau(  30) = (   0.1000000   0.6350853   0.0000000  )
        31           C   tau(  31) = (   0.0000000   0.6928203   0.0000000  )
        32           C   tau(  32) = (   0.0000000   0.8082904   0.0000000  )
        33           C   tau(  33) = (   0.6000000   0.0000000   0.0000000  )
        34           C   tau(  34) = (   0.6000000   0.1154701   0.0000000  )
        35           C   tau(  35) = (   0.5000000   0.1732051   0.0000000  )
        36           C   tau(  36) = (   0.5000000   0.2886751   0.0000000  )
        37           C   tau(  37) = (   0.4000000   0.3464102   0.0000000  )
        38           C   tau(  38) = (   0.4000000   0.4618802   0.0000000  )
        39           C   tau(  39) = (   0.3000000   0.5196152   0.0000000  )
        40           C   tau(  40) = (   0.3000000   0.6350853   0.0000000  )
        41           C   tau(  41) = (   0.2000000   0.6928203   0.0000000  )
        42           C   tau(  42) = (   0.2000000   0.8082904   0.0000000  )
        43           C   tau(  43) = (   0.8000000   0.0000000   0.0000000  )
        44           C   tau(  44) = (   0.8000000   0.1154701   0.0000000  )
        45           C   tau(  45) = (   0.7000000   0.1732051   0.0000000  )
        46           C   tau(  46) = (   0.7000000   0.2886751   0.0000000  )
        47           C   tau(  47) = (   0.6000000   0.3464102   0.0000000  )
        48           C   tau(  48) = (   0.6000000   0.4618802   0.0000000  )
        49           C   tau(  49) = (   0.5000000   0.5196152   0.0000000  )
        50           C   tau(  50) = (   0.5000000   0.6350853   0.0000000  )
        51           C   tau(  51) = (   0.4000000   0.6928203   0.0000000  )
        52           C   tau(  52) = (   0.4000000   0.8082904   0.0000000  )

   Crystallographic axes

     site n.     atom                  positions (cryst. coord.)
         1           H   tau(   1) = (  0.4361603  0.5333333  0.4500000  )
         2           H   tau(   2) = (  0.4971730  0.5333333  0.4500000  )
         3           C   tau(   3) = (  0.0000000  0.0000000  0.0000000  )
         4           C   tau(   4) = (  0.0666667  0.1333333  0.0000000  )
         5           C   tau(   5) = (  0.0000000  0.2000000  0.0000000  )
         6           C   tau(   6) = (  0.0666667  0.3333333  0.0000000  )
         7           C   tau(   7) = (  0.0000000  0.4000000  0.0000000  )
         8           C   tau(   8) = (  0.0666667  0.5333333  0.0000000  )
         9           C   tau(   9) = (  0.0000000  0.6000000  0.0000000  )
        10           C   tau(  10) = (  0.0666667  0.7333333  0.0000000  )
        11           C   tau(  11) = (  0.0000000  0.8000000  0.0000000  )
        12           C   tau(  12) = (  0.0666667  0.9333333  0.0000000  )
        13           C   tau(  13) = (  0.2000000  0.0000000  0.0000000  )
        14           C   tau(  14) = (  0.2666667  0.1333333  0.0000000  )
        15           C   tau(  15) = (  0.2000000  0.2000000  0.0000000  )
        16           C   tau(  16) = (  0.2666667  0.3333333  0.0000000  )
        17           C   tau(  17) = (  0.2000000  0.4000000  0.0000000  )
        18           C   tau(  18) = (  0.2666667  0.5333333  0.0000000  )
        19           C   tau(  19) = (  0.2000000  0.6000000  0.0000000  )
        20           C   tau(  20) = (  0.2666667  0.7333333  0.0000000  )
        21           C   tau(  21) = (  0.2000000  0.8000000  0.0000000  )
        22           C   tau(  22) = (  0.2666667  0.9333333  0.0000000  )
        23           C   tau(  23) = (  0.4000000  0.0000000  0.0000000  )
        24           C   tau(  24) = (  0.4666667  0.1333333  0.0000000  )
        25           C   tau(  25) = (  0.4000000  0.2000000  0.0000000  )
        26           C   tau(  26) = (  0.4666667  0.3333333  0.0000000  )
        27           C   tau(  27) = (  0.4000000  0.4000000  0.0000000  )
        28           Mn  tau(  28) = (  0.4666667  0.5333333  0.0000000  )
        29           C   tau(  29) = (  0.4000000  0.6000000  0.0000000  )
        30           C   tau(  30) = (  0.4666667  0.7333333  0.0000000  )
        31           C   tau(  31) = (  0.4000000  0.8000000  0.0000000  )
        32           C   tau(  32) = (  0.4666667  0.9333333  0.0000000  )
        33           C   tau(  33) = (  0.6000000  0.0000000  0.0000000  )
        34           C   tau(  34) = (  0.6666667  0.1333333  0.0000000  )
        35           C   tau(  35) = (  0.6000000  0.2000000  0.0000000  )
        36           C   tau(  36) = (  0.6666667  0.3333333  0.0000000  )
        37           C   tau(  37) = (  0.6000000  0.4000000  0.0000000  )
        38           C   tau(  38) = (  0.6666667  0.5333333  0.0000000  )
        39           C   tau(  39) = (  0.6000000  0.6000000  0.0000000  )
        40           C   tau(  40) = (  0.6666667  0.7333333  0.0000000  )
        41           C   tau(  41) = (  0.6000000  0.8000000  0.0000000  )
        42           C   tau(  42) = (  0.6666667  0.9333333  0.0000000  )
        43           C   tau(  43) = (  0.8000000  0.0000000  0.0000000  )
        44           C   tau(  44) = (  0.8666667  0.1333333  0.0000000  )
        45           C   tau(  45) = (  0.8000000  0.2000000  0.0000000  )
        46           C   tau(  46) = (  0.8666667  0.3333333  0.0000000  )
        47           C   tau(  47) = (  0.8000000  0.4000000  0.0000000  )
        48           C   tau(  48) = (  0.8666667  0.5333333  0.0000000  )
        49           C   tau(  49) = (  0.8000000  0.6000000  0.0000000  )
        50           C   tau(  50) = (  0.8666667  0.7333333  0.0000000  )
        51           C   tau(  51) = (  0.8000000  0.8000000  0.0000000  )
        52           C   tau(  52) = (  0.8666667  0.9333333  0.0000000  )

     number of k points=     1  Marzari-Vanderbilt smearing, width (Ry)=  0.0010
                       cart. coord. in units 2pi/alat
        k(    1) = (   0.0000000   0.0000000   0.0000000), wk =   1.0000000

                       cryst. coord.
        k(    1) = (   0.0000000   0.0000000   0.0000000), wk =   1.0000000

     Dense  grid:  1626001 G-vectors     FFT dimensions: ( 180, 180, 135)

     Smooth grid:   702581 G-vectors     FFT dimensions: ( 125, 125, 108)

     Dynamical RAM for                 wfc:      28.59 MB

     Dynamical RAM for     wfc (w. buffer):      85.76 MB

     Dynamical RAM for           str. fact:      12.41 MB

     Dynamical RAM for           local pot:       0.00 MB

     Dynamical RAM for          nlocal pot:      92.46 MB

     Dynamical RAM for                qrad:      19.73 MB

     Dynamical RAM for          rho,v,vnew:      58.92 MB

     Dynamical RAM for               rhoin:      19.64 MB

     Dynamical RAM for            rho*nmix:     132.32 MB

     Dynamical RAM for           G-vectors:      16.40 MB

     Dynamical RAM for          h,s,v(r/c):      12.00 MB

     Dynamical RAM for          <psi|beta>:       0.81 MB

     Dynamical RAM for                 psi:     114.35 MB

     Dynamical RAM for                hpsi:     114.35 MB

     Dynamical RAM for                spsi:     114.35 MB

     Dynamical RAM for      wfcinit/wfcrot:      93.90 MB

     Dynamical RAM for           addusdens:     975.89 MB

     Estimated static dynamical RAM per process >     488.30 MB

     Estimated max dynamical RAM per process >       1.43 GB

     Estimated total dynamical RAM >       8.58 GB
     Generating pointlists ...
     new r_m :   0.0252 (alat units)  0.5862 (a.u.) for type    1
     new r_m :   0.0476 (alat units)  1.1095 (a.u.) for type    2
     new r_m :   0.0476 (alat units)  1.1095 (a.u.) for type    3

     Check: negative core charge=   -0.000002

     Initial potential from superposition of free atoms

     starting charge  212.80506, renormalised to  213.00000

     negative rho (up, down):  5.945E-05 7.395E-03


---------------------------------------------------------------------------------
Carrying out rVV10 run using the following parameters:
Nqs =      20    Nr_points =    1024   r_max =   100.000
b_value =  6.30000    beta =  0.00901
     q_mesh =  0.00010000  0.00030000  0.00058939  0.00100810
               0.00161396  0.00249058  0.00375900  0.00559430
               0.00824984  0.01209221  0.01765183  0.02569619
               0.03733578  0.05417739  0.07854596  0.11380545
               0.16482331  0.23864234  0.34545298  0.50000000

Gradients computed in Reciprocal space

---------------------------------------------------------------------------------


     Starting wfcs are  208 randomized atomic wfcs

     total cpu time spent up to now is       81.2 secs

     Self-consistent Calculation

     iteration #  1     ecut=    70.00 Ry     beta= 0.70
     Davidson diagonalization with overlap
     ethr =  1.00E-02,  avg # of iterations =  4.0

     negative rho (up, down):  1.061E-04 7.426E-03

     total cpu time spent up to now is      215.9 secs

     total energy              =    -823.54056995 Ry
     Harris-Foulkes estimate   =    -824.90434542 Ry
     estimated scf accuracy    <       9.71170754 Ry

     total magnetization       =     5.00 Bohr mag/cell
     absolute magnetization    =     5.88 Bohr mag/cell

     iteration #  2     ecut=    70.00 Ry     beta= 0.70
     Davidson diagonalization with overlap
     ethr =  4.56E-03,  avg # of iterations =  6.0

     negative rho (up, down):  1.282E-04 7.168E-03

     total cpu time spent up to now is      334.8 secs

     total energy              =    -818.58018875 Ry
     Harris-Foulkes estimate   =    -827.07461150 Ry
     estimated scf accuracy    <      22.15751718 Ry

     total magnetization       =     6.59 Bohr mag/cell
     absolute magnetization    =     6.65 Bohr mag/cell

     iteration #  3     ecut=    70.00 Ry     beta= 0.70
     Davidson diagonalization with overlap
     ethr =  4.56E-03,  avg # of iterations =  4.0

     negative rho (up, down):  1.780E-04 7.675E-03

     total cpu time spent up to now is      487.8 secs

     total energy              =    -822.42496398 Ry
     Harris-Foulkes estimate   =    -830.30949641 Ry
     estimated scf accuracy    <      47.66533912 Ry

     total magnetization       =     1.00 Bohr mag/cell
     absolute magnetization    =     1.50 Bohr mag/cell

     iteration #  4     ecut=    70.00 Ry     beta= 0.70
     Davidson diagonalization with overlap
     ethr =  4.56E-03,  avg # of iterations =  3.5

     negative rho (up, down):  2.149E-04 1.237E-02

     total cpu time spent up to now is      590.1 secs

     total energy              =    -825.74518932 Ry
     Harris-Foulkes estimate   =    -826.00733000 Ry
     estimated scf accuracy    <       0.66805027 Ry

     total magnetization       =     3.00 Bohr mag/cell
     absolute magnetization    =     3.38 Bohr mag/cell

     iteration #  5     ecut=    70.00 Ry     beta= 0.70
     Davidson diagonalization with overlap
     ethr =  3.14E-04,  avg # of iterations =  5.0

     negative rho (up, down):  2.699E-04 1.680E-02

     total cpu time spent up to now is      716.0 secs

     total energy              =    -825.77998489 Ry
     Harris-Foulkes estimate   =    -825.99126055 Ry
     estimated scf accuracy    <       1.15968839 Ry

     total magnetization       =     3.10 Bohr mag/cell
     absolute magnetization    =     3.29 Bohr mag/cell

     iteration #  6     ecut=    70.00 Ry     beta= 0.70
     Davidson diagonalization with overlap
     ethr =  3.14E-04,  avg # of iterations =  3.5

     negative rho (up, down):  6.232E-04 7.078E-03

     total cpu time spent up to now is      817.7 secs

     total energy              =    -825.91688238 Ry
     Harris-Foulkes estimate   =    -825.96247624 Ry
     estimated scf accuracy    <       0.18955189 Ry

     total magnetization       =     3.00 Bohr mag/cell
     absolute magnetization    =     3.44 Bohr mag/cell

     iteration #  7     ecut=    70.00 Ry     beta= 0.70
     Davidson diagonalization with overlap
     ethr =  8.90E-05,  avg # of iterations =  5.5

     negative rho (up, down):  6.492E-04 7.514E-03

     total cpu time spent up to now is      922.0 secs

     total energy              =    -825.93699458 Ry
     Harris-Foulkes estimate   =    -825.94633360 Ry
     estimated scf accuracy    <       0.05276668 Ry

     total magnetization       =     3.00 Bohr mag/cell
     absolute magnetization    =     3.60 Bohr mag/cell

     iteration #  8     ecut=    70.00 Ry     beta= 0.70
     Davidson diagonalization with overlap
     ethr =  2.48E-05,  avg # of iterations =  6.5

     negative rho (up, down):  6.087E-04 4.825E-03

     total cpu time spent up to now is     1023.7 secs

     total energy              =    -825.93936779 Ry
     Harris-Foulkes estimate   =    -825.94154842 Ry
     estimated scf accuracy    <       0.02271443 Ry

     total magnetization       =     3.00 Bohr mag/cell
     absolute magnetization    =     3.69 Bohr mag/cell

     iteration #  9     ecut=    70.00 Ry     beta= 0.70
     Davidson diagonalization with overlap
     ethr =  1.07E-05,  avg # of iterations =  2.0

     negative rho (up, down):  5.829E-04 4.258E-03

     total cpu time spent up to now is     1120.4 secs

     total energy              =    -825.94067572 Ry
     Harris-Foulkes estimate   =    -825.94099368 Ry
     estimated scf accuracy    <       0.00685733 Ry

     total magnetization       =     3.00 Bohr mag/cell
     absolute magnetization    =     3.76 Bohr mag/cell

     iteration # 10     ecut=    70.00 Ry     beta= 0.70
     Davidson diagonalization with overlap
     ethr =  3.22E-06,  avg # of iterations =  2.5

     negative rho (up, down):  5.717E-04 4.596E-03

     total cpu time spent up to now is     1219.8 secs

     total energy              =    -825.94154228 Ry
     Harris-Foulkes estimate   =    -825.94135442 Ry
     estimated scf accuracy    <       0.00174086 Ry

     total magnetization       =     3.00 Bohr mag/cell
     absolute magnetization    =     3.89 Bohr mag/cell

     iteration # 11     ecut=    70.00 Ry     beta= 0.70
     Davidson diagonalization with overlap
     ethr =  8.17E-07,  avg # of iterations =  3.5

     negative rho (up, down):  5.721E-04 4.667E-03

     total cpu time spent up to now is     1323.7 secs

     total energy              =    -825.94188142 Ry
     Harris-Foulkes estimate   =    -825.94179014 Ry
     estimated scf accuracy    <       0.00025291 Ry

     total magnetization       =     3.00 Bohr mag/cell
     absolute magnetization    =     4.02 Bohr mag/cell

     iteration # 12     ecut=    70.00 Ry     beta= 0.70
     Davidson diagonalization with overlap
     ethr =  1.19E-07,  avg # of iterations =  3.5

     negative rho (up, down):  5.751E-04 4.612E-03

     total cpu time spent up to now is     1446.5 secs

     total energy              =    -825.94200088 Ry
     Harris-Foulkes estimate   =    -825.94199161 Ry
     estimated scf accuracy    <       0.00006987 Ry

     total magnetization       =     3.00 Bohr mag/cell
     absolute magnetization    =     4.14 Bohr mag/cell

     iteration # 13     ecut=    70.00 Ry     beta= 0.70
     Davidson diagonalization with overlap
     ethr =  3.28E-08,  avg # of iterations =  3.0

     negative rho (up, down):  5.782E-04 4.569E-03

     total cpu time spent up to now is     1566.7 secs

     total energy              =    -825.94202698 Ry
     Harris-Foulkes estimate   =    -825.94203984 Ry
     estimated scf accuracy    <       0.00007090 Ry

     total magnetization       =     3.00 Bohr mag/cell
     absolute magnetization    =     4.20 Bohr mag/cell

     iteration # 14     ecut=    70.00 Ry     beta= 0.70
     Davidson diagonalization with overlap
     ethr =  3.28E-08,  avg # of iterations =  3.0

     negative rho (up, down):  5.832E-04 4.479E-03

     total cpu time spent up to now is     1666.6 secs

     total energy              =    -825.94204994 Ry
     Harris-Foulkes estimate   =    -825.94203903 Ry
     estimated scf accuracy    <       0.00000775 Ry

     total magnetization       =     3.00 Bohr mag/cell
     absolute magnetization    =     4.22 Bohr mag/cell

     iteration # 15     ecut=    70.00 Ry     beta= 0.70
     Davidson diagonalization with overlap
     ethr =  3.64E-09,  avg # of iterations =  3.0

     negative rho (up, down):  5.822E-04 4.521E-03

     total cpu time spent up to now is     1796.5 secs

     total energy              =    -825.94206186 Ry
     Harris-Foulkes estimate   =    -825.94205924 Ry
     estimated scf accuracy    <       0.00000285 Ry

     total magnetization       =     3.00 Bohr mag/cell
     absolute magnetization    =     4.27 Bohr mag/cell

     iteration # 16     ecut=    70.00 Ry     beta= 0.70
     Davidson diagonalization with overlap
     ethr =  1.34E-09,  avg # of iterations =  3.5

     negative rho (up, down):  5.824E-04 4.526E-03

     total cpu time spent up to now is     1926.8 secs

     total energy              =    -825.94206504 Ry
     Harris-Foulkes estimate   =    -825.94206441 Ry
     estimated scf accuracy    <       0.00000164 Ry

     total magnetization       =     3.00 Bohr mag/cell
     absolute magnetization    =     4.29 Bohr mag/cell

     iteration # 17     ecut=    70.00 Ry     beta= 0.70
     Davidson diagonalization with overlap
     ethr =  7.71E-10,  avg # of iterations =  3.0

     negative rho (up, down):  5.816E-04 4.561E-03

     Magnetic moment per site:
     atom:    1    charge:    0.2113    magn:    0.0001    constr:    0.0000
     atom:    2    charge:    0.2113    magn:    0.0001    constr:    0.0000
     atom:    3    charge:    1.7170    magn:   -0.0128    constr:    0.0000
     atom:    4    charge:    1.7156    magn:    0.0179    constr:    0.0000
     atom:    5    charge:    1.7177    magn:   -0.0097    constr:    0.0000
     atom:    6    charge:    1.7143    magn:    0.0062    constr:    0.0000
     atom:    7    charge:    1.7177    magn:   -0.0097    constr:    0.0000
     atom:    8    charge:    1.7157    magn:    0.0179    constr:    0.0000
     atom:    9    charge:    1.7171    magn:   -0.0127    constr:    0.0000
     atom:   10    charge:    1.7155    magn:    0.0575    constr:    0.0000
     atom:   11    charge:    1.7175    magn:   -0.0179    constr:    0.0000
     atom:   12    charge:    1.7155    magn:    0.0575    constr:    0.0000
     atom:   13    charge:    1.7174    magn:   -0.0179    constr:    0.0000
     atom:   14    charge:    1.7159    magn:    0.0460    constr:    0.0000
     atom:   15    charge:    1.7143    magn:   -0.0148    constr:    0.0000
     atom:   16    charge:    1.7124    magn:    0.0616    constr:    0.0000
     atom:   17    charge:    1.7236    magn:   -0.0140    constr:    0.0000
     atom:   18    charge:    1.7124    magn:    0.0615    constr:    0.0000
     atom:   19    charge:    1.7144    magn:   -0.0148    constr:    0.0000
     atom:   20    charge:    1.7159    magn:    0.0460    constr:    0.0000
     atom:   21    charge:    1.7175    magn:   -0.0179    constr:    0.0000
     atom:   22    charge:    1.7155    magn:    0.0575    constr:    0.0000
     atom:   23    charge:    1.7170    magn:   -0.0128    constr:    0.0000
     atom:   24    charge:    1.7156    magn:    0.0179    constr:    0.0000
     atom:   25    charge:    1.7143    magn:   -0.0148    constr:    0.0000
     atom:   26    charge:    1.7124    magn:    0.0616    constr:    0.0000
     atom:   27    charge:    1.8739    magn:   -0.0300    constr:    0.0000
     atom:   28    charge:   10.0211    magn:    0.7893    constr:    0.0000
     atom:   29    charge:    1.8739    magn:   -0.0301    constr:    0.0000
     atom:   30    charge:    1.7124    magn:    0.0616    constr:    0.0000
     atom:   31    charge:    1.7144    magn:   -0.0148    constr:    0.0000
     atom:   32    charge:    1.7155    magn:    0.0179    constr:    0.0000
     atom:   33    charge:    1.7176    magn:   -0.0097    constr:    0.0000
     atom:   34    charge:    1.7141    magn:    0.0126    constr:    0.0000
     atom:   35    charge:    1.7177    magn:   -0.0097    constr:    0.0000
     atom:   36    charge:    1.7143    magn:    0.0062    constr:    0.0000
     atom:   37    charge:    1.7236    magn:   -0.0140    constr:    0.0000
     atom:   38    charge:    1.7124    magn:    0.0615    constr:    0.0000
     atom:   39    charge:    1.8739    magn:   -0.0301    constr:    0.0000
     atom:   40    charge:    1.7124    magn:    0.0616    constr:    0.0000
     atom:   41    charge:    1.7235    magn:   -0.0140    constr:    0.0000
     atom:   42    charge:    1.7142    magn:    0.0062    constr:    0.0000
     atom:   43    charge:    1.7176    magn:   -0.0097    constr:    0.0000
     atom:   44    charge:    1.7141    magn:    0.0126    constr:    0.0000
     atom:   45    charge:    1.7233    magn:   -0.0070    constr:    0.0000
     atom:   46    charge:    1.7142    magn:    0.0126    constr:    0.0000
     atom:   47    charge:    1.7177    magn:   -0.0097    constr:    0.0000
     atom:   48    charge:    1.7156    magn:    0.0179    constr:    0.0000
     atom:   49    charge:    1.7144    magn:   -0.0148    constr:    0.0000
     atom:   50    charge:    1.7159    magn:    0.0460    constr:    0.0000
     atom:   51    charge:    1.7144    magn:   -0.0148    constr:    0.0000
     atom:   52    charge:    1.7155    magn:    0.0179    constr:    0.0000

     total cpu time spent up to now is     2056.8 secs

     End of self-consistent calculation

 ------ SPIN UP ------------


          k = 0.0000 0.0000 0.0000 ( 87777 PWs)   bands (ev):

   -80.7182 -50.2215 -50.2214 -49.1393 -19.7753 -18.9398 -18.9396 -18.8480
   -18.8276 -18.8274 -18.4838 -17.0769 -17.0769 -17.0715 -16.9921 -16.9920
   -16.6806 -16.2320 -16.2320 -16.1236 -16.0625 -16.0622 -15.3615 -14.1219
   -14.1214 -14.0554 -13.9897 -13.9893 -13.3230 -13.0634 -13.0634 -13.0361
   -12.7337 -12.7335 -12.3165 -11.8414 -11.8411 -11.6570 -11.3816 -11.3815
   -10.4684  -9.6739  -9.6735  -9.4360  -9.3174  -9.3172  -9.2233  -9.1961
    -9.1959  -9.1815  -8.6924  -8.6924  -8.1654  -8.1650  -8.0595  -7.9391
    -7.8304  -7.4252  -7.4247  -7.1928  -7.1914  -7.1913  -6.9175  -6.9174
    -6.8359  -6.8249  -6.8239  -6.7120  -6.5607  -6.5605  -6.5404  -6.5297
    -6.5200  -6.5195  -6.4831  -6.4740  -5.6415  -5.6406  -5.5223  -5.5223
    -5.3189  -5.3187  -5.0346  -4.9803  -4.8806  -4.7483  -4.7277  -4.7275
    -4.4058  -4.2291  -4.2285  -4.2170  -4.2170  -3.8875  -3.8874  -3.7903
    -3.6665  -3.6662  -3.1479  -2.7553  -2.7547  -1.8980  -1.8015  -1.8011
    -1.4623  -1.1150  -1.1145  -0.8521   0.9044   0.9664   0.9667   1.5678
     1.5679   1.5787   2.5065   2.7592   2.7597   2.8572   3.0197   3.0329
     3.4600   3.4697   3.4753   3.4847   3.6384   3.7390   3.9664   4.1292

     occupation numbers 
     1.0000   1.0000   1.0000   1.0000   1.0000   1.0000   1.0000   1.0000
     1.0000   1.0000   1.0000   1.0000   1.0000   1.0000   1.0000   1.0000
     1.0000   1.0000   1.0000   1.0000   1.0000   1.0000   1.0000   1.0000
     1.0000   1.0000   1.0000   1.0000   1.0000   1.0000   1.0000   1.0000
     1.0000   1.0000   1.0000   1.0000   1.0000   1.0000   1.0000   1.0000
     1.0000   1.0000   1.0000   1.0000   1.0000   1.0000   1.0000   1.0000
     1.0000   1.0000   1.0000   1.0000   1.0000   1.0000   1.0000   1.0000
     1.0000   1.0000   1.0000   1.0000   1.0000   1.0000   1.0000   1.0000
     1.0000   1.0000   1.0000   1.0000   1.0000   1.0000   1.0000   1.0000
     1.0000   1.0000   1.0000   1.0000   1.0000   1.0000   1.0000   1.0000
     1.0000   1.0000   1.0000   1.0000   1.0000   1.0000   1.0000   1.0000
     1.0000   1.0000   1.0000   1.0000   1.0000   1.0000   1.0000   1.0000
     1.0000   1.0000   1.0000   1.0000   1.0000   1.0000   1.0000   1.0000
     1.0000   1.0000   1.0000   1.0000   0.0000   0.0000   0.0000   0.0000
     0.0000   0.0000   0.0000   0.0000   0.0000   0.0000   0.0000   0.0000
     0.0000   0.0000   0.0000   0.0000   0.0000   0.0000   0.0000   0.0000

 ------ SPIN DOWN ----------


          k = 0.0000 0.0000 0.0000 ( 87777 PWs)   bands (ev):

   -79.3735 -49.1473 -49.1473 -47.3674 -19.7337 -18.8916 -18.8915 -18.8106
   -18.8013 -18.8007 -18.4187 -17.0423 -17.0396 -17.0395 -16.9362 -16.9361
   -16.6511 -16.1820 -16.1819 -16.0926 -16.0189 -16.0185 -15.3306 -14.0486
   -14.0481 -13.9870 -13.9796 -13.9793 -13.3297 -13.0370 -13.0370 -13.0035
   -12.7147 -12.7145 -12.2794 -11.7994 -11.7991 -11.6320 -11.3575 -11.3574
   -10.4307  -9.6059  -9.6055  -9.4051  -9.2825  -9.2823  -9.2073  -9.1716
    -9.1715  -9.1641  -8.6766  -8.6766  -8.1155  -8.1152  -8.0281  -7.8423
    -7.8124  -7.4090  -7.4086  -7.1349  -6.9978  -6.9963  -6.8556  -6.8555
    -6.7681  -6.7672  -6.7384  -6.6960  -6.5415  -6.5412  -6.5184  -6.5069
    -6.5066  -6.4894  -6.4568  -6.3812  -5.4840  -5.4840  -5.3529  -5.3521
    -5.2417  -5.2414  -4.9669  -4.8693  -4.6819  -4.6736  -4.6366  -4.6363
    -4.3291  -4.0986  -4.0981  -4.0096  -4.0095  -3.7516  -3.7515  -3.7030
    -3.6477  -3.6474  -3.0756  -2.4957  -2.4952  -1.7765  -1.7762  -1.7285
    -0.8169  -0.5156  -0.5151  -0.0590   1.0084   1.0088   1.0613   1.7433
     1.7470   1.7471   2.5419   2.8967   2.8971   2.9259   3.2780   3.3207
     3.5536   3.6364   3.6621   3.6627   3.6868   3.7402   3.7554   4.0351

     occupation numbers 
     1.0000   1.0000   1.0000   1.0000   1.0000   1.0000   1.0000   1.0000
     1.0000   1.0000   1.0000   1.0000   1.0000   1.0000   1.0000   1.0000
     1.0000   1.0000   1.0000   1.0000   1.0000   1.0000   1.0000   1.0000
     1.0000   1.0000   1.0000   1.0000   1.0000   1.0000   1.0000   1.0000
     1.0000   1.0000   1.0000   1.0000   1.0000   1.0000   1.0000   1.0000
     1.0000   1.0000   1.0000   1.0000   1.0000   1.0000   1.0000   1.0000
     1.0000   1.0000   1.0000   1.0000   1.0000   1.0000   1.0000   1.0000
     1.0000   1.0000   1.0000   1.0000   1.0000   1.0000   1.0000   1.0000
     1.0000   1.0000   1.0000   1.0000   1.0000   1.0000   1.0000   1.0000
     1.0000   1.0000   1.0000   1.0000   1.0000   1.0000   1.0000   1.0000
     1.0000   1.0000   1.0000   1.0000   1.0000   1.0000   1.0000   1.0000
     1.0000   1.0000   1.0000   1.0000   1.0000   1.0000   1.0000   1.0000
     1.0000   1.0000   1.0000   1.0000   1.0000   1.0000   1.0000   1.0000
     1.0000   0.0000   0.0000   0.0000   0.0000   0.0000   0.0000   0.0000
     0.0000   0.0000   0.0000   0.0000   0.0000   0.0000   0.0000   0.0000
     0.0000   0.0000   0.0000   0.0000   0.0000   0.0000   0.0000   0.0000

     the Fermi energy is    -0.6525 ev

!    total energy              =    -825.94206655 Ry
     Harris-Foulkes estimate   =    -825.94206691 Ry
     estimated scf accuracy    <       0.00000084 Ry

     The total energy is the sum of the following terms:

     one-electron contribution =   -2704.56088542 Ry
     hartree contribution      =    1397.13223813 Ry
     xc contribution           =    -259.64130908 Ry
     ewald contribution        =     741.12788982 Ry
     smearing contrib. (-TS)   =      -0.00000000 Ry

     total magnetization       =     3.00 Bohr mag/cell
     absolute magnetization    =     4.31 Bohr mag/cell

     convergence has been achieved in  17 iterations

     Writing output data file manganeso-top-distance-4.5.save/

     init_run     :     78.62s CPU     80.02s WALL (       1 calls)
     electrons    :   1944.10s CPU   1975.78s WALL (       1 calls)

     Called by init_run:
     wfcinit      :     44.07s CPU     44.33s WALL (       1 calls)
     wfcinit:atom :      0.08s CPU      0.09s WALL (       2 calls)
     wfcinit:wfcr :     43.65s CPU     43.84s WALL (       2 calls)
     potinit      :     14.43s CPU     14.91s WALL (       1 calls)
     hinit0       :     11.30s CPU     11.32s WALL (       1 calls)

     Called by electrons:
     c_bands      :   1316.13s CPU   1322.92s WALL (      17 calls)
     sum_band     :    362.44s CPU    372.39s WALL (      17 calls)
     v_of_rho     :    134.21s CPU    140.42s WALL (      18 calls)
     v_h          :      1.48s CPU      1.52s WALL (      18 calls)
     v_xc         :    132.72s CPU    138.90s WALL (      18 calls)
     newd         :    134.39s CPU    143.89s WALL (      18 calls)
     mix_rho      :      7.57s CPU      7.71s WALL (      17 calls)

     Called by c_bands:
     init_us_2    :      3.32s CPU      3.37s WALL (      70 calls)
     cegterg      :   1307.91s CPU   1314.63s WALL (      34 calls)

     Called by sum_band:
     sum_band:bec :      0.03s CPU      0.03s WALL (      34 calls)
     addusdens    :    221.04s CPU    230.29s WALL (      17 calls)

     Called by *egterg:
     h_psi        :    670.24s CPU    674.93s WALL (     166 calls)
     s_psi        :    228.79s CPU    228.90s WALL (     166 calls)
     g_psi        :      0.75s CPU      0.75s WALL (     130 calls)
     cdiaghg      :     13.78s CPU     13.80s WALL (     164 calls)
     cegterg:over :    181.50s CPU    181.57s WALL (     130 calls)
     cegterg:upda :    117.97s CPU    118.65s WALL (     130 calls)
     cegterg:last :     67.89s CPU     67.91s WALL (      34 calls)

     Called by h_psi:
     h_psi:pot    :    669.57s CPU    673.33s WALL (     166 calls)
     h_psi:calbec :    228.94s CPU    229.04s WALL (     166 calls)
     vloc_psi     :    212.47s CPU    216.07s WALL (     166 calls)
     add_vuspsi   :    228.15s CPU    228.22s WALL (     166 calls)

     General routines
     calbec       :    315.36s CPU    315.49s WALL (     200 calls)
     fft          :     81.14s CPU     83.59s WALL (    1344 calls)
     ffts         :      1.28s CPU      1.32s WALL (      70 calls)
     fftw         :    221.29s CPU    225.06s WALL (   27388 calls)
     interpolate  :      3.22s CPU      3.30s WALL (      36 calls)

     Parallel routines
     fft_scatt_xy :     55.13s CPU     55.82s WALL (   28802 calls)
     fft_scatt_yz :    106.12s CPU    110.73s WALL (   28802 calls)

     PWSCF        :  33m44.02s CPU  34m17.46s WALL


   This run was terminated on:  11: 4:14  22Jan2023            

=------------------------------------------------------------------------------=
   JOB DONE.
=------------------------------------------------------------------------------=
