
     Program PWSCF v.6.4.1 starts on 22Jan2023 at 11: 4:15 

     This program is part of the open-source Quantum ESPRESSO suite
     for quantum simulation of materials; please cite
         "P. Giannozzi et al., J. Phys.:Condens. Matter 21 395502 (2009);
         "P. Giannozzi et al., J. Phys.:Condens. Matter 29 465901 (2017);
          URL http://www.quantum-espresso.org", 
     in publications or presentations arising from this work. More details at
     http://www.quantum-espresso.org/quote

     Parallel version (MPI), running on     6 processors

     MPI processes distributed on     1 nodes
     R & G space division:  proc/nbgrp/npool/nimage =       6
     Reading input from distance-4.0.in

     Current dimensions of program PWSCF are:
     Max number of different atomic species (ntypx) = 10
     Max number of k-points (npk) =  40000
     Max angular momentum in pseudopotentials (lmaxx) =  3

     IMPORTANT: XC functional enforced from input :
     Exchange-correlation      = RVV10 ( 1  4 13  4 3 0)
     Any further DFT definition will be discarded
     Please, verify this is what you really want

               file H.pbe-rrkjus.UPF: wavefunction(s)  1S renormalized
               file Mn.pbe-spn-rrkjus_psl.0.3.1.UPF: wavefunction(s)  3D renormalized

     Subspace diagonalization in iterative solution of the eigenvalue problem:
     a serial algorithm will be used


     Parallelization info
     --------------------
     sticks:   dense  smooth     PW     G-vecs:    dense   smooth      PW
     Min        3051    1746    432               270999   117096   14629
     Max        3053    1747    437               271001   117099   14630
     Sum       18313   10477   2611              1626001   702581   87777



     bravais-lattice index     =            4
     lattice parameter (alat)  =      23.2937  a.u.
     unit-cell volume          =    8879.8548 (a.u.)^3
     number of atoms/cell      =           52
     number of atomic types    =            3
     number of electrons       =       213.00
     number of Kohn-Sham states=          128
     kinetic-energy cutoff     =      70.0000  Ry
     charge density cutoff     =     490.0000  Ry
     convergence threshold     =      1.0E-06
     mixing beta               =       0.7000
     number of iterations used =            8  plain     mixing
     Exchange-correlation      = RVV10 ( 1  4 13  4 3 0)

     celldm(1)=  23.293684  celldm(2)=   0.000000  celldm(3)=   0.811261
     celldm(4)=   0.000000  celldm(5)=   0.000000  celldm(6)=   0.000000

     crystal axes: (cart. coord. in units of alat)
               a(1) = (   1.000000   0.000000   0.000000 )  
               a(2) = (  -0.500000   0.866025   0.000000 )  
               a(3) = (   0.000000   0.000000   0.811261 )  

     reciprocal axes: (cart. coord. in units 2 pi/alat)
               b(1) = (  1.000000  0.577350 -0.000000 )  
               b(2) = (  0.000000  1.154701  0.000000 )  
               b(3) = (  0.000000 -0.000000  1.232649 )  


     PseudoPot. # 1 for H  read from file:
     /home/cristian/Escritorio/Proyecto_Grafeno/pseudopotenciales/H.pbe-rrkjus.UPF
     MD5 check sum: 7cc9d459525c9a0585f487a71c3c9563
     Pseudo is Ultrasoft, Zval =  1.0
     Generated by new atomic code, or converted to UPF format
     Using radial grid of 1061 points,  2 beta functions with: 
                l(1) =   0
                l(2) =   0
     Q(r) pseudized with 0 coefficients 


     PseudoPot. # 2 for C  read from file:
     /home/cristian/Escritorio/Proyecto_Grafeno/pseudopotenciales/C.pbe-n-rrkjus_psl.1.0.0.UPF
     MD5 check sum: 1fdd950c42eb37d8afe3dd2f8d12311e
     Pseudo is Ultrasoft + core correction, Zval =  4.0
     Generated using "atomic" code by A. Dal Corso v.6.3MaX
     Using radial grid of 1073 points,  4 beta functions with: 
                l(1) =   0
                l(2) =   0
                l(3) =   1
                l(4) =   1
     Q(r) pseudized with 0 coefficients 


     PseudoPot. # 3 for Mn read from file:
     /home/cristian/Escritorio/Proyecto_Grafeno/pseudopotenciales/Mn.pbe-spn-rrkjus_psl.0.3.1.UPF
     MD5 check sum: e1cac159bdd2ba70c18e85765a5d4279
     Pseudo is Ultrasoft + core correction, Zval = 15.0
     Generated using "atomic" code by A. Dal Corso v.6.2.2
     Using radial grid of 1187 points,  6 beta functions with: 
                l(1) =   0
                l(2) =   0
                l(3) =   1
                l(4) =   1
                l(5) =   2
                l(6) =   2
     Q(r) pseudized with 0 coefficients 


     vdW kernel table read from file rVV10_kernel_table
     MD5 check sum: b8e2538accc0c0b3206b45ba4daaba6c

     atomic species   valence    mass     pseudopotential
        H              1.00     1.00794     H ( 1.00)
        C              4.00    12.01070     C ( 1.00)
        Mn            15.00    54.93804     Mn( 1.00)

     Starting magnetic structure 
     atomic species   magnetization
        H            0.500
        C            0.300
        Mn           0.800

     No symmetry found


                                    s                        frac. trans.

      isym =  1     identity                                     

 cryst.   s( 1) = (     1          0          0      )
                  (     0          1          0      )
                  (     0          0          1      )

 cart.    s( 1) = (  1.0000000  0.0000000  0.0000000 )
                  (  0.0000000  1.0000000  0.0000000 )
                  (  0.0000000  0.0000000  1.0000000 )


     point group C_1 (1)    
     there are  1 classes
     the character table:

       E    
A      1.00

     the symmetry operations in each class and the name of the first element:

     E        1
          identity                                               

   Cartesian axes

     site n.     atom                  positions (alat units)
         1           H   tau(   1) = (   0.1694937   0.4618802   0.3245045  )
         2           H   tau(   2) = (   0.2305063   0.4618802   0.3245045  )
         3           C   tau(   3) = (   0.0000000   0.0000000   0.0000000  )
         4           C   tau(   4) = (   0.0000000   0.1154701   0.0000000  )
         5           C   tau(   5) = (  -0.1000000   0.1732051   0.0000000  )
         6           C   tau(   6) = (  -0.1000000   0.2886751   0.0000000  )
         7           C   tau(   7) = (  -0.2000000   0.3464102   0.0000000  )
         8           C   tau(   8) = (  -0.2000000   0.4618802   0.0000000  )
         9           C   tau(   9) = (  -0.3000000   0.5196152   0.0000000  )
        10           C   tau(  10) = (  -0.3000000   0.6350853   0.0000000  )
        11           C   tau(  11) = (  -0.4000000   0.6928203   0.0000000  )
        12           C   tau(  12) = (  -0.4000000   0.8082904   0.0000000  )
        13           C   tau(  13) = (   0.2000000   0.0000000   0.0000000  )
        14           C   tau(  14) = (   0.2000000   0.1154701   0.0000000  )
        15           C   tau(  15) = (   0.1000000   0.1732051   0.0000000  )
        16           C   tau(  16) = (   0.1000000   0.2886751   0.0000000  )
        17           C   tau(  17) = (   0.0000000   0.3464102   0.0000000  )
        18           C   tau(  18) = (   0.0000000   0.4618802   0.0000000  )
        19           C   tau(  19) = (  -0.1000000   0.5196152   0.0000000  )
        20           C   tau(  20) = (  -0.1000000   0.6350853   0.0000000  )
        21           C   tau(  21) = (  -0.2000000   0.6928203   0.0000000  )
        22           C   tau(  22) = (  -0.2000000   0.8082904   0.0000000  )
        23           C   tau(  23) = (   0.4000000   0.0000000   0.0000000  )
        24           C   tau(  24) = (   0.4000000   0.1154701   0.0000000  )
        25           C   tau(  25) = (   0.3000000   0.1732051   0.0000000  )
        26           C   tau(  26) = (   0.3000000   0.2886751   0.0000000  )
        27           C   tau(  27) = (   0.2000000   0.3464102   0.0000000  )
        28           Mn  tau(  28) = (   0.2000000   0.4618802   0.0000000  )
        29           C   tau(  29) = (   0.1000000   0.5196152   0.0000000  )
        30           C   tau(  30) = (   0.1000000   0.6350853   0.0000000  )
        31           C   tau(  31) = (   0.0000000   0.6928203   0.0000000  )
        32           C   tau(  32) = (   0.0000000   0.8082904   0.0000000  )
        33           C   tau(  33) = (   0.6000000   0.0000000   0.0000000  )
        34           C   tau(  34) = (   0.6000000   0.1154701   0.0000000  )
        35           C   tau(  35) = (   0.5000000   0.1732051   0.0000000  )
        36           C   tau(  36) = (   0.5000000   0.2886751   0.0000000  )
        37           C   tau(  37) = (   0.4000000   0.3464102   0.0000000  )
        38           C   tau(  38) = (   0.4000000   0.4618802   0.0000000  )
        39           C   tau(  39) = (   0.3000000   0.5196152   0.0000000  )
        40           C   tau(  40) = (   0.3000000   0.6350853   0.0000000  )
        41           C   tau(  41) = (   0.2000000   0.6928203   0.0000000  )
        42           C   tau(  42) = (   0.2000000   0.8082904   0.0000000  )
        43           C   tau(  43) = (   0.8000000   0.0000000   0.0000000  )
        44           C   tau(  44) = (   0.8000000   0.1154701   0.0000000  )
        45           C   tau(  45) = (   0.7000000   0.1732051   0.0000000  )
        46           C   tau(  46) = (   0.7000000   0.2886751   0.0000000  )
        47           C   tau(  47) = (   0.6000000   0.3464102   0.0000000  )
        48           C   tau(  48) = (   0.6000000   0.4618802   0.0000000  )
        49           C   tau(  49) = (   0.5000000   0.5196152   0.0000000  )
        50           C   tau(  50) = (   0.5000000   0.6350853   0.0000000  )
        51           C   tau(  51) = (   0.4000000   0.6928203   0.0000000  )
        52           C   tau(  52) = (   0.4000000   0.8082904   0.0000000  )

   Crystallographic axes

     site n.     atom                  positions (cryst. coord.)
         1           H   tau(   1) = (  0.4361603  0.5333333  0.4000000  )
         2           H   tau(   2) = (  0.4971730  0.5333333  0.4000000  )
         3           C   tau(   3) = (  0.0000000  0.0000000  0.0000000  )
         4           C   tau(   4) = (  0.0666667  0.1333333  0.0000000  )
         5           C   tau(   5) = (  0.0000000  0.2000000  0.0000000  )
         6           C   tau(   6) = (  0.0666667  0.3333333  0.0000000  )
         7           C   tau(   7) = (  0.0000000  0.4000000  0.0000000  )
         8           C   tau(   8) = (  0.0666667  0.5333333  0.0000000  )
         9           C   tau(   9) = (  0.0000000  0.6000000  0.0000000  )
        10           C   tau(  10) = (  0.0666667  0.7333333  0.0000000  )
        11           C   tau(  11) = (  0.0000000  0.8000000  0.0000000  )
        12           C   tau(  12) = (  0.0666667  0.9333333  0.0000000  )
        13           C   tau(  13) = (  0.2000000  0.0000000  0.0000000  )
        14           C   tau(  14) = (  0.2666667  0.1333333  0.0000000  )
        15           C   tau(  15) = (  0.2000000  0.2000000  0.0000000  )
        16           C   tau(  16) = (  0.2666667  0.3333333  0.0000000  )
        17           C   tau(  17) = (  0.2000000  0.4000000  0.0000000  )
        18           C   tau(  18) = (  0.2666667  0.5333333  0.0000000  )
        19           C   tau(  19) = (  0.2000000  0.6000000  0.0000000  )
        20           C   tau(  20) = (  0.2666667  0.7333333  0.0000000  )
        21           C   tau(  21) = (  0.2000000  0.8000000  0.0000000  )
        22           C   tau(  22) = (  0.2666667  0.9333333  0.0000000  )
        23           C   tau(  23) = (  0.4000000  0.0000000  0.0000000  )
        24           C   tau(  24) = (  0.4666667  0.1333333  0.0000000  )
        25           C   tau(  25) = (  0.4000000  0.2000000  0.0000000  )
        26           C   tau(  26) = (  0.4666667  0.3333333  0.0000000  )
        27           C   tau(  27) = (  0.4000000  0.4000000  0.0000000  )
        28           Mn  tau(  28) = (  0.4666667  0.5333333  0.0000000  )
        29           C   tau(  29) = (  0.4000000  0.6000000  0.0000000  )
        30           C   tau(  30) = (  0.4666667  0.7333333  0.0000000  )
        31           C   tau(  31) = (  0.4000000  0.8000000  0.0000000  )
        32           C   tau(  32) = (  0.4666667  0.9333333  0.0000000  )
        33           C   tau(  33) = (  0.6000000  0.0000000  0.0000000  )
        34           C   tau(  34) = (  0.6666667  0.1333333  0.0000000  )
        35           C   tau(  35) = (  0.6000000  0.2000000  0.0000000  )
        36           C   tau(  36) = (  0.6666667  0.3333333  0.0000000  )
        37           C   tau(  37) = (  0.6000000  0.4000000  0.0000000  )
        38           C   tau(  38) = (  0.6666667  0.5333333  0.0000000  )
        39           C   tau(  39) = (  0.6000000  0.6000000  0.0000000  )
        40           C   tau(  40) = (  0.6666667  0.7333333  0.0000000  )
        41           C   tau(  41) = (  0.6000000  0.8000000  0.0000000  )
        42           C   tau(  42) = (  0.6666667  0.9333333  0.0000000  )
        43           C   tau(  43) = (  0.8000000  0.0000000  0.0000000  )
        44           C   tau(  44) = (  0.8666667  0.1333333  0.0000000  )
        45           C   tau(  45) = (  0.8000000  0.2000000  0.0000000  )
        46           C   tau(  46) = (  0.8666667  0.3333333  0.0000000  )
        47           C   tau(  47) = (  0.8000000  0.4000000  0.0000000  )
        48           C   tau(  48) = (  0.8666667  0.5333333  0.0000000  )
        49           C   tau(  49) = (  0.8000000  0.6000000  0.0000000  )
        50           C   tau(  50) = (  0.8666667  0.7333333  0.0000000  )
        51           C   tau(  51) = (  0.8000000  0.8000000  0.0000000  )
        52           C   tau(  52) = (  0.8666667  0.9333333  0.0000000  )

     number of k points=     1  Marzari-Vanderbilt smearing, width (Ry)=  0.0010
                       cart. coord. in units 2pi/alat
        k(    1) = (   0.0000000   0.0000000   0.0000000), wk =   1.0000000

                       cryst. coord.
        k(    1) = (   0.0000000   0.0000000   0.0000000), wk =   1.0000000

     Dense  grid:  1626001 G-vectors     FFT dimensions: ( 180, 180, 135)

     Smooth grid:   702581 G-vectors     FFT dimensions: ( 125, 125, 108)

     Dynamical RAM for                 wfc:      28.59 MB

     Dynamical RAM for     wfc (w. buffer):      85.76 MB

     Dynamical RAM for           str. fact:      12.41 MB

     Dynamical RAM for           local pot:       0.00 MB

     Dynamical RAM for          nlocal pot:      92.46 MB

     Dynamical RAM for                qrad:      19.73 MB

     Dynamical RAM for          rho,v,vnew:      58.92 MB

     Dynamical RAM for               rhoin:      19.64 MB

     Dynamical RAM for            rho*nmix:     132.32 MB

     Dynamical RAM for           G-vectors:      16.40 MB

     Dynamical RAM for          h,s,v(r/c):      12.00 MB

     Dynamical RAM for          <psi|beta>:       0.81 MB

     Dynamical RAM for                 psi:     114.35 MB

     Dynamical RAM for                hpsi:     114.35 MB

     Dynamical RAM for                spsi:     114.35 MB

     Dynamical RAM for      wfcinit/wfcrot:      93.90 MB

     Dynamical RAM for           addusdens:     975.89 MB

     Estimated static dynamical RAM per process >     488.30 MB

     Estimated max dynamical RAM per process >       1.43 GB

     Estimated total dynamical RAM >       8.58 GB
     Generating pointlists ...
     new r_m :   0.0252 (alat units)  0.5862 (a.u.) for type    1
     new r_m :   0.0476 (alat units)  1.1095 (a.u.) for type    2
     new r_m :   0.0476 (alat units)  1.1095 (a.u.) for type    3

     Check: negative core charge=   -0.000002

     Initial potential from superposition of free atoms

     starting charge  212.80506, renormalised to  213.00000

     negative rho (up, down):  6.096E-05 8.013E-03


---------------------------------------------------------------------------------
Carrying out rVV10 run using the following parameters:
Nqs =      20    Nr_points =    1024   r_max =   100.000
b_value =  6.30000    beta =  0.00901
     q_mesh =  0.00010000  0.00030000  0.00058939  0.00100810
               0.00161396  0.00249058  0.00375900  0.00559430
               0.00824984  0.01209221  0.01765183  0.02569619
               0.03733578  0.05417739  0.07854596  0.11380545
               0.16482331  0.23864234  0.34545298  0.50000000

Gradients computed in Reciprocal space

---------------------------------------------------------------------------------


     Starting wfcs are  208 randomized atomic wfcs

     total cpu time spent up to now is       79.4 secs

     Self-consistent Calculation

     iteration #  1     ecut=    70.00 Ry     beta= 0.70
     Davidson diagonalization with overlap
     ethr =  1.00E-02,  avg # of iterations =  2.5

     negative rho (up, down):  1.117E-04 7.816E-03

     total cpu time spent up to now is      213.0 secs

     total energy              =    -823.33632696 Ry
     Harris-Foulkes estimate   =    -824.89854435 Ry
     estimated scf accuracy    <       9.87279402 Ry

     total magnetization       =     5.36 Bohr mag/cell
     absolute magnetization    =     6.11 Bohr mag/cell

     iteration #  2     ecut=    70.00 Ry     beta= 0.70
     Davidson diagonalization with overlap
     ethr =  4.64E-03,  avg # of iterations =  5.5

     negative rho (up, down):  1.336E-04 7.987E-03

     total cpu time spent up to now is      332.0 secs

     total energy              =    -816.71986972 Ry
     Harris-Foulkes estimate   =    -827.89020277 Ry
     estimated scf accuracy    <      35.34825668 Ry

     total magnetization       =     5.00 Bohr mag/cell
     absolute magnetization    =     5.19 Bohr mag/cell

     iteration #  3     ecut=    70.00 Ry     beta= 0.70
     Davidson diagonalization with overlap
     ethr =  4.64E-03,  avg # of iterations =  4.0

     negative rho (up, down):  1.853E-04 7.401E-03

     total cpu time spent up to now is      486.5 secs

     total energy              =    -822.77276038 Ry
     Harris-Foulkes estimate   =    -829.34854597 Ry
     estimated scf accuracy    <      42.37596832 Ry

     total magnetization       =     1.65 Bohr mag/cell
     absolute magnetization    =     2.04 Bohr mag/cell

     iteration #  4     ecut=    70.00 Ry     beta= 0.70
     Davidson diagonalization with overlap
     ethr =  4.64E-03,  avg # of iterations =  3.0

     negative rho (up, down):  2.212E-04 1.187E-02

     total cpu time spent up to now is      587.8 secs

     total energy              =    -825.65318253 Ry
     Harris-Foulkes estimate   =    -826.08842087 Ry
     estimated scf accuracy    <       1.04683052 Ry

     total magnetization       =     3.00 Bohr mag/cell
     absolute magnetization    =     3.30 Bohr mag/cell

     iteration #  5     ecut=    70.00 Ry     beta= 0.70
     Davidson diagonalization with overlap
     ethr =  4.91E-04,  avg # of iterations =  5.0

     negative rho (up, down):  2.752E-04 1.728E-02

     total cpu time spent up to now is      710.8 secs

     total energy              =    -825.74982105 Ry
     Harris-Foulkes estimate   =    -826.04777332 Ry
     estimated scf accuracy    <       1.63191853 Ry

     total magnetization       =     3.00 Bohr mag/cell
     absolute magnetization    =     3.15 Bohr mag/cell

     iteration #  6     ecut=    70.00 Ry     beta= 0.70
     Davidson diagonalization with overlap
     ethr =  4.91E-04,  avg # of iterations =  3.5

     negative rho (up, down):  5.921E-04 3.987E-03

     total cpu time spent up to now is      810.8 secs

     total energy              =    -825.92130005 Ry
     Harris-Foulkes estimate   =    -825.95396105 Ry
     estimated scf accuracy    <       0.13556763 Ry

     total magnetization       =     3.00 Bohr mag/cell
     absolute magnetization    =     3.35 Bohr mag/cell

     iteration #  7     ecut=    70.00 Ry     beta= 0.70
     Davidson diagonalization with overlap
     ethr =  6.36E-05,  avg # of iterations =  5.0

     negative rho (up, down):  6.037E-04 4.332E-03

     total cpu time spent up to now is      916.8 secs

     total energy              =    -825.93795650 Ry
     Harris-Foulkes estimate   =    -825.94367120 Ry
     estimated scf accuracy    <       0.03781095 Ry

     total magnetization       =     3.00 Bohr mag/cell
     absolute magnetization    =     3.53 Bohr mag/cell

     iteration #  8     ecut=    70.00 Ry     beta= 0.70
     Davidson diagonalization with overlap
     ethr =  1.78E-05,  avg # of iterations =  5.5

     negative rho (up, down):  5.816E-04 4.648E-03

     total cpu time spent up to now is     1017.9 secs

     total energy              =    -825.94064955 Ry
     Harris-Foulkes estimate   =    -825.94070626 Ry
     estimated scf accuracy    <       0.00908409 Ry

     total magnetization       =     3.00 Bohr mag/cell
     absolute magnetization    =     3.64 Bohr mag/cell

     iteration #  9     ecut=    70.00 Ry     beta= 0.70
     Davidson diagonalization with overlap
     ethr =  4.26E-06,  avg # of iterations =  8.0

     negative rho (up, down):  5.713E-04 5.285E-03

     total cpu time spent up to now is     1122.0 secs

     total energy              =    -825.94170232 Ry
     Harris-Foulkes estimate   =    -825.94149313 Ry
     estimated scf accuracy    <       0.00174788 Ry

     total magnetization       =     3.00 Bohr mag/cell
     absolute magnetization    =     3.80 Bohr mag/cell

     iteration # 10     ecut=    70.00 Ry     beta= 0.70
     Davidson diagonalization with overlap
     ethr =  8.21E-07,  avg # of iterations =  7.5

     negative rho (up, down):  5.795E-04 5.062E-03

     total cpu time spent up to now is     1233.8 secs

     total energy              =    -825.94226641 Ry
     Harris-Foulkes estimate   =    -825.94222599 Ry
     estimated scf accuracy    <       0.00054009 Ry

     total magnetization       =     3.00 Bohr mag/cell
     absolute magnetization    =     3.94 Bohr mag/cell

     iteration # 11     ecut=    70.00 Ry     beta= 0.70
     Davidson diagonalization with overlap
     ethr =  2.54E-07,  avg # of iterations =  3.0

     negative rho (up, down):  5.884E-04 4.797E-03

     total cpu time spent up to now is     1342.8 secs

     total energy              =    -825.94247835 Ry
     Harris-Foulkes estimate   =    -825.94243685 Ry
     estimated scf accuracy    <       0.00016568 Ry

     total magnetization       =     3.00 Bohr mag/cell
     absolute magnetization    =     4.04 Bohr mag/cell

     iteration # 12     ecut=    70.00 Ry     beta= 0.70
     Davidson diagonalization with overlap
     ethr =  7.78E-08,  avg # of iterations =  3.0

     negative rho (up, down):  5.911E-04 4.745E-03

     total cpu time spent up to now is     1464.2 secs

     total energy              =    -825.94255783 Ry
     Harris-Foulkes estimate   =    -825.94254906 Ry
     estimated scf accuracy    <       0.00005989 Ry

     total magnetization       =     3.00 Bohr mag/cell
     absolute magnetization    =     4.14 Bohr mag/cell

     iteration # 13     ecut=    70.00 Ry     beta= 0.70
     Davidson diagonalization with overlap
     ethr =  2.81E-08,  avg # of iterations =  3.0

     negative rho (up, down):  5.949E-04 4.700E-03

     total cpu time spent up to now is     1581.2 secs

     total energy              =    -825.94258448 Ry
     Harris-Foulkes estimate   =    -825.94258845 Ry
     estimated scf accuracy    <       0.00005743 Ry

     total magnetization       =     3.00 Bohr mag/cell
     absolute magnetization    =     4.19 Bohr mag/cell

     iteration # 14     ecut=    70.00 Ry     beta= 0.70
     Davidson diagonalization with overlap
     ethr =  2.70E-08,  avg # of iterations =  3.0

     negative rho (up, down):  5.985E-04 4.662E-03

     total cpu time spent up to now is     1683.6 secs

     total energy              =    -825.94260602 Ry
     Harris-Foulkes estimate   =    -825.94259658 Ry
     estimated scf accuracy    <       0.00000737 Ry

     total magnetization       =     3.00 Bohr mag/cell
     absolute magnetization    =     4.22 Bohr mag/cell

     iteration # 15     ecut=    70.00 Ry     beta= 0.70
     Davidson diagonalization with overlap
     ethr =  3.46E-09,  avg # of iterations =  3.0

     negative rho (up, down):  5.978E-04 4.694E-03

     total cpu time spent up to now is     1815.0 secs

     total energy              =    -825.94261717 Ry
     Harris-Foulkes estimate   =    -825.94261518 Ry
     estimated scf accuracy    <       0.00000247 Ry

     total magnetization       =     3.00 Bohr mag/cell
     absolute magnetization    =     4.27 Bohr mag/cell

     iteration # 16     ecut=    70.00 Ry     beta= 0.70
     Davidson diagonalization with overlap
     ethr =  1.16E-09,  avg # of iterations =  3.5

     negative rho (up, down):  5.968E-04 4.729E-03

     Magnetic moment per site:
     atom:    1    charge:    0.2116    magn:    0.0003    constr:    0.0000
     atom:    2    charge:    0.2116    magn:    0.0003    constr:    0.0000
     atom:    3    charge:    1.7171    magn:   -0.0126    constr:    0.0000
     atom:    4    charge:    1.7156    magn:    0.0178    constr:    0.0000
     atom:    5    charge:    1.7176    magn:   -0.0096    constr:    0.0000
     atom:    6    charge:    1.7142    magn:    0.0061    constr:    0.0000
     atom:    7    charge:    1.7177    magn:   -0.0096    constr:    0.0000
     atom:    8    charge:    1.7156    magn:    0.0178    constr:    0.0000
     atom:    9    charge:    1.7171    magn:   -0.0126    constr:    0.0000
     atom:   10    charge:    1.7154    magn:    0.0574    constr:    0.0000
     atom:   11    charge:    1.7175    magn:   -0.0178    constr:    0.0000
     atom:   12    charge:    1.7154    magn:    0.0574    constr:    0.0000
     atom:   13    charge:    1.7174    magn:   -0.0178    constr:    0.0000
     atom:   14    charge:    1.7159    magn:    0.0459    constr:    0.0000
     atom:   15    charge:    1.7144    magn:   -0.0146    constr:    0.0000
     atom:   16    charge:    1.7124    magn:    0.0615    constr:    0.0000
     atom:   17    charge:    1.7235    magn:   -0.0139    constr:    0.0000
     atom:   18    charge:    1.7123    magn:    0.0614    constr:    0.0000
     atom:   19    charge:    1.7144    magn:   -0.0146    constr:    0.0000
     atom:   20    charge:    1.7159    magn:    0.0459    constr:    0.0000
     atom:   21    charge:    1.7175    magn:   -0.0178    constr:    0.0000
     atom:   22    charge:    1.7154    magn:    0.0574    constr:    0.0000
     atom:   23    charge:    1.7171    magn:   -0.0126    constr:    0.0000
     atom:   24    charge:    1.7156    magn:    0.0178    constr:    0.0000
     atom:   25    charge:    1.7144    magn:   -0.0146    constr:    0.0000
     atom:   26    charge:    1.7124    magn:    0.0615    constr:    0.0000
     atom:   27    charge:    1.8740    magn:   -0.0300    constr:    0.0000
     atom:   28    charge:   10.0211    magn:    0.7901    constr:    0.0000
     atom:   29    charge:    1.8739    magn:   -0.0300    constr:    0.0000
     atom:   30    charge:    1.7123    magn:    0.0614    constr:    0.0000
     atom:   31    charge:    1.7144    magn:   -0.0146    constr:    0.0000
     atom:   32    charge:    1.7156    magn:    0.0178    constr:    0.0000
     atom:   33    charge:    1.7177    magn:   -0.0096    constr:    0.0000
     atom:   34    charge:    1.7142    magn:    0.0124    constr:    0.0000
     atom:   35    charge:    1.7176    magn:   -0.0096    constr:    0.0000
     atom:   36    charge:    1.7142    magn:    0.0061    constr:    0.0000
     atom:   37    charge:    1.7236    magn:   -0.0139    constr:    0.0000
     atom:   38    charge:    1.7123    magn:    0.0614    constr:    0.0000
     atom:   39    charge:    1.8739    magn:   -0.0300    constr:    0.0000
     atom:   40    charge:    1.7123    magn:    0.0614    constr:    0.0000
     atom:   41    charge:    1.7235    magn:   -0.0139    constr:    0.0000
     atom:   42    charge:    1.7142    magn:    0.0060    constr:    0.0000
     atom:   43    charge:    1.7177    magn:   -0.0096    constr:    0.0000
     atom:   44    charge:    1.7142    magn:    0.0124    constr:    0.0000
     atom:   45    charge:    1.7233    magn:   -0.0068    constr:    0.0000
     atom:   46    charge:    1.7142    magn:    0.0124    constr:    0.0000
     atom:   47    charge:    1.7177    magn:   -0.0096    constr:    0.0000
     atom:   48    charge:    1.7156    magn:    0.0178    constr:    0.0000
     atom:   49    charge:    1.7144    magn:   -0.0146    constr:    0.0000
     atom:   50    charge:    1.7159    magn:    0.0459    constr:    0.0000
     atom:   51    charge:    1.7144    magn:   -0.0146    constr:    0.0000
     atom:   52    charge:    1.7156    magn:    0.0178    constr:    0.0000

     total cpu time spent up to now is     1946.7 secs

     End of self-consistent calculation

 ------ SPIN UP ------------


          k = 0.0000 0.0000 0.0000 ( 87777 PWs)   bands (ev):

   -80.7152 -50.2185 -50.2185 -49.1363 -19.7743 -18.9388 -18.9386 -18.8468
   -18.8264 -18.8263 -18.4821 -17.0758 -17.0757 -17.0705 -16.9907 -16.9907
   -16.6796 -16.2306 -16.2306 -16.1223 -16.0612 -16.0610 -15.3602 -14.1203
   -14.1200 -14.0540 -13.9887 -13.9885 -13.3218 -13.0623 -13.0623 -13.0351
   -12.7323 -12.7323 -12.3152 -11.8401 -11.8399 -11.6557 -11.3803 -11.3803
   -10.4671  -9.6721  -9.6720  -9.4347  -9.3161  -9.3160  -9.2222  -9.1950
    -9.1950  -9.1807  -8.6913  -8.6912  -8.1638  -8.1636  -8.0583  -7.9384
    -7.8290  -7.4240  -7.4238  -7.1912  -7.1901  -7.1899  -6.9161  -6.9161
    -6.8355  -6.8238  -6.8233  -6.7106  -6.5685  -6.5596  -6.5595  -6.5286
    -6.5187  -6.5186  -6.4752  -6.4724  -5.6395  -5.6390  -5.5209  -5.5208
    -5.3175  -5.3175  -5.0323  -4.9792  -4.8795  -4.7474  -4.7268  -4.7265
    -4.4045  -4.2279  -4.2276  -4.2150  -4.2149  -3.8864  -3.8863  -3.7893
    -3.6652  -3.6652  -3.1459  -2.7538  -2.7534  -1.8967  -1.8006  -1.8003
    -1.4548  -1.1129  -1.1126  -0.8501   0.9054   0.9672   0.9675   1.5688
     1.5689   1.5806   2.5074   2.7601   2.7606   2.8584   3.0141   3.0329
     3.4585   3.4703   3.4760   3.4904   3.6360   3.7286   3.7309   3.7398

     occupation numbers 
     1.0000   1.0000   1.0000   1.0000   1.0000   1.0000   1.0000   1.0000
     1.0000   1.0000   1.0000   1.0000   1.0000   1.0000   1.0000   1.0000
     1.0000   1.0000   1.0000   1.0000   1.0000   1.0000   1.0000   1.0000
     1.0000   1.0000   1.0000   1.0000   1.0000   1.0000   1.0000   1.0000
     1.0000   1.0000   1.0000   1.0000   1.0000   1.0000   1.0000   1.0000
     1.0000   1.0000   1.0000   1.0000   1.0000   1.0000   1.0000   1.0000
     1.0000   1.0000   1.0000   1.0000   1.0000   1.0000   1.0000   1.0000
     1.0000   1.0000   1.0000   1.0000   1.0000   1.0000   1.0000   1.0000
     1.0000   1.0000   1.0000   1.0000   1.0000   1.0000   1.0000   1.0000
     1.0000   1.0000   1.0000   1.0000   1.0000   1.0000   1.0000   1.0000
     1.0000   1.0000   1.0000   1.0000   1.0000   1.0000   1.0000   1.0000
     1.0000   1.0000   1.0000   1.0000   1.0000   1.0000   1.0000   1.0000
     1.0000   1.0000   1.0000   1.0000   1.0000   1.0000   1.0000   1.0000
     1.0000   1.0000   1.0000   1.0000   0.0000   0.0000   0.0000   0.0000
     0.0000   0.0000   0.0000   0.0000   0.0000   0.0000   0.0000   0.0000
     0.0000   0.0000   0.0000   0.0000   0.0000   0.0000   0.0000   0.0000

 ------ SPIN DOWN ----------


          k = 0.0000 0.0000 0.0000 ( 87777 PWs)   bands (ev):

   -79.3691 -49.1433 -49.1433 -47.3625 -19.7327 -18.8907 -18.8906 -18.8095
   -18.7999 -18.7997 -18.4171 -17.0413 -17.0385 -17.0384 -16.9349 -16.9348
   -16.6501 -16.1806 -16.1806 -16.0914 -16.0176 -16.0174 -15.3294 -14.0471
   -14.0469 -13.9857 -13.9786 -13.9784 -13.3281 -13.0360 -13.0360 -13.0024
   -12.7133 -12.7133 -12.2783 -11.7980 -11.7978 -11.6308 -11.3562 -11.3562
   -10.4296  -9.6041  -9.6040  -9.4039  -9.2812  -9.2812  -9.2063  -9.1706
    -9.1705  -9.1633  -8.6755  -8.6755  -8.1140  -8.1138  -8.0268  -7.8416
    -7.8110  -7.4079  -7.4077  -7.1337  -6.9964  -6.9952  -6.8542  -6.8542
    -6.7671  -6.7666  -6.7375  -6.6946  -6.5404  -6.5403  -6.5203  -6.5173
    -6.5057  -6.5056  -6.4557  -6.3671  -5.4827  -5.4827  -5.3510  -5.3504
    -5.2402  -5.2402  -4.9658  -4.8682  -4.6792  -4.6727  -4.6357  -4.6353
    -4.3280  -4.0973  -4.0970  -4.0073  -4.0072  -3.7505  -3.7504  -3.7020
    -3.6464  -3.6463  -3.0740  -2.4940  -2.4936  -1.7756  -1.7754  -1.7273
    -0.8147  -0.5142  -0.5139  -0.0511   1.0091   1.0095   1.0624   1.7444
     1.7483   1.7484   2.5411   2.8976   2.8981   2.9270   3.2638   3.3187
     3.5547   3.6411   3.6619   3.6646   3.6876   3.7399   3.7433   3.7560

     occupation numbers 
     1.0000   1.0000   1.0000   1.0000   1.0000   1.0000   1.0000   1.0000
     1.0000   1.0000   1.0000   1.0000   1.0000   1.0000   1.0000   1.0000
     1.0000   1.0000   1.0000   1.0000   1.0000   1.0000   1.0000   1.0000
     1.0000   1.0000   1.0000   1.0000   1.0000   1.0000   1.0000   1.0000
     1.0000   1.0000   1.0000   1.0000   1.0000   1.0000   1.0000   1.0000
     1.0000   1.0000   1.0000   1.0000   1.0000   1.0000   1.0000   1.0000
     1.0000   1.0000   1.0000   1.0000   1.0000   1.0000   1.0000   1.0000
     1.0000   1.0000   1.0000   1.0000   1.0000   1.0000   1.0000   1.0000
     1.0000   1.0000   1.0000   1.0000   1.0000   1.0000   1.0000   1.0000
     1.0000   1.0000   1.0000   1.0000   1.0000   1.0000   1.0000   1.0000
     1.0000   1.0000   1.0000   1.0000   1.0000   1.0000   1.0000   1.0000
     1.0000   1.0000   1.0000   1.0000   1.0000   1.0000   1.0000   1.0000
     1.0000   1.0000   1.0000   1.0000   1.0000   1.0000   1.0000   1.0000
     1.0000   0.0000   0.0000   0.0000   0.0000   0.0000   0.0000   0.0000
     0.0000   0.0000   0.0000   0.0000   0.0000   0.0000   0.0000   0.0000
     0.0000   0.0000   0.0000   0.0000   0.0000   0.0000   0.0000   0.0000

     the Fermi energy is    -0.6742 ev

!    total energy              =    -825.94262026 Ry
     Harris-Foulkes estimate   =    -825.94261991 Ry
     estimated scf accuracy    <       0.00000090 Ry

     The total energy is the sum of the following terms:

     one-electron contribution =   -2708.21882433 Ry
     hartree contribution      =    1398.96999320 Ry
     xc contribution           =    -259.64253556 Ry
     ewald contribution        =     742.94874644 Ry
     smearing contrib. (-TS)   =       0.00000000 Ry

     total magnetization       =     3.00 Bohr mag/cell
     absolute magnetization    =     4.30 Bohr mag/cell

     convergence has been achieved in  16 iterations

     Writing output data file manganeso-top-distance-4.0.save/

     init_run     :     76.90s CPU     78.28s WALL (       1 calls)
     electrons    :   1836.99s CPU   1867.42s WALL (       1 calls)

     Called by init_run:
     wfcinit      :     44.22s CPU     44.49s WALL (       1 calls)
     wfcinit:atom :      0.06s CPU      0.09s WALL (       2 calls)
     wfcinit:wfcr :     43.82s CPU     43.99s WALL (       2 calls)
     potinit      :     13.48s CPU     13.92s WALL (       1 calls)
     hinit0       :     10.35s CPU     10.39s WALL (       1 calls)

     Called by electrons:
     c_bands      :   1248.37s CPU   1254.69s WALL (      16 calls)
     sum_band     :    339.86s CPU    349.96s WALL (      16 calls)
     v_of_rho     :    126.47s CPU    132.32s WALL (      17 calls)
     v_h          :      1.33s CPU      1.39s WALL (      17 calls)
     v_xc         :    125.14s CPU    130.93s WALL (      17 calls)
     newd         :    126.36s CPU    135.22s WALL (      17 calls)
     mix_rho      :      6.93s CPU      7.11s WALL (      16 calls)

     Called by c_bands:
     init_us_2    :      3.20s CPU      3.25s WALL (      66 calls)
     cegterg      :   1240.63s CPU   1246.91s WALL (      32 calls)

     Called by sum_band:
     sum_band:bec :      0.03s CPU      0.03s WALL (      32 calls)
     addusdens    :    206.22s CPU    215.44s WALL (      16 calls)

     Called by *egterg:
     h_psi        :    639.87s CPU    644.34s WALL (     170 calls)
     s_psi        :    218.12s CPU    218.22s WALL (     170 calls)
     g_psi        :      0.72s CPU      0.72s WALL (     136 calls)
     cdiaghg      :     14.24s CPU     14.24s WALL (     168 calls)
     cegterg:over :    168.01s CPU    168.07s WALL (     136 calls)
     cegterg:upda :    113.00s CPU    113.54s WALL (     136 calls)
     cegterg:last :     64.18s CPU     64.19s WALL (      32 calls)

     Called by h_psi:
     h_psi:pot    :    639.17s CPU    642.82s WALL (     170 calls)
     h_psi:calbec :    217.29s CPU    217.41s WALL (     170 calls)
     vloc_psi     :    203.88s CPU    207.34s WALL (     170 calls)
     add_vuspsi   :    217.99s CPU    218.06s WALL (     170 calls)

     General routines
     calbec       :    298.58s CPU    298.75s WALL (     202 calls)
     fft          :     77.30s CPU     79.71s WALL (    1269 calls)
     ffts         :      1.27s CPU      1.32s WALL (      66 calls)
     fftw         :    211.57s CPU    215.34s WALL (   25976 calls)
     interpolate  :      3.02s CPU      3.11s WALL (      34 calls)

     Parallel routines
     fft_scatt_xy :     51.37s CPU     51.96s WALL (   27311 calls)
     fft_scatt_yz :    102.43s CPU    107.12s WALL (   27311 calls)

     PWSCF        :  31m55.22s CPU  32m27.40s WALL


   This run was terminated on:  11:36:42  22Jan2023            

=------------------------------------------------------------------------------=
   JOB DONE.
=------------------------------------------------------------------------------=
