
     Program PWSCF v.6.4.1 starts on 23Jan2023 at  5:56:31 

     This program is part of the open-source Quantum ESPRESSO suite
     for quantum simulation of materials; please cite
         "P. Giannozzi et al., J. Phys.:Condens. Matter 21 395502 (2009);
         "P. Giannozzi et al., J. Phys.:Condens. Matter 29 465901 (2017);
          URL http://www.quantum-espresso.org", 
     in publications or presentations arising from this work. More details at
     http://www.quantum-espresso.org/quote

     Parallel version (MPI), running on     6 processors

     MPI processes distributed on     1 nodes
     R & G space division:  proc/nbgrp/npool/nimage =       6
     Reading input from distance-1.75.in

     Current dimensions of program PWSCF are:
     Max number of different atomic species (ntypx) = 10
     Max number of k-points (npk) =  40000
     Max angular momentum in pseudopotentials (lmaxx) =  3

     IMPORTANT: XC functional enforced from input :
     Exchange-correlation      = RVV10 ( 1  4 13  4 3 0)
     Any further DFT definition will be discarded
     Please, verify this is what you really want

               file H.pbe-rrkjus.UPF: wavefunction(s)  1S renormalized
               file Mn.pbe-spn-rrkjus_psl.0.3.1.UPF: wavefunction(s)  3D renormalized

     Subspace diagonalization in iterative solution of the eigenvalue problem:
     a serial algorithm will be used


     Parallelization info
     --------------------
     sticks:   dense  smooth     PW     G-vecs:    dense   smooth      PW
     Min        3051    1746    432               270999   117096   14629
     Max        3053    1747    437               271001   117099   14630
     Sum       18313   10477   2611              1626001   702581   87777



     bravais-lattice index     =            4
     lattice parameter (alat)  =      23.2937  a.u.
     unit-cell volume          =    8879.8548 (a.u.)^3
     number of atoms/cell      =           52
     number of atomic types    =            3
     number of electrons       =       213.00
     number of Kohn-Sham states=          128
     kinetic-energy cutoff     =      70.0000  Ry
     charge density cutoff     =     490.0000  Ry
     convergence threshold     =      1.0E-06
     mixing beta               =       0.7000
     number of iterations used =            8  plain     mixing
     Exchange-correlation      = RVV10 ( 1  4 13  4 3 0)

     celldm(1)=  23.293684  celldm(2)=   0.000000  celldm(3)=   0.811261
     celldm(4)=   0.000000  celldm(5)=   0.000000  celldm(6)=   0.000000

     crystal axes: (cart. coord. in units of alat)
               a(1) = (   1.000000   0.000000   0.000000 )  
               a(2) = (  -0.500000   0.866025   0.000000 )  
               a(3) = (   0.000000   0.000000   0.811261 )  

     reciprocal axes: (cart. coord. in units 2 pi/alat)
               b(1) = (  1.000000  0.577350 -0.000000 )  
               b(2) = (  0.000000  1.154701  0.000000 )  
               b(3) = (  0.000000 -0.000000  1.232649 )  


     PseudoPot. # 1 for H  read from file:
     /home/cristian/Escritorio/Proyecto_Grafeno/pseudopotenciales/H.pbe-rrkjus.UPF
     MD5 check sum: 7cc9d459525c9a0585f487a71c3c9563
     Pseudo is Ultrasoft, Zval =  1.0
     Generated by new atomic code, or converted to UPF format
     Using radial grid of 1061 points,  2 beta functions with: 
                l(1) =   0
                l(2) =   0
     Q(r) pseudized with 0 coefficients 


     PseudoPot. # 2 for C  read from file:
     /home/cristian/Escritorio/Proyecto_Grafeno/pseudopotenciales/C.pbe-n-rrkjus_psl.1.0.0.UPF
     MD5 check sum: 1fdd950c42eb37d8afe3dd2f8d12311e
     Pseudo is Ultrasoft + core correction, Zval =  4.0
     Generated using "atomic" code by A. Dal Corso v.6.3MaX
     Using radial grid of 1073 points,  4 beta functions with: 
                l(1) =   0
                l(2) =   0
                l(3) =   1
                l(4) =   1
     Q(r) pseudized with 0 coefficients 


     PseudoPot. # 3 for Mn read from file:
     /home/cristian/Escritorio/Proyecto_Grafeno/pseudopotenciales/Mn.pbe-spn-rrkjus_psl.0.3.1.UPF
     MD5 check sum: e1cac159bdd2ba70c18e85765a5d4279
     Pseudo is Ultrasoft + core correction, Zval = 15.0
     Generated using "atomic" code by A. Dal Corso v.6.2.2
     Using radial grid of 1187 points,  6 beta functions with: 
                l(1) =   0
                l(2) =   0
                l(3) =   1
                l(4) =   1
                l(5) =   2
                l(6) =   2
     Q(r) pseudized with 0 coefficients 


     vdW kernel table read from file rVV10_kernel_table
     MD5 check sum: b8e2538accc0c0b3206b45ba4daaba6c

     atomic species   valence    mass     pseudopotential
        H              1.00     1.00794     H ( 1.00)
        C              4.00    12.01070     C ( 1.00)
        Mn            15.00    54.93804     Mn( 1.00)

     Starting magnetic structure 
     atomic species   magnetization
        H            0.500
        C            0.300
        Mn           0.800

     No symmetry found


                                    s                        frac. trans.

      isym =  1     identity                                     

 cryst.   s( 1) = (     1          0          0      )
                  (     0          1          0      )
                  (     0          0          1      )

 cart.    s( 1) = (  1.0000000  0.0000000  0.0000000 )
                  (  0.0000000  1.0000000  0.0000000 )
                  (  0.0000000  0.0000000  1.0000000 )


     point group C_1 (1)    
     there are  1 classes
     the character table:

       E    
A      1.00

     the symmetry operations in each class and the name of the first element:

     E        1
          identity                                               

   Cartesian axes

     site n.     atom                  positions (alat units)
         1           H   tau(   1) = (   0.1694937   0.4618802   0.1419707  )
         2           H   tau(   2) = (   0.2305063   0.4618802   0.1419707  )
         3           C   tau(   3) = (   0.0000000   0.0000000   0.0000000  )
         4           C   tau(   4) = (   0.0000000   0.1154701   0.0000000  )
         5           C   tau(   5) = (  -0.1000000   0.1732051   0.0000000  )
         6           C   tau(   6) = (  -0.1000000   0.2886751   0.0000000  )
         7           C   tau(   7) = (  -0.2000000   0.3464102   0.0000000  )
         8           C   tau(   8) = (  -0.2000000   0.4618802   0.0000000  )
         9           C   tau(   9) = (  -0.3000000   0.5196152   0.0000000  )
        10           C   tau(  10) = (  -0.3000000   0.6350853   0.0000000  )
        11           C   tau(  11) = (  -0.4000000   0.6928203   0.0000000  )
        12           C   tau(  12) = (  -0.4000000   0.8082904   0.0000000  )
        13           C   tau(  13) = (   0.2000000   0.0000000   0.0000000  )
        14           C   tau(  14) = (   0.2000000   0.1154701   0.0000000  )
        15           C   tau(  15) = (   0.1000000   0.1732051   0.0000000  )
        16           C   tau(  16) = (   0.1000000   0.2886751   0.0000000  )
        17           C   tau(  17) = (   0.0000000   0.3464102   0.0000000  )
        18           C   tau(  18) = (   0.0000000   0.4618802   0.0000000  )
        19           C   tau(  19) = (  -0.1000000   0.5196152   0.0000000  )
        20           C   tau(  20) = (  -0.1000000   0.6350853   0.0000000  )
        21           C   tau(  21) = (  -0.2000000   0.6928203   0.0000000  )
        22           C   tau(  22) = (  -0.2000000   0.8082904   0.0000000  )
        23           C   tau(  23) = (   0.4000000   0.0000000   0.0000000  )
        24           C   tau(  24) = (   0.4000000   0.1154701   0.0000000  )
        25           C   tau(  25) = (   0.3000000   0.1732051   0.0000000  )
        26           C   tau(  26) = (   0.3000000   0.2886751   0.0000000  )
        27           C   tau(  27) = (   0.2000000   0.3464102   0.0000000  )
        28           Mn  tau(  28) = (   0.2000000   0.4618802   0.0000000  )
        29           C   tau(  29) = (   0.1000000   0.5196152   0.0000000  )
        30           C   tau(  30) = (   0.1000000   0.6350853   0.0000000  )
        31           C   tau(  31) = (   0.0000000   0.6928203   0.0000000  )
        32           C   tau(  32) = (   0.0000000   0.8082904   0.0000000  )
        33           C   tau(  33) = (   0.6000000   0.0000000   0.0000000  )
        34           C   tau(  34) = (   0.6000000   0.1154701   0.0000000  )
        35           C   tau(  35) = (   0.5000000   0.1732051   0.0000000  )
        36           C   tau(  36) = (   0.5000000   0.2886751   0.0000000  )
        37           C   tau(  37) = (   0.4000000   0.3464102   0.0000000  )
        38           C   tau(  38) = (   0.4000000   0.4618802   0.0000000  )
        39           C   tau(  39) = (   0.3000000   0.5196152   0.0000000  )
        40           C   tau(  40) = (   0.3000000   0.6350853   0.0000000  )
        41           C   tau(  41) = (   0.2000000   0.6928203   0.0000000  )
        42           C   tau(  42) = (   0.2000000   0.8082904   0.0000000  )
        43           C   tau(  43) = (   0.8000000   0.0000000   0.0000000  )
        44           C   tau(  44) = (   0.8000000   0.1154701   0.0000000  )
        45           C   tau(  45) = (   0.7000000   0.1732051   0.0000000  )
        46           C   tau(  46) = (   0.7000000   0.2886751   0.0000000  )
        47           C   tau(  47) = (   0.6000000   0.3464102   0.0000000  )
        48           C   tau(  48) = (   0.6000000   0.4618802   0.0000000  )
        49           C   tau(  49) = (   0.5000000   0.5196152   0.0000000  )
        50           C   tau(  50) = (   0.5000000   0.6350853   0.0000000  )
        51           C   tau(  51) = (   0.4000000   0.6928203   0.0000000  )
        52           C   tau(  52) = (   0.4000000   0.8082904   0.0000000  )

   Crystallographic axes

     site n.     atom                  positions (cryst. coord.)
         1           H   tau(   1) = (  0.4361603  0.5333333  0.1750000  )
         2           H   tau(   2) = (  0.4971730  0.5333333  0.1750000  )
         3           C   tau(   3) = (  0.0000000  0.0000000  0.0000000  )
         4           C   tau(   4) = (  0.0666667  0.1333333  0.0000000  )
         5           C   tau(   5) = (  0.0000000  0.2000000  0.0000000  )
         6           C   tau(   6) = (  0.0666667  0.3333333  0.0000000  )
         7           C   tau(   7) = (  0.0000000  0.4000000  0.0000000  )
         8           C   tau(   8) = (  0.0666667  0.5333333  0.0000000  )
         9           C   tau(   9) = (  0.0000000  0.6000000  0.0000000  )
        10           C   tau(  10) = (  0.0666667  0.7333333  0.0000000  )
        11           C   tau(  11) = (  0.0000000  0.8000000  0.0000000  )
        12           C   tau(  12) = (  0.0666667  0.9333333  0.0000000  )
        13           C   tau(  13) = (  0.2000000  0.0000000  0.0000000  )
        14           C   tau(  14) = (  0.2666667  0.1333333  0.0000000  )
        15           C   tau(  15) = (  0.2000000  0.2000000  0.0000000  )
        16           C   tau(  16) = (  0.2666667  0.3333333  0.0000000  )
        17           C   tau(  17) = (  0.2000000  0.4000000  0.0000000  )
        18           C   tau(  18) = (  0.2666667  0.5333333  0.0000000  )
        19           C   tau(  19) = (  0.2000000  0.6000000  0.0000000  )
        20           C   tau(  20) = (  0.2666667  0.7333333  0.0000000  )
        21           C   tau(  21) = (  0.2000000  0.8000000  0.0000000  )
        22           C   tau(  22) = (  0.2666667  0.9333333  0.0000000  )
        23           C   tau(  23) = (  0.4000000  0.0000000  0.0000000  )
        24           C   tau(  24) = (  0.4666667  0.1333333  0.0000000  )
        25           C   tau(  25) = (  0.4000000  0.2000000  0.0000000  )
        26           C   tau(  26) = (  0.4666667  0.3333333  0.0000000  )
        27           C   tau(  27) = (  0.4000000  0.4000000  0.0000000  )
        28           Mn  tau(  28) = (  0.4666667  0.5333333  0.0000000  )
        29           C   tau(  29) = (  0.4000000  0.6000000  0.0000000  )
        30           C   tau(  30) = (  0.4666667  0.7333333  0.0000000  )
        31           C   tau(  31) = (  0.4000000  0.8000000  0.0000000  )
        32           C   tau(  32) = (  0.4666667  0.9333333  0.0000000  )
        33           C   tau(  33) = (  0.6000000  0.0000000  0.0000000  )
        34           C   tau(  34) = (  0.6666667  0.1333333  0.0000000  )
        35           C   tau(  35) = (  0.6000000  0.2000000  0.0000000  )
        36           C   tau(  36) = (  0.6666667  0.3333333  0.0000000  )
        37           C   tau(  37) = (  0.6000000  0.4000000  0.0000000  )
        38           C   tau(  38) = (  0.6666667  0.5333333  0.0000000  )
        39           C   tau(  39) = (  0.6000000  0.6000000  0.0000000  )
        40           C   tau(  40) = (  0.6666667  0.7333333  0.0000000  )
        41           C   tau(  41) = (  0.6000000  0.8000000  0.0000000  )
        42           C   tau(  42) = (  0.6666667  0.9333333  0.0000000  )
        43           C   tau(  43) = (  0.8000000  0.0000000  0.0000000  )
        44           C   tau(  44) = (  0.8666667  0.1333333  0.0000000  )
        45           C   tau(  45) = (  0.8000000  0.2000000  0.0000000  )
        46           C   tau(  46) = (  0.8666667  0.3333333  0.0000000  )
        47           C   tau(  47) = (  0.8000000  0.4000000  0.0000000  )
        48           C   tau(  48) = (  0.8666667  0.5333333  0.0000000  )
        49           C   tau(  49) = (  0.8000000  0.6000000  0.0000000  )
        50           C   tau(  50) = (  0.8666667  0.7333333  0.0000000  )
        51           C   tau(  51) = (  0.8000000  0.8000000  0.0000000  )
        52           C   tau(  52) = (  0.8666667  0.9333333  0.0000000  )

     number of k points=     1  Marzari-Vanderbilt smearing, width (Ry)=  0.0010
                       cart. coord. in units 2pi/alat
        k(    1) = (   0.0000000   0.0000000   0.0000000), wk =   1.0000000

                       cryst. coord.
        k(    1) = (   0.0000000   0.0000000   0.0000000), wk =   1.0000000

     Dense  grid:  1626001 G-vectors     FFT dimensions: ( 180, 180, 135)

     Smooth grid:   702581 G-vectors     FFT dimensions: ( 125, 125, 108)

     Dynamical RAM for                 wfc:      28.59 MB

     Dynamical RAM for     wfc (w. buffer):      85.76 MB

     Dynamical RAM for           str. fact:      12.41 MB

     Dynamical RAM for           local pot:       0.00 MB

     Dynamical RAM for          nlocal pot:      92.46 MB

     Dynamical RAM for                qrad:      19.73 MB

     Dynamical RAM for          rho,v,vnew:      58.92 MB

     Dynamical RAM for               rhoin:      19.64 MB

     Dynamical RAM for            rho*nmix:     132.32 MB

     Dynamical RAM for           G-vectors:      16.40 MB

     Dynamical RAM for          h,s,v(r/c):      12.00 MB

     Dynamical RAM for          <psi|beta>:       0.81 MB

     Dynamical RAM for                 psi:     114.35 MB

     Dynamical RAM for                hpsi:     114.35 MB

     Dynamical RAM for                spsi:     114.35 MB

     Dynamical RAM for      wfcinit/wfcrot:      93.90 MB

     Dynamical RAM for           addusdens:     975.89 MB

     Estimated static dynamical RAM per process >     488.30 MB

     Estimated max dynamical RAM per process >       1.43 GB

     Estimated total dynamical RAM >       8.58 GB
     Generating pointlists ...
     new r_m :   0.0252 (alat units)  0.5862 (a.u.) for type    1
     new r_m :   0.0476 (alat units)  1.1095 (a.u.) for type    2
     new r_m :   0.0476 (alat units)  1.1095 (a.u.) for type    3

     Check: negative core charge=   -0.000002

     Initial potential from superposition of free atoms

     starting charge  212.80506, renormalised to  213.00000

     negative rho (up, down):  8.940E-05 1.407E-02


---------------------------------------------------------------------------------
Carrying out rVV10 run using the following parameters:
Nqs =      20    Nr_points =    1024   r_max =   100.000
b_value =  6.30000    beta =  0.00901
     q_mesh =  0.00010000  0.00030000  0.00058939  0.00100810
               0.00161396  0.00249058  0.00375900  0.00559430
               0.00824984  0.01209221  0.01765183  0.02569619
               0.03733578  0.05417739  0.07854596  0.11380545
               0.16482331  0.23864234  0.34545298  0.50000000

Gradients computed in Reciprocal space

---------------------------------------------------------------------------------


     Starting wfcs are  208 randomized atomic wfcs

     total cpu time spent up to now is       81.3 secs

     Self-consistent Calculation

     iteration #  1     ecut=    70.00 Ry     beta= 0.70
     Davidson diagonalization with overlap
     ethr =  1.00E-02,  avg # of iterations =  2.5

     negative rho (up, down):  1.846E-04 1.351E-02

     total cpu time spent up to now is      210.6 secs

     total energy              =    -820.14439333 Ry
     Harris-Foulkes estimate   =    -825.30100066 Ry
     estimated scf accuracy    <      13.77549740 Ry

     total magnetization       =     7.00 Bohr mag/cell
     absolute magnetization    =     7.33 Bohr mag/cell

     iteration #  2     ecut=    70.00 Ry     beta= 0.70
     Davidson diagonalization with overlap
     ethr =  6.47E-03,  avg # of iterations =  7.0

     negative rho (up, down):  5.703E-09 8.587E-04

     total cpu time spent up to now is      335.6 secs

     total energy              =    -808.51914595 Ry
     Harris-Foulkes estimate   =    -841.11335004 Ry
     estimated scf accuracy    <     133.73422830 Ry

     total magnetization       =     5.00 Bohr mag/cell
     absolute magnetization    =     5.12 Bohr mag/cell

     iteration #  3     ecut=    70.00 Ry     beta= 0.70
     Davidson diagonalization with overlap
     ethr =  6.47E-03,  avg # of iterations =  5.5

     negative rho (up, down):  1.790E-09 6.024E-04

     total cpu time spent up to now is      521.2 secs

     total energy              =    -824.22989629 Ry
     Harris-Foulkes estimate   =    -826.51533896 Ry
     estimated scf accuracy    <      12.07929957 Ry

     total magnetization       =     5.12 Bohr mag/cell
     absolute magnetization    =     5.42 Bohr mag/cell

     iteration #  4     ecut=    70.00 Ry     beta= 0.70
     Davidson diagonalization with overlap
     ethr =  5.67E-03,  avg # of iterations =  2.0

     negative rho (up, down):  2.982E-08 4.031E-03

     total cpu time spent up to now is      614.4 secs

     total energy              =    -825.40515963 Ry
     Harris-Foulkes estimate   =    -826.14388795 Ry
     estimated scf accuracy    <       2.47536372 Ry

     total magnetization       =     1.00 Bohr mag/cell
     absolute magnetization    =     1.82 Bohr mag/cell

     iteration #  5     ecut=    70.00 Ry     beta= 0.70
     Davidson diagonalization with overlap
     ethr =  1.16E-03,  avg # of iterations =  4.0

     negative rho (up, down):  1.432E-06 2.226E-02

     total cpu time spent up to now is      720.5 secs

     total energy              =    -825.64639461 Ry
     Harris-Foulkes estimate   =    -826.04535276 Ry
     estimated scf accuracy    <       1.40337769 Ry

     total magnetization       =     1.00 Bohr mag/cell
     absolute magnetization    =     1.82 Bohr mag/cell

     iteration #  6     ecut=    70.00 Ry     beta= 0.70
     Davidson diagonalization with overlap
     ethr =  6.59E-04,  avg # of iterations =  4.0

     negative rho (up, down):  2.607E-04 4.060E-02

     total cpu time spent up to now is      818.7 secs

     total energy              =    -825.87654218 Ry
     Harris-Foulkes estimate   =    -825.94970766 Ry
     estimated scf accuracy    <       0.32233545 Ry

     total magnetization       =     1.00 Bohr mag/cell
     absolute magnetization    =     1.54 Bohr mag/cell

     iteration #  7     ecut=    70.00 Ry     beta= 0.70
     Davidson diagonalization with overlap
     ethr =  1.51E-04,  avg # of iterations =  7.0

     negative rho (up, down):  7.701E-04 2.154E-02

     total cpu time spent up to now is      920.8 secs

     total energy              =    -825.89645704 Ry
     Harris-Foulkes estimate   =    -825.94509408 Ry
     estimated scf accuracy    <       0.15074787 Ry

     total magnetization       =     1.00 Bohr mag/cell
     absolute magnetization    =     1.47 Bohr mag/cell

     iteration #  8     ecut=    70.00 Ry     beta= 0.70
     Davidson diagonalization with overlap
     ethr =  7.08E-05,  avg # of iterations =  4.0

     negative rho (up, down):  1.172E-03 3.353E-02

     total cpu time spent up to now is     1018.2 secs

     total energy              =    -825.91952713 Ry
     Harris-Foulkes estimate   =    -825.93048192 Ry
     estimated scf accuracy    <       0.04497815 Ry

     total magnetization       =     1.00 Bohr mag/cell
     absolute magnetization    =     1.50 Bohr mag/cell

     iteration #  9     ecut=    70.00 Ry     beta= 0.70
     Davidson diagonalization with overlap
     ethr =  2.11E-05,  avg # of iterations =  3.0

     negative rho (up, down):  1.069E-03 2.588E-02

     total cpu time spent up to now is     1113.5 secs

     total energy              =    -825.92317200 Ry
     Harris-Foulkes estimate   =    -825.92392096 Ry
     estimated scf accuracy    <       0.00387622 Ry

     total magnetization       =     1.00 Bohr mag/cell
     absolute magnetization    =     1.49 Bohr mag/cell

     iteration # 10     ecut=    70.00 Ry     beta= 0.70
     Davidson diagonalization with overlap
     ethr =  1.82E-06,  avg # of iterations = 13.0

     negative rho (up, down):  9.635E-04 1.805E-02

     total cpu time spent up to now is     1231.1 secs

     total energy              =    -825.92373250 Ry
     Harris-Foulkes estimate   =    -825.92401336 Ry
     estimated scf accuracy    <       0.00175135 Ry

     total magnetization       =     1.00 Bohr mag/cell
     absolute magnetization    =     1.51 Bohr mag/cell

     iteration # 11     ecut=    70.00 Ry     beta= 0.70
     Davidson diagonalization with overlap
     ethr =  8.22E-07,  avg # of iterations =  2.0

     negative rho (up, down):  8.433E-04 8.606E-03

     total cpu time spent up to now is     1325.8 secs

     total energy              =    -825.92374029 Ry
     Harris-Foulkes estimate   =    -825.92404748 Ry
     estimated scf accuracy    <       0.00273992 Ry

     total magnetization       =     1.00 Bohr mag/cell
     absolute magnetization    =     1.52 Bohr mag/cell

     iteration # 12     ecut=    70.00 Ry     beta= 0.70
     Davidson diagonalization with overlap
     ethr =  8.22E-07,  avg # of iterations =  3.0

     negative rho (up, down):  8.267E-04 7.179E-03

     total cpu time spent up to now is     1420.6 secs

     total energy              =    -825.92388197 Ry
     Harris-Foulkes estimate   =    -825.92415633 Ry
     estimated scf accuracy    <       0.00403092 Ry

     total magnetization       =     1.00 Bohr mag/cell
     absolute magnetization    =     1.53 Bohr mag/cell

     iteration # 13     ecut=    70.00 Ry     beta= 0.70
     Davidson diagonalization with overlap
     ethr =  8.22E-07,  avg # of iterations =  1.0

     negative rho (up, down):  7.973E-04 5.116E-03

     total cpu time spent up to now is     1513.1 secs

     total energy              =    -825.92407079 Ry
     Harris-Foulkes estimate   =    -825.92411557 Ry
     estimated scf accuracy    <       0.00102595 Ry

     total magnetization       =     1.00 Bohr mag/cell
     absolute magnetization    =     1.55 Bohr mag/cell

     iteration # 14     ecut=    70.00 Ry     beta= 0.70
     Davidson diagonalization with overlap
     ethr =  4.82E-07,  avg # of iterations =  1.0

     negative rho (up, down):  7.856E-04 4.342E-03

     total cpu time spent up to now is     1605.9 secs

     total energy              =    -825.92410000 Ry
     Harris-Foulkes estimate   =    -825.92411049 Ry
     estimated scf accuracy    <       0.00039244 Ry

     total magnetization       =     1.00 Bohr mag/cell
     absolute magnetization    =     1.56 Bohr mag/cell

     iteration # 15     ecut=    70.00 Ry     beta= 0.70
     Davidson diagonalization with overlap
     ethr =  1.84E-07,  avg # of iterations =  1.5

     negative rho (up, down):  7.545E-04 2.653E-03

     total cpu time spent up to now is     1698.9 secs

     total energy              =    -825.92412497 Ry
     Harris-Foulkes estimate   =    -825.92412784 Ry
     estimated scf accuracy    <       0.00020329 Ry

     total magnetization       =     1.00 Bohr mag/cell
     absolute magnetization    =     1.57 Bohr mag/cell

     iteration # 16     ecut=    70.00 Ry     beta= 0.70
     Davidson diagonalization with overlap
     ethr =  9.54E-08,  avg # of iterations =  2.5

     negative rho (up, down):  7.445E-04 2.394E-03

     total cpu time spent up to now is     1795.1 secs

     total energy              =    -825.92414115 Ry
     Harris-Foulkes estimate   =    -825.92414548 Ry
     estimated scf accuracy    <       0.00011226 Ry

     total magnetization       =     1.00 Bohr mag/cell
     absolute magnetization    =     1.58 Bohr mag/cell

     iteration # 17     ecut=    70.00 Ry     beta= 0.70
     Davidson diagonalization with overlap
     ethr =  5.27E-08,  avg # of iterations =  2.0

     negative rho (up, down):  7.346E-04 2.305E-03

     total cpu time spent up to now is     1891.7 secs

     total energy              =    -825.92415088 Ry
     Harris-Foulkes estimate   =    -825.92415341 Ry
     estimated scf accuracy    <       0.00010388 Ry

     total magnetization       =     1.00 Bohr mag/cell
     absolute magnetization    =     1.59 Bohr mag/cell

     iteration # 18     ecut=    70.00 Ry     beta= 0.70
     Davidson diagonalization with overlap
     ethr =  4.88E-08,  avg # of iterations =  2.0

     negative rho (up, down):  7.387E-04 2.328E-03

     total cpu time spent up to now is     1988.6 secs

     total energy              =    -825.92415682 Ry
     Harris-Foulkes estimate   =    -825.92416132 Ry
     estimated scf accuracy    <       0.00001789 Ry

     total magnetization       =     1.00 Bohr mag/cell
     absolute magnetization    =     1.60 Bohr mag/cell

     iteration # 19     ecut=    70.00 Ry     beta= 0.70
     Davidson diagonalization with overlap
     ethr =  8.40E-09,  avg # of iterations =  3.0

     negative rho (up, down):  7.417E-04 2.380E-03

     total cpu time spent up to now is     2094.4 secs

     total energy              =    -825.92416561 Ry
     Harris-Foulkes estimate   =    -825.92416398 Ry
     estimated scf accuracy    <       0.00007695 Ry

     total magnetization       =     1.00 Bohr mag/cell
     absolute magnetization    =     1.60 Bohr mag/cell

     iteration # 20     ecut=    70.00 Ry     beta= 0.70
     Davidson diagonalization with overlap
     ethr =  8.40E-09,  avg # of iterations =  1.5

     negative rho (up, down):  7.365E-04 2.349E-03

     total cpu time spent up to now is     2186.6 secs

     total energy              =    -825.92416098 Ry
     Harris-Foulkes estimate   =    -825.92416673 Ry
     estimated scf accuracy    <       0.00009315 Ry

     total magnetization       =     1.00 Bohr mag/cell
     absolute magnetization    =     1.61 Bohr mag/cell

     iteration # 21     ecut=    70.00 Ry     beta= 0.70
     Davidson diagonalization with overlap
     ethr =  8.40E-09,  avg # of iterations =  3.5

     negative rho (up, down):  7.380E-04 2.387E-03

     total cpu time spent up to now is     2302.3 secs

     total energy              =    -825.92416805 Ry
     Harris-Foulkes estimate   =    -825.92416842 Ry
     estimated scf accuracy    <       0.00002067 Ry

     total magnetization       =     1.00 Bohr mag/cell
     absolute magnetization    =     1.62 Bohr mag/cell

     iteration # 22     ecut=    70.00 Ry     beta= 0.70
     Davidson diagonalization with overlap
     ethr =  8.40E-09,  avg # of iterations =  1.0

     negative rho (up, down):  7.423E-04 2.418E-03

     total cpu time spent up to now is     2394.4 secs

     total energy              =    -825.92416592 Ry
     Harris-Foulkes estimate   =    -825.92416853 Ry
     estimated scf accuracy    <       0.00002140 Ry

     total magnetization       =     1.00 Bohr mag/cell
     absolute magnetization    =     1.62 Bohr mag/cell

     iteration # 23     ecut=    70.00 Ry     beta= 0.70
     Davidson diagonalization with overlap
     ethr =  8.40E-09,  avg # of iterations =  2.5

     negative rho (up, down):  7.417E-04 2.419E-03

     total cpu time spent up to now is     2499.0 secs

     total energy              =    -825.92416913 Ry
     Harris-Foulkes estimate   =    -825.92417056 Ry
     estimated scf accuracy    <       0.00001145 Ry

     total magnetization       =     1.00 Bohr mag/cell
     absolute magnetization    =     1.62 Bohr mag/cell

     iteration # 24     ecut=    70.00 Ry     beta= 0.70
     Davidson diagonalization with overlap
     ethr =  5.38E-09,  avg # of iterations =  2.0

     negative rho (up, down):  7.415E-04 2.423E-03

     total cpu time spent up to now is     2591.9 secs

     total energy              =    -825.92416963 Ry
     Harris-Foulkes estimate   =    -825.92417011 Ry
     estimated scf accuracy    <       0.00000580 Ry

     total magnetization       =     1.00 Bohr mag/cell
     absolute magnetization    =     1.62 Bohr mag/cell

     iteration # 25     ecut=    70.00 Ry     beta= 0.70
     Davidson diagonalization with overlap
     ethr =  2.72E-09,  avg # of iterations =  2.5

     negative rho (up, down):  7.422E-04 2.432E-03

     total cpu time spent up to now is     2686.7 secs

     total energy              =    -825.92416990 Ry
     Harris-Foulkes estimate   =    -825.92417049 Ry
     estimated scf accuracy    <       0.00000501 Ry

     total magnetization       =     1.00 Bohr mag/cell
     absolute magnetization    =     1.62 Bohr mag/cell

     iteration # 26     ecut=    70.00 Ry     beta= 0.70
     Davidson diagonalization with overlap
     ethr =  2.35E-09,  avg # of iterations =  2.0

     negative rho (up, down):  7.424E-04 2.438E-03

     Magnetic moment per site:
     atom:    1    charge:    0.2109    magn:   -0.0004    constr:    0.0000
     atom:    2    charge:    0.2109    magn:   -0.0004    constr:    0.0000
     atom:    3    charge:    1.7156    magn:   -0.0059    constr:    0.0000
     atom:    4    charge:    1.7170    magn:    0.0053    constr:    0.0000
     atom:    5    charge:    1.7167    magn:   -0.0046    constr:    0.0000
     atom:    6    charge:    1.7150    magn:    0.0033    constr:    0.0000
     atom:    7    charge:    1.7172    magn:   -0.0054    constr:    0.0000
     atom:    8    charge:    1.7156    magn:    0.0139    constr:    0.0000
     atom:    9    charge:    1.7170    magn:   -0.0080    constr:    0.0000
     atom:   10    charge:    1.7151    magn:    0.0528    constr:    0.0000
     atom:   11    charge:    1.7159    magn:   -0.0090    constr:    0.0000
     atom:   12    charge:    1.7196    magn:    0.0202    constr:    0.0000
     atom:   13    charge:    1.7153    magn:   -0.0087    constr:    0.0000
     atom:   14    charge:    1.7164    magn:    0.0403    constr:    0.0000
     atom:   15    charge:    1.7135    magn:   -0.0083    constr:    0.0000
     atom:   16    charge:    1.7168    magn:    0.0402    constr:    0.0000
     atom:   17    charge:    1.7216    magn:   -0.0088    constr:    0.0000
     atom:   18    charge:    1.7178    magn:    0.0334    constr:    0.0000
     atom:   19    charge:    1.7125    magn:   -0.0043    constr:    0.0000
     atom:   20    charge:    1.7192    magn:    0.0153    constr:    0.0000
     atom:   21    charge:    1.7159    magn:   -0.0090    constr:    0.0000
     atom:   22    charge:    1.7196    magn:    0.0203    constr:    0.0000
     atom:   23    charge:    1.7156    magn:   -0.0060    constr:    0.0000
     atom:   24    charge:    1.7170    magn:    0.0053    constr:    0.0000
     atom:   25    charge:    1.7135    magn:   -0.0083    constr:    0.0000
     atom:   26    charge:    1.7168    magn:    0.0402    constr:    0.0000
     atom:   27    charge:    1.8713    magn:   -0.0100    constr:    0.0000
     atom:   28    charge:   10.0466    magn:    0.1880    constr:    0.0000
     atom:   29    charge:    1.8691    magn:   -0.0091    constr:    0.0000
     atom:   30    charge:    1.7206    magn:    0.0071    constr:    0.0000
     atom:   31    charge:    1.7122    magn:   -0.0044    constr:    0.0000
     atom:   32    charge:    1.7162    magn:    0.0086    constr:    0.0000
     atom:   33    charge:    1.7169    magn:   -0.0044    constr:    0.0000
     atom:   34    charge:    1.7159    magn:    0.0050    constr:    0.0000
     atom:   35    charge:    1.7167    magn:   -0.0046    constr:    0.0000
     atom:   36    charge:    1.7150    magn:    0.0033    constr:    0.0000
     atom:   37    charge:    1.7216    magn:   -0.0088    constr:    0.0000
     atom:   38    charge:    1.7178    magn:    0.0334    constr:    0.0000
     atom:   39    charge:    1.8691    magn:   -0.0091    constr:    0.0000
     atom:   40    charge:    1.7206    magn:    0.0071    constr:    0.0000
     atom:   41    charge:    1.7198    magn:   -0.0042    constr:    0.0000
     atom:   42    charge:    1.7147    magn:    0.0031    constr:    0.0000
     atom:   43    charge:    1.7169    magn:   -0.0044    constr:    0.0000
     atom:   44    charge:    1.7159    magn:    0.0050    constr:    0.0000
     atom:   45    charge:    1.7207    magn:   -0.0051    constr:    0.0000
     atom:   46    charge:    1.7152    magn:    0.0104    constr:    0.0000
     atom:   47    charge:    1.7172    magn:   -0.0054    constr:    0.0000
     atom:   48    charge:    1.7156    magn:    0.0139    constr:    0.0000
     atom:   49    charge:    1.7125    magn:   -0.0043    constr:    0.0000
     atom:   50    charge:    1.7192    magn:    0.0153    constr:    0.0000
     atom:   51    charge:    1.7122    magn:   -0.0045    constr:    0.0000
     atom:   52    charge:    1.7162    magn:    0.0086    constr:    0.0000

     total cpu time spent up to now is     2779.7 secs

     End of self-consistent calculation

 ------ SPIN UP ------------


          k = 0.0000 0.0000 0.0000 ( 87777 PWs)   bands (ev):

   -80.4915 -50.1804 -49.9803 -48.8593 -19.6221 -18.8030 -18.7705 -18.6995
   -18.6919 -18.6639 -18.4202 -16.9661 -16.9413 -16.9052 -16.8620 -16.8500
   -16.5365 -16.0990 -16.0791 -15.9812 -15.9474 -15.9439 -15.3053 -14.0327
   -13.9674 -13.9279 -13.8355 -13.8270 -13.2640 -12.9297 -12.9140 -12.8899
   -12.6244 -12.6214 -12.1777 -11.7261 -11.7226 -11.5243 -11.2695 -11.2652
   -10.7448 -10.1441  -9.6144  -9.5978  -9.3379  -9.1640  -9.1613  -9.0551
    -9.0342  -9.0243  -9.0213  -8.5662  -8.5626  -8.0843  -8.0705  -7.8932
    -7.7350  -7.6914  -7.2943  -7.2688  -7.2141  -7.1934  -7.0937  -6.8018
    -6.7968  -6.6934  -6.6527  -6.6348  -6.6030  -6.4108  -6.4057  -6.3753
    -6.3707  -6.3536  -6.3359  -6.2899  -5.7040  -5.6928  -5.4160  -5.4008
    -5.1981  -5.1888  -4.9853  -4.8235  -4.7502  -4.6092  -4.5923  -4.5561
    -4.2077  -4.1855  -4.1660  -4.1006  -4.0751  -3.7169  -3.6948  -3.6264
    -3.5245  -3.5126  -2.9794  -2.6606  -2.6460  -1.7469  -1.6494  -1.6448
    -0.9997  -0.8682  -0.8370   0.3119   1.0433   1.1018   1.1122   1.6794
     1.7208   1.8558   2.3240   2.4618   2.8245   2.9241   2.9287   2.9964
     3.5296   3.5470   3.5734   3.6318   3.6534   3.7709   3.7910   3.8229

     occupation numbers 
     1.0000   1.0000   1.0000   1.0000   1.0000   1.0000   1.0000   1.0000
     1.0000   1.0000   1.0000   1.0000   1.0000   1.0000   1.0000   1.0000
     1.0000   1.0000   1.0000   1.0000   1.0000   1.0000   1.0000   1.0000
     1.0000   1.0000   1.0000   1.0000   1.0000   1.0000   1.0000   1.0000
     1.0000   1.0000   1.0000   1.0000   1.0000   1.0000   1.0000   1.0000
     1.0000   1.0000   1.0000   1.0000   1.0000   1.0000   1.0000   1.0000
     1.0000   1.0000   1.0000   1.0000   1.0000   1.0000   1.0000   1.0000
     1.0000   1.0000   1.0000   1.0000   1.0000   1.0000   1.0000   1.0000
     1.0000   1.0000   1.0000   1.0000   1.0000   1.0000   1.0000   1.0000
     1.0000   1.0000   1.0000   1.0000   1.0000   1.0000   1.0000   1.0000
     1.0000   1.0000   1.0000   1.0000   1.0000   1.0000   1.0000   1.0000
     1.0000   1.0000   1.0000   1.0000   1.0000   1.0000   1.0000   1.0000
     1.0000   1.0000   1.0000   1.0000   1.0000   1.0000   1.0000   1.0000
     1.0000   1.0000   1.0000   0.0000   0.0000   0.0000   0.0000   0.0000
     0.0000   0.0000   0.0000   0.0000   0.0000   0.0000   0.0000   0.0000
     0.0000   0.0000   0.0000   0.0000   0.0000   0.0000   0.0000   0.0000

 ------ SPIN DOWN ----------


          k = 0.0000 0.0000 0.0000 ( 87777 PWs)   bands (ev):

   -80.1803 -49.8393 -49.8226 -48.4589 -19.6010 -18.7684 -18.7472 -18.6889
   -18.6843 -18.6438 -18.3922 -16.9393 -16.9217 -16.8978 -16.8324 -16.8272
   -16.5222 -16.0694 -16.0621 -15.9664 -15.9276 -15.9221 -15.2926 -13.9856
   -13.9450 -13.9003 -13.8300 -13.8191 -13.2696 -12.9125 -12.9031 -12.8747
   -12.6156 -12.6112 -12.1619 -11.7106 -11.7032 -11.5121 -11.2576 -11.2545
   -10.7364 -10.1311  -9.5906  -9.5801  -9.3221  -9.1474  -9.1448  -9.0462
    -9.0196  -9.0163  -9.0131  -8.5600  -8.5562  -8.0683  -8.0551  -7.8836
    -7.6878  -7.6833  -7.2816  -7.2569  -7.1481  -7.0872  -7.0765  -6.7853
    -6.7774  -6.6548  -6.6343  -6.5958  -6.5870  -6.3990  -6.3959  -6.3713
    -6.3647  -6.3483  -6.3258  -6.2200  -5.6571  -5.5752  -5.3955  -5.3853
    -5.1771  -5.1695  -4.9404  -4.8149  -4.7467  -4.5563  -4.5357  -4.5307
    -4.1704  -4.1453  -4.1307  -4.0364  -4.0310  -3.6378  -3.6340  -3.5909
    -3.5157  -3.5051  -2.9478  -2.5834  -2.5408  -1.6676  -1.6354  -1.6266
    -0.8544  -0.7005  -0.6842   0.4119   1.1127   1.1272   1.1399   1.7683
     1.7761   1.9089   2.3662   2.4702   2.8896   2.9910   3.0036   3.0339
     3.5644   3.5971   3.6335   3.6690   3.6864   3.7779   3.7947   3.8303

     occupation numbers 
     1.0000   1.0000   1.0000   1.0000   1.0000   1.0000   1.0000   1.0000
     1.0000   1.0000   1.0000   1.0000   1.0000   1.0000   1.0000   1.0000
     1.0000   1.0000   1.0000   1.0000   1.0000   1.0000   1.0000   1.0000
     1.0000   1.0000   1.0000   1.0000   1.0000   1.0000   1.0000   1.0000
     1.0000   1.0000   1.0000   1.0000   1.0000   1.0000   1.0000   1.0000
     1.0000   1.0000   1.0000   1.0000   1.0000   1.0000   1.0000   1.0000
     1.0000   1.0000   1.0000   1.0000   1.0000   1.0000   1.0000   1.0000
     1.0000   1.0000   1.0000   1.0000   1.0000   1.0000   1.0000   1.0000
     1.0000   1.0000   1.0000   1.0000   1.0000   1.0000   1.0000   1.0000
     1.0000   1.0000   1.0000   1.0000   1.0000   1.0000   1.0000   1.0000
     1.0000   1.0000   1.0000   1.0000   1.0000   1.0000   1.0000   1.0000
     1.0000   1.0000   1.0000   1.0000   1.0000   1.0000   1.0000   1.0000
     1.0000   1.0000   1.0000   1.0000   1.0000   1.0000   1.0000   1.0000
     1.0000   0.8752   0.1248   0.0000   0.0000   0.0000   0.0000   0.0000
     0.0000   0.0000   0.0000   0.0000   0.0000   0.0000   0.0000   0.0000
     0.0000   0.0000   0.0000   0.0000   0.0000   0.0000   0.0000   0.0000

     the Fermi energy is    -0.6915 ev

!    total energy              =    -825.92417023 Ry
     Harris-Foulkes estimate   =    -825.92417040 Ry
     estimated scf accuracy    <       0.00000045 Ry

     The total energy is the sum of the following terms:

     one-electron contribution =   -2760.42079601 Ry
     hartree contribution      =    1425.59702157 Ry
     xc contribution           =    -259.78753911 Ry
     ewald contribution        =     768.68726561 Ry
     smearing contrib. (-TS)   =      -0.00012230 Ry

     total magnetization       =     1.00 Bohr mag/cell
     absolute magnetization    =     1.62 Bohr mag/cell

     convergence has been achieved in  26 iterations

     Writing output data file manganeso-top-distance-1.75.save/

     init_run     :     78.88s CPU     80.20s WALL (       1 calls)
     electrons    :   2651.48s CPU   2698.51s WALL (       1 calls)

     Called by init_run:
     wfcinit      :     43.09s CPU     43.36s WALL (       1 calls)
     wfcinit:atom :      0.05s CPU      0.09s WALL (       2 calls)
     wfcinit:wfcr :     42.69s CPU     42.86s WALL (       2 calls)
     potinit      :     14.87s CPU     15.31s WALL (       1 calls)
     hinit0       :     12.32s CPU     12.37s WALL (       1 calls)

     Called by electrons:
     c_bands      :   1721.96s CPU   1732.20s WALL (      26 calls)
     sum_band     :    537.93s CPU    553.24s WALL (      26 calls)
     v_of_rho     :    197.30s CPU    206.05s WALL (      27 calls)
     v_h          :      2.07s CPU      2.13s WALL (      27 calls)
     v_xc         :    195.22s CPU    203.91s WALL (      27 calls)
     newd         :    190.62s CPU    203.79s WALL (      27 calls)
     mix_rho      :     12.01s CPU     12.24s WALL (      26 calls)

     Called by c_bands:
     init_us_2    :      5.03s CPU      5.06s WALL (     106 calls)
     cegterg      :   1709.07s CPU   1719.24s WALL (      52 calls)

     Called by sum_band:
     sum_band:bec :      0.04s CPU      0.04s WALL (      52 calls)
     addusdens    :    326.62s CPU    340.66s WALL (      26 calls)

     Called by *egterg:
     h_psi        :    905.36s CPU    912.37s WALL (     224 calls)
     s_psi        :    305.87s CPU    306.14s WALL (     224 calls)
     g_psi        :      0.96s CPU      0.96s WALL (     170 calls)
     cdiaghg      :     16.54s CPU     16.55s WALL (     222 calls)
     cegterg:over :    203.03s CPU    203.19s WALL (     170 calls)
     cegterg:upda :    125.54s CPU    126.40s WALL (     170 calls)
     cegterg:last :     99.20s CPU     99.25s WALL (      54 calls)

     Called by h_psi:
     h_psi:pot    :    904.42s CPU    910.32s WALL (     224 calls)
     h_psi:calbec :    306.32s CPU    306.57s WALL (     224 calls)
     vloc_psi     :    291.56s CPU    297.00s WALL (     224 calls)
     add_vuspsi   :    306.54s CPU    306.75s WALL (     224 calls)

     General routines
     calbec       :    435.55s CPU    435.90s WALL (     276 calls)
     fft          :    115.68s CPU    119.32s WALL (    2019 calls)
     ffts         :      1.98s CPU      2.07s WALL (     106 calls)
     fftw         :    309.10s CPU    314.94s WALL (   38082 calls)
     interpolate  :      4.69s CPU      4.89s WALL (      54 calls)

     Parallel routines
     fft_scatt_xy :     76.75s CPU     77.83s WALL (   40207 calls)
     fft_scatt_yz :    145.92s CPU    152.84s WALL (   40207 calls)

     PWSCF        :  45m31.64s CPU  46m20.40s WALL


   This run was terminated on:   6:42:51  23Jan2023            

=------------------------------------------------------------------------------=
   JOB DONE.
=------------------------------------------------------------------------------=
