
     Program PWSCF v.6.4.1 starts on 22Jan2023 at 13:55:53 

     This program is part of the open-source Quantum ESPRESSO suite
     for quantum simulation of materials; please cite
         "P. Giannozzi et al., J. Phys.:Condens. Matter 21 395502 (2009);
         "P. Giannozzi et al., J. Phys.:Condens. Matter 29 465901 (2017);
          URL http://www.quantum-espresso.org", 
     in publications or presentations arising from this work. More details at
     http://www.quantum-espresso.org/quote

     Parallel version (MPI), running on     6 processors

     MPI processes distributed on     1 nodes
     R & G space division:  proc/nbgrp/npool/nimage =       6
     Reading input from distance-2.4.in

     Current dimensions of program PWSCF are:
     Max number of different atomic species (ntypx) = 10
     Max number of k-points (npk) =  40000
     Max angular momentum in pseudopotentials (lmaxx) =  3

     IMPORTANT: XC functional enforced from input :
     Exchange-correlation      = RVV10 ( 1  4 13  4 3 0)
     Any further DFT definition will be discarded
     Please, verify this is what you really want

               file H.pbe-rrkjus.UPF: wavefunction(s)  1S renormalized
               file Mn.pbe-spn-rrkjus_psl.0.3.1.UPF: wavefunction(s)  3D renormalized

     Subspace diagonalization in iterative solution of the eigenvalue problem:
     a serial algorithm will be used


     Parallelization info
     --------------------
     sticks:   dense  smooth     PW     G-vecs:    dense   smooth      PW
     Min        3051    1746    432               270999   117096   14629
     Max        3053    1747    437               271001   117099   14630
     Sum       18313   10477   2611              1626001   702581   87777



     bravais-lattice index     =            4
     lattice parameter (alat)  =      23.2937  a.u.
     unit-cell volume          =    8879.8548 (a.u.)^3
     number of atoms/cell      =           52
     number of atomic types    =            3
     number of electrons       =       213.00
     number of Kohn-Sham states=          128
     kinetic-energy cutoff     =      70.0000  Ry
     charge density cutoff     =     490.0000  Ry
     convergence threshold     =      1.0E-06
     mixing beta               =       0.7000
     number of iterations used =            8  plain     mixing
     Exchange-correlation      = RVV10 ( 1  4 13  4 3 0)

     celldm(1)=  23.293684  celldm(2)=   0.000000  celldm(3)=   0.811261
     celldm(4)=   0.000000  celldm(5)=   0.000000  celldm(6)=   0.000000

     crystal axes: (cart. coord. in units of alat)
               a(1) = (   1.000000   0.000000   0.000000 )  
               a(2) = (  -0.500000   0.866025   0.000000 )  
               a(3) = (   0.000000   0.000000   0.811261 )  

     reciprocal axes: (cart. coord. in units 2 pi/alat)
               b(1) = (  1.000000  0.577350 -0.000000 )  
               b(2) = (  0.000000  1.154701  0.000000 )  
               b(3) = (  0.000000 -0.000000  1.232649 )  


     PseudoPot. # 1 for H  read from file:
     /home/cristian/Escritorio/Proyecto_Grafeno/pseudopotenciales/H.pbe-rrkjus.UPF
     MD5 check sum: 7cc9d459525c9a0585f487a71c3c9563
     Pseudo is Ultrasoft, Zval =  1.0
     Generated by new atomic code, or converted to UPF format
     Using radial grid of 1061 points,  2 beta functions with: 
                l(1) =   0
                l(2) =   0
     Q(r) pseudized with 0 coefficients 


     PseudoPot. # 2 for C  read from file:
     /home/cristian/Escritorio/Proyecto_Grafeno/pseudopotenciales/C.pbe-n-rrkjus_psl.1.0.0.UPF
     MD5 check sum: 1fdd950c42eb37d8afe3dd2f8d12311e
     Pseudo is Ultrasoft + core correction, Zval =  4.0
     Generated using "atomic" code by A. Dal Corso v.6.3MaX
     Using radial grid of 1073 points,  4 beta functions with: 
                l(1) =   0
                l(2) =   0
                l(3) =   1
                l(4) =   1
     Q(r) pseudized with 0 coefficients 


     PseudoPot. # 3 for Mn read from file:
     /home/cristian/Escritorio/Proyecto_Grafeno/pseudopotenciales/Mn.pbe-spn-rrkjus_psl.0.3.1.UPF
     MD5 check sum: e1cac159bdd2ba70c18e85765a5d4279
     Pseudo is Ultrasoft + core correction, Zval = 15.0
     Generated using "atomic" code by A. Dal Corso v.6.2.2
     Using radial grid of 1187 points,  6 beta functions with: 
                l(1) =   0
                l(2) =   0
                l(3) =   1
                l(4) =   1
                l(5) =   2
                l(6) =   2
     Q(r) pseudized with 0 coefficients 


     vdW kernel table read from file rVV10_kernel_table
     MD5 check sum: b8e2538accc0c0b3206b45ba4daaba6c

     atomic species   valence    mass     pseudopotential
        H              1.00     1.00794     H ( 1.00)
        C              4.00    12.01070     C ( 1.00)
        Mn            15.00    54.93804     Mn( 1.00)

     Starting magnetic structure 
     atomic species   magnetization
        H            0.500
        C            0.300
        Mn           0.800

     No symmetry found


                                    s                        frac. trans.

      isym =  1     identity                                     

 cryst.   s( 1) = (     1          0          0      )
                  (     0          1          0      )
                  (     0          0          1      )

 cart.    s( 1) = (  1.0000000  0.0000000  0.0000000 )
                  (  0.0000000  1.0000000  0.0000000 )
                  (  0.0000000  0.0000000  1.0000000 )


     point group C_1 (1)    
     there are  1 classes
     the character table:

       E    
A      1.00

     the symmetry operations in each class and the name of the first element:

     E        1
          identity                                               

   Cartesian axes

     site n.     atom                  positions (alat units)
         1           H   tau(   1) = (   0.1694937   0.4618802   0.1947027  )
         2           H   tau(   2) = (   0.2305063   0.4618802   0.1947027  )
         3           C   tau(   3) = (   0.0000000   0.0000000   0.0000000  )
         4           C   tau(   4) = (   0.0000000   0.1154701   0.0000000  )
         5           C   tau(   5) = (  -0.1000000   0.1732051   0.0000000  )
         6           C   tau(   6) = (  -0.1000000   0.2886751   0.0000000  )
         7           C   tau(   7) = (  -0.2000000   0.3464102   0.0000000  )
         8           C   tau(   8) = (  -0.2000000   0.4618802   0.0000000  )
         9           C   tau(   9) = (  -0.3000000   0.5196152   0.0000000  )
        10           C   tau(  10) = (  -0.3000000   0.6350853   0.0000000  )
        11           C   tau(  11) = (  -0.4000000   0.6928203   0.0000000  )
        12           C   tau(  12) = (  -0.4000000   0.8082904   0.0000000  )
        13           C   tau(  13) = (   0.2000000   0.0000000   0.0000000  )
        14           C   tau(  14) = (   0.2000000   0.1154701   0.0000000  )
        15           C   tau(  15) = (   0.1000000   0.1732051   0.0000000  )
        16           C   tau(  16) = (   0.1000000   0.2886751   0.0000000  )
        17           C   tau(  17) = (   0.0000000   0.3464102   0.0000000  )
        18           C   tau(  18) = (   0.0000000   0.4618802   0.0000000  )
        19           C   tau(  19) = (  -0.1000000   0.5196152   0.0000000  )
        20           C   tau(  20) = (  -0.1000000   0.6350853   0.0000000  )
        21           C   tau(  21) = (  -0.2000000   0.6928203   0.0000000  )
        22           C   tau(  22) = (  -0.2000000   0.8082904   0.0000000  )
        23           C   tau(  23) = (   0.4000000   0.0000000   0.0000000  )
        24           C   tau(  24) = (   0.4000000   0.1154701   0.0000000  )
        25           C   tau(  25) = (   0.3000000   0.1732051   0.0000000  )
        26           C   tau(  26) = (   0.3000000   0.2886751   0.0000000  )
        27           C   tau(  27) = (   0.2000000   0.3464102   0.0000000  )
        28           Mn  tau(  28) = (   0.2000000   0.4618802   0.0000000  )
        29           C   tau(  29) = (   0.1000000   0.5196152   0.0000000  )
        30           C   tau(  30) = (   0.1000000   0.6350853   0.0000000  )
        31           C   tau(  31) = (   0.0000000   0.6928203   0.0000000  )
        32           C   tau(  32) = (   0.0000000   0.8082904   0.0000000  )
        33           C   tau(  33) = (   0.6000000   0.0000000   0.0000000  )
        34           C   tau(  34) = (   0.6000000   0.1154701   0.0000000  )
        35           C   tau(  35) = (   0.5000000   0.1732051   0.0000000  )
        36           C   tau(  36) = (   0.5000000   0.2886751   0.0000000  )
        37           C   tau(  37) = (   0.4000000   0.3464102   0.0000000  )
        38           C   tau(  38) = (   0.4000000   0.4618802   0.0000000  )
        39           C   tau(  39) = (   0.3000000   0.5196152   0.0000000  )
        40           C   tau(  40) = (   0.3000000   0.6350853   0.0000000  )
        41           C   tau(  41) = (   0.2000000   0.6928203   0.0000000  )
        42           C   tau(  42) = (   0.2000000   0.8082904   0.0000000  )
        43           C   tau(  43) = (   0.8000000   0.0000000   0.0000000  )
        44           C   tau(  44) = (   0.8000000   0.1154701   0.0000000  )
        45           C   tau(  45) = (   0.7000000   0.1732051   0.0000000  )
        46           C   tau(  46) = (   0.7000000   0.2886751   0.0000000  )
        47           C   tau(  47) = (   0.6000000   0.3464102   0.0000000  )
        48           C   tau(  48) = (   0.6000000   0.4618802   0.0000000  )
        49           C   tau(  49) = (   0.5000000   0.5196152   0.0000000  )
        50           C   tau(  50) = (   0.5000000   0.6350853   0.0000000  )
        51           C   tau(  51) = (   0.4000000   0.6928203   0.0000000  )
        52           C   tau(  52) = (   0.4000000   0.8082904   0.0000000  )

   Crystallographic axes

     site n.     atom                  positions (cryst. coord.)
         1           H   tau(   1) = (  0.4361603  0.5333333  0.2400000  )
         2           H   tau(   2) = (  0.4971730  0.5333333  0.2400000  )
         3           C   tau(   3) = (  0.0000000  0.0000000  0.0000000  )
         4           C   tau(   4) = (  0.0666667  0.1333333  0.0000000  )
         5           C   tau(   5) = (  0.0000000  0.2000000  0.0000000  )
         6           C   tau(   6) = (  0.0666667  0.3333333  0.0000000  )
         7           C   tau(   7) = (  0.0000000  0.4000000  0.0000000  )
         8           C   tau(   8) = (  0.0666667  0.5333333  0.0000000  )
         9           C   tau(   9) = (  0.0000000  0.6000000  0.0000000  )
        10           C   tau(  10) = (  0.0666667  0.7333333  0.0000000  )
        11           C   tau(  11) = (  0.0000000  0.8000000  0.0000000  )
        12           C   tau(  12) = (  0.0666667  0.9333333  0.0000000  )
        13           C   tau(  13) = (  0.2000000  0.0000000  0.0000000  )
        14           C   tau(  14) = (  0.2666667  0.1333333  0.0000000  )
        15           C   tau(  15) = (  0.2000000  0.2000000  0.0000000  )
        16           C   tau(  16) = (  0.2666667  0.3333333  0.0000000  )
        17           C   tau(  17) = (  0.2000000  0.4000000  0.0000000  )
        18           C   tau(  18) = (  0.2666667  0.5333333  0.0000000  )
        19           C   tau(  19) = (  0.2000000  0.6000000  0.0000000  )
        20           C   tau(  20) = (  0.2666667  0.7333333  0.0000000  )
        21           C   tau(  21) = (  0.2000000  0.8000000  0.0000000  )
        22           C   tau(  22) = (  0.2666667  0.9333333  0.0000000  )
        23           C   tau(  23) = (  0.4000000  0.0000000  0.0000000  )
        24           C   tau(  24) = (  0.4666667  0.1333333  0.0000000  )
        25           C   tau(  25) = (  0.4000000  0.2000000  0.0000000  )
        26           C   tau(  26) = (  0.4666667  0.3333333  0.0000000  )
        27           C   tau(  27) = (  0.4000000  0.4000000  0.0000000  )
        28           Mn  tau(  28) = (  0.4666667  0.5333333  0.0000000  )
        29           C   tau(  29) = (  0.4000000  0.6000000  0.0000000  )
        30           C   tau(  30) = (  0.4666667  0.7333333  0.0000000  )
        31           C   tau(  31) = (  0.4000000  0.8000000  0.0000000  )
        32           C   tau(  32) = (  0.4666667  0.9333333  0.0000000  )
        33           C   tau(  33) = (  0.6000000  0.0000000  0.0000000  )
        34           C   tau(  34) = (  0.6666667  0.1333333  0.0000000  )
        35           C   tau(  35) = (  0.6000000  0.2000000  0.0000000  )
        36           C   tau(  36) = (  0.6666667  0.3333333  0.0000000  )
        37           C   tau(  37) = (  0.6000000  0.4000000  0.0000000  )
        38           C   tau(  38) = (  0.6666667  0.5333333  0.0000000  )
        39           C   tau(  39) = (  0.6000000  0.6000000  0.0000000  )
        40           C   tau(  40) = (  0.6666667  0.7333333  0.0000000  )
        41           C   tau(  41) = (  0.6000000  0.8000000  0.0000000  )
        42           C   tau(  42) = (  0.6666667  0.9333333  0.0000000  )
        43           C   tau(  43) = (  0.8000000  0.0000000  0.0000000  )
        44           C   tau(  44) = (  0.8666667  0.1333333  0.0000000  )
        45           C   tau(  45) = (  0.8000000  0.2000000  0.0000000  )
        46           C   tau(  46) = (  0.8666667  0.3333333  0.0000000  )
        47           C   tau(  47) = (  0.8000000  0.4000000  0.0000000  )
        48           C   tau(  48) = (  0.8666667  0.5333333  0.0000000  )
        49           C   tau(  49) = (  0.8000000  0.6000000  0.0000000  )
        50           C   tau(  50) = (  0.8666667  0.7333333  0.0000000  )
        51           C   tau(  51) = (  0.8000000  0.8000000  0.0000000  )
        52           C   tau(  52) = (  0.8666667  0.9333333  0.0000000  )

     number of k points=     1  Marzari-Vanderbilt smearing, width (Ry)=  0.0010
                       cart. coord. in units 2pi/alat
        k(    1) = (   0.0000000   0.0000000   0.0000000), wk =   1.0000000

                       cryst. coord.
        k(    1) = (   0.0000000   0.0000000   0.0000000), wk =   1.0000000

     Dense  grid:  1626001 G-vectors     FFT dimensions: ( 180, 180, 135)

     Smooth grid:   702581 G-vectors     FFT dimensions: ( 125, 125, 108)

     Dynamical RAM for                 wfc:      28.59 MB

     Dynamical RAM for     wfc (w. buffer):      85.76 MB

     Dynamical RAM for           str. fact:      12.41 MB

     Dynamical RAM for           local pot:       0.00 MB

     Dynamical RAM for          nlocal pot:      92.46 MB

     Dynamical RAM for                qrad:      19.73 MB

     Dynamical RAM for          rho,v,vnew:      58.92 MB

     Dynamical RAM for               rhoin:      19.64 MB

     Dynamical RAM for            rho*nmix:     132.32 MB

     Dynamical RAM for           G-vectors:      16.40 MB

     Dynamical RAM for          h,s,v(r/c):      12.00 MB

     Dynamical RAM for          <psi|beta>:       0.81 MB

     Dynamical RAM for                 psi:     114.35 MB

     Dynamical RAM for                hpsi:     114.35 MB

     Dynamical RAM for                spsi:     114.35 MB

     Dynamical RAM for      wfcinit/wfcrot:      93.90 MB

     Dynamical RAM for           addusdens:     975.89 MB

     Estimated static dynamical RAM per process >     488.30 MB

     Estimated max dynamical RAM per process >       1.43 GB

     Estimated total dynamical RAM >       8.58 GB
     Generating pointlists ...
     new r_m :   0.0252 (alat units)  0.5862 (a.u.) for type    1
     new r_m :   0.0476 (alat units)  1.1095 (a.u.) for type    2
     new r_m :   0.0476 (alat units)  1.1095 (a.u.) for type    3

     Check: negative core charge=   -0.000002

     Initial potential from superposition of free atoms

     starting charge  212.80506, renormalised to  213.00000

     negative rho (up, down):  7.627E-05 1.164E-02


---------------------------------------------------------------------------------
Carrying out rVV10 run using the following parameters:
Nqs =      20    Nr_points =    1024   r_max =   100.000
b_value =  6.30000    beta =  0.00901
     q_mesh =  0.00010000  0.00030000  0.00058939  0.00100810
               0.00161396  0.00249058  0.00375900  0.00559430
               0.00824984  0.01209221  0.01765183  0.02569619
               0.03733578  0.05417739  0.07854596  0.11380545
               0.16482331  0.23864234  0.34545298  0.50000000

Gradients computed in Reciprocal space

---------------------------------------------------------------------------------


     Starting wfcs are  208 randomized atomic wfcs

     total cpu time spent up to now is       83.0 secs

     Self-consistent Calculation

     iteration #  1     ecut=    70.00 Ry     beta= 0.70
     Davidson diagonalization with overlap
     ethr =  1.00E-02,  avg # of iterations =  2.5

     negative rho (up, down):  1.553E-04 1.100E-02

     total cpu time spent up to now is      213.1 secs

     total energy              =    -821.54122129 Ry
     Harris-Foulkes estimate   =    -825.03617213 Ry
     estimated scf accuracy    <      11.80327931 Ry

     total magnetization       =     7.00 Bohr mag/cell
     absolute magnetization    =     7.33 Bohr mag/cell

     iteration #  2     ecut=    70.00 Ry     beta= 0.70
     Davidson diagonalization with overlap
     ethr =  5.54E-03,  avg # of iterations =  7.5

     negative rho (up, down):  1.941E-04 1.177E-02

     total cpu time spent up to now is      337.9 secs

     total energy              =    -811.92352268 Ry
     Harris-Foulkes estimate   =    -835.96918511 Ry
     estimated scf accuracy    <     100.05379521 Ry

     total magnetization       =     3.00 Bohr mag/cell
     absolute magnetization    =     3.24 Bohr mag/cell

     iteration #  3     ecut=    70.00 Ry     beta= 0.70
     Davidson diagonalization with overlap
     ethr =  5.54E-03,  avg # of iterations =  5.0

     negative rho (up, down):  2.420E-04 8.893E-03

     total cpu time spent up to now is      525.4 secs

     total energy              =    -824.33013887 Ry
     Harris-Foulkes estimate   =    -826.93149992 Ry
     estimated scf accuracy    <      14.22250062 Ry

     total magnetization       =     3.99 Bohr mag/cell
     absolute magnetization    =     4.29 Bohr mag/cell

     iteration #  4     ecut=    70.00 Ry     beta= 0.70
     Davidson diagonalization with overlap
     ethr =  5.54E-03,  avg # of iterations =  2.5

     negative rho (up, down):  2.830E-04 1.074E-02

     total cpu time spent up to now is      621.3 secs

     total energy              =    -825.32119068 Ry
     Harris-Foulkes estimate   =    -826.40607630 Ry
     estimated scf accuracy    <       3.03075906 Ry

     total magnetization       =     3.00 Bohr mag/cell
     absolute magnetization    =     3.45 Bohr mag/cell

     iteration #  5     ecut=    70.00 Ry     beta= 0.70
     Davidson diagonalization with overlap
     ethr =  1.42E-03,  avg # of iterations =  3.5

     negative rho (up, down):  3.742E-04 1.812E-02

     total cpu time spent up to now is      731.4 secs

     total energy              =    -825.73635569 Ry
     Harris-Foulkes estimate   =    -826.01244464 Ry
     estimated scf accuracy    <       0.87549672 Ry

     total magnetization       =     3.00 Bohr mag/cell
     absolute magnetization    =     3.24 Bohr mag/cell

     iteration #  6     ecut=    70.00 Ry     beta= 0.70
     Davidson diagonalization with overlap
     ethr =  4.11E-04,  avg # of iterations =  4.0

     negative rho (up, down):  5.821E-04 9.572E-03

     total cpu time spent up to now is      836.7 secs

     total energy              =    -825.89645804 Ry
     Harris-Foulkes estimate   =    -825.94787042 Ry
     estimated scf accuracy    <       0.17561213 Ry

     total magnetization       =     3.00 Bohr mag/cell
     absolute magnetization    =     3.39 Bohr mag/cell

     iteration #  7     ecut=    70.00 Ry     beta= 0.70
     Davidson diagonalization with overlap
     ethr =  8.24E-05,  avg # of iterations =  9.5

     negative rho (up, down):  6.320E-04 7.473E-03

     total cpu time spent up to now is      943.0 secs

     total energy              =    -825.92064786 Ry
     Harris-Foulkes estimate   =    -825.92425677 Ry
     estimated scf accuracy    <       0.01237565 Ry

     total magnetization       =     3.00 Bohr mag/cell
     absolute magnetization    =     3.53 Bohr mag/cell

     iteration #  8     ecut=    70.00 Ry     beta= 0.70
     Davidson diagonalization with overlap
     ethr =  5.81E-06,  avg # of iterations =  6.5

     negative rho (up, down):  6.489E-04 6.973E-03

     total cpu time spent up to now is     1070.9 secs

     total energy              =    -825.92310267 Ry
     Harris-Foulkes estimate   =    -825.92528067 Ry
     estimated scf accuracy    <       0.00777099 Ry

     total magnetization       =     3.00 Bohr mag/cell
     absolute magnetization    =     3.68 Bohr mag/cell

     iteration #  9     ecut=    70.00 Ry     beta= 0.70
     Davidson diagonalization with overlap
     ethr =  3.65E-06,  avg # of iterations =  4.5

     negative rho (up, down):  6.624E-04 6.725E-03

     total cpu time spent up to now is     1180.7 secs

     total energy              =    -825.92499031 Ry
     Harris-Foulkes estimate   =    -825.92513467 Ry
     estimated scf accuracy    <       0.00157601 Ry

     total magnetization       =     3.00 Bohr mag/cell
     absolute magnetization    =     3.78 Bohr mag/cell

     iteration # 10     ecut=    70.00 Ry     beta= 0.70
     Davidson diagonalization with overlap
     ethr =  7.40E-07,  avg # of iterations =  3.0

     negative rho (up, down):  6.761E-04 6.433E-03

     total cpu time spent up to now is     1287.6 secs

     total energy              =    -825.92546652 Ry
     Harris-Foulkes estimate   =    -825.92530133 Ry
     estimated scf accuracy    <       0.00047927 Ry

     total magnetization       =     2.84 Bohr mag/cell
     absolute magnetization    =     3.94 Bohr mag/cell

     iteration # 11     ecut=    70.00 Ry     beta= 0.70
     Davidson diagonalization with overlap
     ethr =  2.25E-07,  avg # of iterations =  3.0

     negative rho (up, down):  6.765E-04 6.542E-03

     total cpu time spent up to now is     1396.5 secs

     total energy              =    -825.92560942 Ry
     Harris-Foulkes estimate   =    -825.92556834 Ry
     estimated scf accuracy    <       0.00017019 Ry

     total magnetization       =     2.99 Bohr mag/cell
     absolute magnetization    =     4.01 Bohr mag/cell

     iteration # 12     ecut=    70.00 Ry     beta= 0.70
     Davidson diagonalization with overlap
     ethr =  7.99E-08,  avg # of iterations =  3.0

     negative rho (up, down):  6.751E-04 6.695E-03

     total cpu time spent up to now is     1513.1 secs

     total energy              =    -825.92569554 Ry
     Harris-Foulkes estimate   =    -825.92567433 Ry
     estimated scf accuracy    <       0.00004903 Ry

     total magnetization       =     3.00 Bohr mag/cell
     absolute magnetization    =     4.10 Bohr mag/cell

     iteration # 13     ecut=    70.00 Ry     beta= 0.70
     Davidson diagonalization with overlap
     ethr =  2.30E-08,  avg # of iterations =  3.0

     negative rho (up, down):  6.735E-04 6.844E-03

     total cpu time spent up to now is     1630.4 secs

     total energy              =    -825.92573361 Ry
     Harris-Foulkes estimate   =    -825.92571562 Ry
     estimated scf accuracy    <       0.00001940 Ry

     total magnetization       =     3.00 Bohr mag/cell
     absolute magnetization    =     4.15 Bohr mag/cell

     iteration # 14     ecut=    70.00 Ry     beta= 0.70
     Davidson diagonalization with overlap
     ethr =  9.11E-09,  avg # of iterations =  3.0

     negative rho (up, down):  6.757E-04 6.838E-03

     total cpu time spent up to now is     1756.8 secs

     total energy              =    -825.92575227 Ry
     Harris-Foulkes estimate   =    -825.92574701 Ry
     estimated scf accuracy    <       0.00000397 Ry

     total magnetization       =     3.00 Bohr mag/cell
     absolute magnetization    =     4.20 Bohr mag/cell

     iteration # 15     ecut=    70.00 Ry     beta= 0.70
     Davidson diagonalization with overlap
     ethr =  1.86E-09,  avg # of iterations =  4.0

     negative rho (up, down):  6.756E-04 6.876E-03

     total cpu time spent up to now is     1891.8 secs

     total energy              =    -825.92575718 Ry
     Harris-Foulkes estimate   =    -825.92575901 Ry
     estimated scf accuracy    <       0.00001401 Ry

     total magnetization       =     3.00 Bohr mag/cell
     absolute magnetization    =     4.24 Bohr mag/cell

     iteration # 16     ecut=    70.00 Ry     beta= 0.70
     Davidson diagonalization with overlap
     ethr =  1.86E-09,  avg # of iterations =  3.5

     negative rho (up, down):  6.758E-04 6.893E-03

     total cpu time spent up to now is     2006.1 secs

     total energy              =    -825.92576047 Ry
     Harris-Foulkes estimate   =    -825.92576002 Ry
     estimated scf accuracy    <       0.00000188 Ry

     total magnetization       =     3.00 Bohr mag/cell
     absolute magnetization    =     4.25 Bohr mag/cell

     iteration # 17     ecut=    70.00 Ry     beta= 0.70
     Davidson diagonalization with overlap
     ethr =  8.83E-10,  avg # of iterations =  3.0

     negative rho (up, down):  6.762E-04 6.880E-03

     Magnetic moment per site:
     atom:    1    charge:    0.2107    magn:    0.0054    constr:    0.0000
     atom:    2    charge:    0.2107    magn:    0.0054    constr:    0.0000
     atom:    3    charge:    1.7171    magn:   -0.0125    constr:    0.0000
     atom:    4    charge:    1.7156    magn:    0.0178    constr:    0.0000
     atom:    5    charge:    1.7177    magn:   -0.0093    constr:    0.0000
     atom:    6    charge:    1.7143    magn:    0.0059    constr:    0.0000
     atom:    7    charge:    1.7177    magn:   -0.0093    constr:    0.0000
     atom:    8    charge:    1.7156    magn:    0.0178    constr:    0.0000
     atom:    9    charge:    1.7171    magn:   -0.0125    constr:    0.0000
     atom:   10    charge:    1.7155    magn:    0.0573    constr:    0.0000
     atom:   11    charge:    1.7175    magn:   -0.0178    constr:    0.0000
     atom:   12    charge:    1.7155    magn:    0.0574    constr:    0.0000
     atom:   13    charge:    1.7175    magn:   -0.0179    constr:    0.0000
     atom:   14    charge:    1.7159    magn:    0.0458    constr:    0.0000
     atom:   15    charge:    1.7144    magn:   -0.0147    constr:    0.0000
     atom:   16    charge:    1.7125    magn:    0.0611    constr:    0.0000
     atom:   17    charge:    1.7239    magn:   -0.0131    constr:    0.0000
     atom:   18    charge:    1.7127    magn:    0.0610    constr:    0.0000
     atom:   19    charge:    1.7145    magn:   -0.0147    constr:    0.0000
     atom:   20    charge:    1.7160    magn:    0.0458    constr:    0.0000
     atom:   21    charge:    1.7175    magn:   -0.0178    constr:    0.0000
     atom:   22    charge:    1.7155    magn:    0.0574    constr:    0.0000
     atom:   23    charge:    1.7171    magn:   -0.0125    constr:    0.0000
     atom:   24    charge:    1.7156    magn:    0.0178    constr:    0.0000
     atom:   25    charge:    1.7144    magn:   -0.0147    constr:    0.0000
     atom:   26    charge:    1.7125    magn:    0.0611    constr:    0.0000
     atom:   27    charge:    1.8753    magn:   -0.0277    constr:    0.0000
     atom:   28    charge:   10.0222    magn:    0.7989    constr:    0.0000
     atom:   29    charge:    1.8755    magn:   -0.0275    constr:    0.0000
     atom:   30    charge:    1.7125    magn:    0.0611    constr:    0.0000
     atom:   31    charge:    1.7144    magn:   -0.0147    constr:    0.0000
     atom:   32    charge:    1.7156    magn:    0.0178    constr:    0.0000
     atom:   33    charge:    1.7177    magn:   -0.0093    constr:    0.0000
     atom:   34    charge:    1.7141    magn:    0.0123    constr:    0.0000
     atom:   35    charge:    1.7177    magn:   -0.0093    constr:    0.0000
     atom:   36    charge:    1.7143    magn:    0.0059    constr:    0.0000
     atom:   37    charge:    1.7239    magn:   -0.0131    constr:    0.0000
     atom:   38    charge:    1.7127    magn:    0.0610    constr:    0.0000
     atom:   39    charge:    1.8755    magn:   -0.0275    constr:    0.0000
     atom:   40    charge:    1.7125    magn:    0.0611    constr:    0.0000
     atom:   41    charge:    1.7238    magn:   -0.0131    constr:    0.0000
     atom:   42    charge:    1.7142    magn:    0.0059    constr:    0.0000
     atom:   43    charge:    1.7177    magn:   -0.0093    constr:    0.0000
     atom:   44    charge:    1.7141    magn:    0.0123    constr:    0.0000
     atom:   45    charge:    1.7236    magn:   -0.0055    constr:    0.0000
     atom:   46    charge:    1.7142    magn:    0.0123    constr:    0.0000
     atom:   47    charge:    1.7177    magn:   -0.0093    constr:    0.0000
     atom:   48    charge:    1.7156    magn:    0.0178    constr:    0.0000
     atom:   49    charge:    1.7145    magn:   -0.0147    constr:    0.0000
     atom:   50    charge:    1.7160    magn:    0.0458    constr:    0.0000
     atom:   51    charge:    1.7144    magn:   -0.0147    constr:    0.0000
     atom:   52    charge:    1.7156    magn:    0.0178    constr:    0.0000

     total cpu time spent up to now is     2129.4 secs

     End of self-consistent calculation

 ------ SPIN UP ------------


          k = 0.0000 0.0000 0.0000 ( 87777 PWs)   bands (ev):

   -80.6268 -50.1395 -50.1360 -49.0396 -19.7481 -18.9128 -18.9114 -18.8202
   -18.8017 -18.8006 -18.4543 -17.0498 -17.0492 -17.0451 -16.9643 -16.9624
   -16.6525 -16.2043 -16.2036 -16.0963 -16.0345 -16.0325 -15.3330 -14.0908
   -14.0906 -14.0270 -13.9626 -13.9622 -13.2944 -13.0361 -13.0357 -13.0089
   -12.7050 -12.7035 -12.2897 -11.8112 -11.8109 -11.6293 -11.3537 -11.3526
   -10.4429  -9.6403  -9.6391  -9.4046  -9.2899  -9.2897  -9.1954  -9.1683
    -9.1683  -9.1539  -8.6640  -8.6633  -8.1333  -8.1329  -8.0473  -7.9984
    -7.8008  -7.5808  -7.3975  -7.3967  -7.1797  -7.1681  -7.1523  -6.8844
    -6.8838  -6.8008  -6.8005  -6.7925  -6.6810  -6.5334  -6.5327  -6.5014
    -6.4929  -6.4922  -6.4464  -6.3434  -5.6214  -5.6094  -5.4888  -5.4885
    -5.2857  -5.2850  -4.9739  -4.9518  -4.8531  -4.7250  -4.7066  -4.7056
    -4.3524  -4.2025  -4.2011  -4.1714  -4.1713  -3.8649  -3.8644  -3.7649
    -3.6379  -3.6378  -3.0670  -2.7245  -2.7214  -1.8749  -1.7765  -1.7760
    -1.0815  -1.0809  -1.0511  -0.7098   0.9273   0.9879   0.9896   1.5940
     1.5971   1.6377   2.4904   2.7694   2.7817   2.8651   2.8809   3.0302
     3.4578   3.4983   3.5370   3.5720   3.6598   3.7366   3.7376   3.7506

     occupation numbers 
     1.0000   1.0000   1.0000   1.0000   1.0000   1.0000   1.0000   1.0000
     1.0000   1.0000   1.0000   1.0000   1.0000   1.0000   1.0000   1.0000
     1.0000   1.0000   1.0000   1.0000   1.0000   1.0000   1.0000   1.0000
     1.0000   1.0000   1.0000   1.0000   1.0000   1.0000   1.0000   1.0000
     1.0000   1.0000   1.0000   1.0000   1.0000   1.0000   1.0000   1.0000
     1.0000   1.0000   1.0000   1.0000   1.0000   1.0000   1.0000   1.0000
     1.0000   1.0000   1.0000   1.0000   1.0000   1.0000   1.0000   1.0000
     1.0000   1.0000   1.0000   1.0000   1.0000   1.0000   1.0000   1.0000
     1.0000   1.0000   1.0000   1.0000   1.0000   1.0000   1.0000   1.0000
     1.0000   1.0000   1.0000   1.0000   1.0000   1.0000   1.0000   1.0000
     1.0000   1.0000   1.0000   1.0000   1.0000   1.0000   1.0000   1.0000
     1.0000   1.0000   1.0000   1.0000   1.0000   1.0000   1.0000   1.0000
     1.0000   1.0000   1.0000   1.0000   1.0000   1.0000   1.0000   1.0000
     1.0000   1.0000   1.0000   1.0000   0.0000   0.0000   0.0000   0.0000
     0.0000   0.0000   0.0000   0.0000   0.0000   0.0000   0.0000   0.0000
     0.0000   0.0000   0.0000   0.0000   0.0000   0.0000   0.0000   0.0000

 ------ SPIN DOWN ----------


          k = 0.0000 0.0000 0.0000 ( 87777 PWs)   bands (ev):

   -79.2681 -49.0528 -49.0488 -47.2567 -19.7061 -18.8643 -18.8635 -18.7823
   -18.7747 -18.7732 -18.3881 -17.0158 -17.0120 -17.0114 -16.9078 -16.9059
   -16.6222 -16.1540 -16.1531 -16.0644 -15.9903 -15.9882 -15.3010 -14.0165
   -14.0164 -13.9584 -13.9523 -13.9519 -13.2988 -13.0098 -13.0093 -12.9760
   -12.6853 -12.6840 -12.2521 -11.7685 -11.7682 -11.6038 -11.3290 -11.3278
   -10.4041  -9.5714  -9.5703  -9.3739  -9.2548  -9.2545  -9.1792  -9.1435
    -9.1435  -9.1359  -8.6477  -8.6470  -8.0830  -8.0828  -8.0055  -7.8901
    -7.7826  -7.4494  -7.3808  -7.3801  -7.0876  -6.9830  -6.9726  -6.8218
    -6.8212  -6.7433  -6.7430  -6.7067  -6.6649  -6.5141  -6.5133  -6.4899
    -6.4798  -6.4790  -6.4285  -6.1833  -5.4530  -5.4521  -5.3346  -5.3211
    -5.2074  -5.2066  -4.9383  -4.8416  -4.6502  -4.6231  -4.6139  -4.6128
    -4.2771  -4.0717  -4.0704  -3.9589  -3.9581  -3.7287  -3.7281  -3.6766
    -3.6185  -3.6184  -2.9911  -2.4661  -2.4623  -1.7511  -1.7506  -1.7044
    -0.7521  -0.4809  -0.4794   0.3801   1.0301   1.0321   1.0846   1.7772
     1.7790   1.7917   2.5166   2.9106   2.9199   2.9525   3.0765   3.3029
     3.6372   3.6823   3.6835   3.7076   3.7288   3.7491   3.7511   3.7682

     occupation numbers 
     1.0000   1.0000   1.0000   1.0000   1.0000   1.0000   1.0000   1.0000
     1.0000   1.0000   1.0000   1.0000   1.0000   1.0000   1.0000   1.0000
     1.0000   1.0000   1.0000   1.0000   1.0000   1.0000   1.0000   1.0000
     1.0000   1.0000   1.0000   1.0000   1.0000   1.0000   1.0000   1.0000
     1.0000   1.0000   1.0000   1.0000   1.0000   1.0000   1.0000   1.0000
     1.0000   1.0000   1.0000   1.0000   1.0000   1.0000   1.0000   1.0000
     1.0000   1.0000   1.0000   1.0000   1.0000   1.0000   1.0000   1.0000
     1.0000   1.0000   1.0000   1.0000   1.0000   1.0000   1.0000   1.0000
     1.0000   1.0000   1.0000   1.0000   1.0000   1.0000   1.0000   1.0000
     1.0000   1.0000   1.0000   1.0000   1.0000   1.0000   1.0000   1.0000
     1.0000   1.0000   1.0000   1.0000   1.0000   1.0000   1.0000   1.0000
     1.0000   1.0000   1.0000   1.0000   1.0000   1.0000   1.0000   1.0000
     1.0000   1.0000   1.0000   1.0000   1.0000   1.0000   1.0000   1.0000
     1.0000   0.0000   0.0000   0.0000   0.0000   0.0000   0.0000   0.0000
     0.0000   0.0000   0.0000   0.0000   0.0000   0.0000   0.0000   0.0000
     0.0000   0.0000   0.0000   0.0000   0.0000   0.0000   0.0000   0.0000

     the Fermi energy is    -0.6973 ev

!    total energy              =    -825.92576145 Ry
     Harris-Foulkes estimate   =    -825.92576140 Ry
     estimated scf accuracy    <       0.00000040 Ry

     The total energy is the sum of the following terms:

     one-electron contribution =   -2738.01904768 Ry
     hartree contribution      =    1414.09656913 Ry
     xc contribution           =    -259.70164272 Ry
     ewald contribution        =     757.69827826 Ry
     smearing contrib. (-TS)   =       0.00008157 Ry

     total magnetization       =     3.00 Bohr mag/cell
     absolute magnetization    =     4.26 Bohr mag/cell

     convergence has been achieved in  17 iterations

     Writing output data file manganeso-top-distance-2.4.save/

     init_run     :     80.55s CPU     81.88s WALL (       1 calls)
     electrons    :   2014.40s CPU   2046.62s WALL (       1 calls)

     Called by init_run:
     wfcinit      :     43.46s CPU     43.78s WALL (       1 calls)
     wfcinit:atom :      0.05s CPU      0.09s WALL (       2 calls)
     wfcinit:wfcr :     43.05s CPU     43.27s WALL (       2 calls)
     potinit      :     15.63s CPU     16.05s WALL (       1 calls)
     hinit0       :     12.88s CPU     12.90s WALL (       1 calls)

     Called by electrons:
     c_bands      :   1398.57s CPU   1406.27s WALL (      17 calls)
     sum_band     :    357.71s CPU    368.11s WALL (      17 calls)
     v_of_rho     :    131.46s CPU    137.27s WALL (      18 calls)
     v_h          :      1.43s CPU      1.48s WALL (      18 calls)
     v_xc         :    130.03s CPU    135.80s WALL (      18 calls)
     newd         :    129.78s CPU    138.75s WALL (      18 calls)
     mix_rho      :      7.47s CPU      7.61s WALL (      17 calls)

     Called by c_bands:
     init_us_2    :      3.28s CPU      3.32s WALL (      70 calls)
     cegterg      :   1390.44s CPU   1398.11s WALL (      34 calls)

     Called by sum_band:
     sum_band:bec :      0.03s CPU      0.03s WALL (      34 calls)
     addusdens    :    220.84s CPU    230.39s WALL (      17 calls)

     Called by *egterg:
     h_psi        :    705.08s CPU    710.51s WALL (     178 calls)
     s_psi        :    241.09s CPU    241.20s WALL (     178 calls)
     g_psi        :      0.80s CPU      0.80s WALL (     142 calls)
     cdiaghg      :     16.05s CPU     16.05s WALL (     176 calls)
     cegterg:over :    190.80s CPU    190.91s WALL (     142 calls)
     cegterg:upda :    130.48s CPU    131.12s WALL (     142 calls)
     cegterg:last :     81.68s CPU     81.70s WALL (      36 calls)

     Called by h_psi:
     h_psi:pot    :    704.29s CPU    708.83s WALL (     178 calls)
     h_psi:calbec :    240.37s CPU    240.48s WALL (     178 calls)
     vloc_psi     :    223.49s CPU    227.81s WALL (     178 calls)
     add_vuspsi   :    240.44s CPU    240.53s WALL (     178 calls)

     General routines
     calbec       :    325.73s CPU    325.87s WALL (     212 calls)
     fft          :     76.57s CPU     78.88s WALL (    1344 calls)
     ffts         :      1.24s CPU      1.29s WALL (      70 calls)
     fftw         :    228.17s CPU    232.71s WALL (   28918 calls)
     interpolate  :      3.15s CPU      3.25s WALL (      36 calls)

     Parallel routines
     fft_scatt_xy :     55.45s CPU     56.25s WALL (   30332 calls)
     fft_scatt_yz :    100.43s CPU    105.41s WALL (   30332 calls)

     PWSCF        :  34m56.19s CPU  35m30.13s WALL


   This run was terminated on:  14:31:23  22Jan2023            

=------------------------------------------------------------------------------=
   JOB DONE.
=------------------------------------------------------------------------------=
