
     Program PWSCF v.6.4.1 starts on  3Jan2023 at  0: 9:13 

     This program is part of the open-source Quantum ESPRESSO suite
     for quantum simulation of materials; please cite
         "P. Giannozzi et al., J. Phys.:Condens. Matter 21 395502 (2009);
         "P. Giannozzi et al., J. Phys.:Condens. Matter 29 465901 (2017);
          URL http://www.quantum-espresso.org", 
     in publications or presentations arising from this work. More details at
     http://www.quantum-espresso.org/quote

     Parallel version (MPI), running on     6 processors

     MPI processes distributed on     1 nodes
     R & G space division:  proc/nbgrp/npool/nimage =       6
     Reading input from distance-4.5.in

     Current dimensions of program PWSCF are:
     Max number of different atomic species (ntypx) = 10
     Max number of k-points (npk) =  40000
     Max angular momentum in pseudopotentials (lmaxx) =  3

     IMPORTANT: XC functional enforced from input :
     Exchange-correlation      = RVV10 ( 1  4 13  4 3 0)
     Any further DFT definition will be discarded
     Please, verify this is what you really want

               file H.pbe-rrkjus.UPF: wavefunction(s)  1S renormalized

     Subspace diagonalization in iterative solution of the eigenvalue problem:
     a serial algorithm will be used


     Parallelization info
     --------------------
     sticks:   dense  smooth     PW     G-vecs:    dense   smooth      PW
     Min        3051    1746    432               270999   117096   14629
     Max        3053    1747    437               271001   117099   14630
     Sum       18313   10477   2611              1626001   702581   87777



     bravais-lattice index     =            4
     lattice parameter (alat)  =      23.2937  a.u.
     unit-cell volume          =    8879.8548 (a.u.)^3
     number of atoms/cell      =           52
     number of atomic types    =            3
     number of electrons       =       216.00
     number of Kohn-Sham states=          130
     kinetic-energy cutoff     =      70.0000  Ry
     charge density cutoff     =     490.0000  Ry
     convergence threshold     =      1.0E-06
     mixing beta               =       0.7000
     number of iterations used =            8  plain     mixing
     Exchange-correlation      = RVV10 ( 1  4 13  4 3 0)

     celldm(1)=  23.293684  celldm(2)=   0.000000  celldm(3)=   0.811261
     celldm(4)=   0.000000  celldm(5)=   0.000000  celldm(6)=   0.000000

     crystal axes: (cart. coord. in units of alat)
               a(1) = (   1.000000   0.000000   0.000000 )  
               a(2) = (  -0.500000   0.866025   0.000000 )  
               a(3) = (   0.000000   0.000000   0.811261 )  

     reciprocal axes: (cart. coord. in units 2 pi/alat)
               b(1) = (  1.000000  0.577350 -0.000000 )  
               b(2) = (  0.000000  1.154701  0.000000 )  
               b(3) = (  0.000000 -0.000000  1.232649 )  


     PseudoPot. # 1 for H  read from file:
     /home/cristian/Escritorio/Proyecto_Grafeno/pseudopotenciales/H.pbe-rrkjus.UPF
     MD5 check sum: 7cc9d459525c9a0585f487a71c3c9563
     Pseudo is Ultrasoft, Zval =  1.0
     Generated by new atomic code, or converted to UPF format
     Using radial grid of 1061 points,  2 beta functions with: 
                l(1) =   0
                l(2) =   0
     Q(r) pseudized with 0 coefficients 


     PseudoPot. # 2 for C  read from file:
     /home/cristian/Escritorio/Proyecto_Grafeno/pseudopotenciales/C.pbe-n-rrkjus_psl.1.0.0.UPF
     MD5 check sum: 1fdd950c42eb37d8afe3dd2f8d12311e
     Pseudo is Ultrasoft + core correction, Zval =  4.0
     Generated using "atomic" code by A. Dal Corso v.6.3MaX
     Using radial grid of 1073 points,  4 beta functions with: 
                l(1) =   0
                l(2) =   0
                l(3) =   1
                l(4) =   1
     Q(r) pseudized with 0 coefficients 


     PseudoPot. # 3 for Ni read from file:
     /home/cristian/Escritorio/Proyecto_Grafeno/pseudopotenciales/Ni.pbe-spn-rrkjus_psl.1.0.0.UPF
     MD5 check sum: 8b3fc9aac6dafe35f580d41bb18c3945
     Pseudo is Ultrasoft + core correction, Zval = 18.0
     Generated using "atomic" code by A. Dal Corso v.6.3
     Using radial grid of 1195 points,  6 beta functions with: 
                l(1) =   0
                l(2) =   0
                l(3) =   1
                l(4) =   1
                l(5) =   2
                l(6) =   2
     Q(r) pseudized with 0 coefficients 


     vdW kernel table read from file rVV10_kernel_table
     MD5 check sum: b8e2538accc0c0b3206b45ba4daaba6c

     atomic species   valence    mass     pseudopotential
        H              1.00     1.00794     H ( 1.00)
        C              4.00    12.01070     C ( 1.00)
        Ni            18.00    58.69340     Ni( 1.00)

     Starting magnetic structure 
     atomic species   magnetization
        H            0.500
        C            0.300
        Ni           0.800

     No symmetry found


                                    s                        frac. trans.

      isym =  1     identity                                     

 cryst.   s( 1) = (     1          0          0      )
                  (     0          1          0      )
                  (     0          0          1      )

 cart.    s( 1) = (  1.0000000  0.0000000  0.0000000 )
                  (  0.0000000  1.0000000  0.0000000 )
                  (  0.0000000  0.0000000  1.0000000 )


     point group C_1 (1)    
     there are  1 classes
     the character table:

       E    
A      1.00

     the symmetry operations in each class and the name of the first element:

     E        1
          identity                                               

   Cartesian axes

     site n.     atom                  positions (alat units)
         1           H   tau(   1) = (   0.2694937   0.4041452   0.3650675  )
         2           H   tau(   2) = (   0.3305063   0.4041452   0.3650675  )
         3           C   tau(   3) = (   0.0000000   0.0000000   0.0000000  )
         4           C   tau(   4) = (   0.0000000   0.1154701   0.0000000  )
         5           C   tau(   5) = (  -0.1000000   0.1732051   0.0000000  )
         6           C   tau(   6) = (  -0.1000000   0.2886751   0.0000000  )
         7           C   tau(   7) = (  -0.2000000   0.3464102   0.0000000  )
         8           C   tau(   8) = (  -0.2000000   0.4618802   0.0000000  )
         9           C   tau(   9) = (  -0.3000000   0.5196152   0.0000000  )
        10           C   tau(  10) = (  -0.3000000   0.6350853   0.0000000  )
        11           C   tau(  11) = (  -0.4000000   0.6928203   0.0000000  )
        12           C   tau(  12) = (  -0.4000000   0.8082904   0.0000000  )
        13           C   tau(  13) = (   0.2000000   0.0000000   0.0000000  )
        14           C   tau(  14) = (   0.2000000   0.1154701   0.0000000  )
        15           C   tau(  15) = (   0.1000000   0.1732051   0.0000000  )
        16           C   tau(  16) = (   0.1000000   0.2886751   0.0000000  )
        17           C   tau(  17) = (   0.0000000   0.3464102   0.0000000  )
        18           C   tau(  18) = (   0.0000000   0.4618802   0.0000000  )
        19           C   tau(  19) = (  -0.1000000   0.5196152   0.0000000  )
        20           C   tau(  20) = (  -0.1000000   0.6350853   0.0000000  )
        21           C   tau(  21) = (  -0.2000000   0.6928203   0.0000000  )
        22           C   tau(  22) = (  -0.2000000   0.8082904   0.0000000  )
        23           C   tau(  23) = (   0.4000000   0.0000000   0.0000000  )
        24           C   tau(  24) = (   0.4000000   0.1154701   0.0000000  )
        25           C   tau(  25) = (   0.3000000   0.1732051   0.0000000  )
        26           C   tau(  26) = (   0.3000000   0.2886751   0.0000000  )
        27           C   tau(  27) = (   0.2000000   0.3464102   0.0000000  )
        28           Ni  tau(  28) = (   0.2000000   0.4618802   0.0000000  )
        29           C   tau(  29) = (   0.1000000   0.5196152   0.0000000  )
        30           C   tau(  30) = (   0.1000000   0.6350853   0.0000000  )
        31           C   tau(  31) = (   0.0000000   0.6928203   0.0000000  )
        32           C   tau(  32) = (   0.0000000   0.8082904   0.0000000  )
        33           C   tau(  33) = (   0.6000000   0.0000000   0.0000000  )
        34           C   tau(  34) = (   0.6000000   0.1154701   0.0000000  )
        35           C   tau(  35) = (   0.5000000   0.1732051   0.0000000  )
        36           C   tau(  36) = (   0.5000000   0.2886751   0.0000000  )
        37           C   tau(  37) = (   0.4000000   0.3464102   0.0000000  )
        38           C   tau(  38) = (   0.4000000   0.4618802   0.0000000  )
        39           C   tau(  39) = (   0.3000000   0.5196152   0.0000000  )
        40           C   tau(  40) = (   0.3000000   0.6350853   0.0000000  )
        41           C   tau(  41) = (   0.2000000   0.6928203   0.0000000  )
        42           C   tau(  42) = (   0.2000000   0.8082904   0.0000000  )
        43           C   tau(  43) = (   0.8000000   0.0000000   0.0000000  )
        44           C   tau(  44) = (   0.8000000   0.1154701   0.0000000  )
        45           C   tau(  45) = (   0.7000000   0.1732051   0.0000000  )
        46           C   tau(  46) = (   0.7000000   0.2886751   0.0000000  )
        47           C   tau(  47) = (   0.6000000   0.3464102   0.0000000  )
        48           C   tau(  48) = (   0.6000000   0.4618802   0.0000000  )
        49           C   tau(  49) = (   0.5000000   0.5196152   0.0000000  )
        50           C   tau(  50) = (   0.5000000   0.6350853   0.0000000  )
        51           C   tau(  51) = (   0.4000000   0.6928203   0.0000000  )
        52           C   tau(  52) = (   0.4000000   0.8082904   0.0000000  )

   Crystallographic axes

     site n.     atom                  positions (cryst. coord.)
         1           H   tau(   1) = (  0.5028270  0.4666667  0.4500000  )
         2           H   tau(   2) = (  0.5638397  0.4666667  0.4500000  )
         3           C   tau(   3) = (  0.0000000  0.0000000  0.0000000  )
         4           C   tau(   4) = (  0.0666667  0.1333333  0.0000000  )
         5           C   tau(   5) = (  0.0000000  0.2000000  0.0000000  )
         6           C   tau(   6) = (  0.0666667  0.3333333  0.0000000  )
         7           C   tau(   7) = (  0.0000000  0.4000000  0.0000000  )
         8           C   tau(   8) = (  0.0666667  0.5333333  0.0000000  )
         9           C   tau(   9) = (  0.0000000  0.6000000  0.0000000  )
        10           C   tau(  10) = (  0.0666667  0.7333333  0.0000000  )
        11           C   tau(  11) = (  0.0000000  0.8000000  0.0000000  )
        12           C   tau(  12) = (  0.0666667  0.9333333  0.0000000  )
        13           C   tau(  13) = (  0.2000000  0.0000000  0.0000000  )
        14           C   tau(  14) = (  0.2666667  0.1333333  0.0000000  )
        15           C   tau(  15) = (  0.2000000  0.2000000  0.0000000  )
        16           C   tau(  16) = (  0.2666667  0.3333333  0.0000000  )
        17           C   tau(  17) = (  0.2000000  0.4000000  0.0000000  )
        18           C   tau(  18) = (  0.2666667  0.5333333  0.0000000  )
        19           C   tau(  19) = (  0.2000000  0.6000000  0.0000000  )
        20           C   tau(  20) = (  0.2666667  0.7333333  0.0000000  )
        21           C   tau(  21) = (  0.2000000  0.8000000  0.0000000  )
        22           C   tau(  22) = (  0.2666667  0.9333333  0.0000000  )
        23           C   tau(  23) = (  0.4000000  0.0000000  0.0000000  )
        24           C   tau(  24) = (  0.4666667  0.1333333  0.0000000  )
        25           C   tau(  25) = (  0.4000000  0.2000000  0.0000000  )
        26           C   tau(  26) = (  0.4666667  0.3333333  0.0000000  )
        27           C   tau(  27) = (  0.4000000  0.4000000  0.0000000  )
        28           Ni  tau(  28) = (  0.4666667  0.5333333  0.0000000  )
        29           C   tau(  29) = (  0.4000000  0.6000000  0.0000000  )
        30           C   tau(  30) = (  0.4666667  0.7333333  0.0000000  )
        31           C   tau(  31) = (  0.4000000  0.8000000  0.0000000  )
        32           C   tau(  32) = (  0.4666667  0.9333333  0.0000000  )
        33           C   tau(  33) = (  0.6000000  0.0000000  0.0000000  )
        34           C   tau(  34) = (  0.6666667  0.1333333  0.0000000  )
        35           C   tau(  35) = (  0.6000000  0.2000000  0.0000000  )
        36           C   tau(  36) = (  0.6666667  0.3333333  0.0000000  )
        37           C   tau(  37) = (  0.6000000  0.4000000  0.0000000  )
        38           C   tau(  38) = (  0.6666667  0.5333333  0.0000000  )
        39           C   tau(  39) = (  0.6000000  0.6000000  0.0000000  )
        40           C   tau(  40) = (  0.6666667  0.7333333  0.0000000  )
        41           C   tau(  41) = (  0.6000000  0.8000000  0.0000000  )
        42           C   tau(  42) = (  0.6666667  0.9333333  0.0000000  )
        43           C   tau(  43) = (  0.8000000  0.0000000  0.0000000  )
        44           C   tau(  44) = (  0.8666667  0.1333333  0.0000000  )
        45           C   tau(  45) = (  0.8000000  0.2000000  0.0000000  )
        46           C   tau(  46) = (  0.8666667  0.3333333  0.0000000  )
        47           C   tau(  47) = (  0.8000000  0.4000000  0.0000000  )
        48           C   tau(  48) = (  0.8666667  0.5333333  0.0000000  )
        49           C   tau(  49) = (  0.8000000  0.6000000  0.0000000  )
        50           C   tau(  50) = (  0.8666667  0.7333333  0.0000000  )
        51           C   tau(  51) = (  0.8000000  0.8000000  0.0000000  )
        52           C   tau(  52) = (  0.8666667  0.9333333  0.0000000  )

     number of k points=     1  Marzari-Vanderbilt smearing, width (Ry)=  0.0010
                       cart. coord. in units 2pi/alat
        k(    1) = (   0.0000000   0.0000000   0.0000000), wk =   1.0000000

                       cryst. coord.
        k(    1) = (   0.0000000   0.0000000   0.0000000), wk =   1.0000000

     Dense  grid:  1626001 G-vectors     FFT dimensions: ( 180, 180, 135)

     Smooth grid:   702581 G-vectors     FFT dimensions: ( 125, 125, 108)

     Dynamical RAM for                 wfc:      29.03 MB

     Dynamical RAM for     wfc (w. buffer):      87.10 MB

     Dynamical RAM for           str. fact:      12.41 MB

     Dynamical RAM for           local pot:       0.00 MB

     Dynamical RAM for          nlocal pot:      92.46 MB

     Dynamical RAM for                qrad:      19.73 MB

     Dynamical RAM for          rho,v,vnew:      58.92 MB

     Dynamical RAM for               rhoin:      19.64 MB

     Dynamical RAM for            rho*nmix:     132.32 MB

     Dynamical RAM for           G-vectors:      16.40 MB

     Dynamical RAM for          h,s,v(r/c):      12.38 MB

     Dynamical RAM for          <psi|beta>:       0.82 MB

     Dynamical RAM for                 psi:     116.14 MB

     Dynamical RAM for                hpsi:     116.14 MB

     Dynamical RAM for                spsi:     116.14 MB

     Dynamical RAM for      wfcinit/wfcrot:      93.90 MB

     Dynamical RAM for           addusdens:     975.89 MB

     Estimated static dynamical RAM per process >     489.64 MB

     Estimated max dynamical RAM per process >       1.43 GB

     Estimated total dynamical RAM >       8.59 GB
     Generating pointlists ...
     new r_m :   0.0252 (alat units)  0.5862 (a.u.) for type    1
     new r_m :   0.0476 (alat units)  1.1095 (a.u.) for type    2
     new r_m :   0.0476 (alat units)  1.1095 (a.u.) for type    3

     Check: negative core charge=   -0.000002

     Initial potential from superposition of free atoms

     starting charge  215.80530, renormalised to  216.00000

     negative rho (up, down):  1.098E-04 1.098E-02


---------------------------------------------------------------------------------
Carrying out rVV10 run using the following parameters:
Nqs =      20    Nr_points =    1024   r_max =   100.000
b_value =  6.30000    beta =  0.00901
     q_mesh =  0.00010000  0.00030000  0.00058939  0.00100810
               0.00161396  0.00249058  0.00375900  0.00559430
               0.00824984  0.01209221  0.01765183  0.02569619
               0.03733578  0.05417739  0.07854596  0.11380545
               0.16482331  0.23864234  0.34545298  0.50000000

Gradients computed in Reciprocal space

---------------------------------------------------------------------------------


     Starting wfcs are  208 randomized atomic wfcs

     total cpu time spent up to now is       75.2 secs

     Self-consistent Calculation

     iteration #  1     ecut=    70.00 Ry     beta= 0.70
     Davidson diagonalization with overlap
     ethr =  1.00E-02,  avg # of iterations =  4.0

     negative rho (up, down):  1.992E-04 9.869E-03

     total cpu time spent up to now is      200.0 secs

     total energy              =    -946.53990127 Ry
     Harris-Foulkes estimate   =    -949.78392899 Ry
     estimated scf accuracy    <      14.39557813 Ry

     total magnetization       =     6.00 Bohr mag/cell
     absolute magnetization    =     6.79 Bohr mag/cell

     iteration #  2     ecut=    70.00 Ry     beta= 0.70
     Davidson diagonalization with overlap
     ethr =  6.66E-03,  avg # of iterations =  4.0

     negative rho (up, down):  4.419E-04 4.993E-02

     total cpu time spent up to now is      315.1 secs

     total energy              =    -945.85168122 Ry
     Harris-Foulkes estimate   =    -957.83026108 Ry
     estimated scf accuracy    <      33.32823675 Ry

     total magnetization       =     4.00 Bohr mag/cell
     absolute magnetization    =     4.54 Bohr mag/cell

     iteration #  3     ecut=    70.00 Ry     beta= 0.70
     Davidson diagonalization with overlap
     ethr =  6.66E-03,  avg # of iterations =  4.0

     negative rho (up, down):  1.019E-03 2.113E-01

     total cpu time spent up to now is      413.6 secs

     total energy              =    -949.89293070 Ry
     Harris-Foulkes estimate   =    -952.85978507 Ry
     estimated scf accuracy    <      18.18376503 Ry

     total magnetization       =     4.00 Bohr mag/cell
     absolute magnetization    =     6.64 Bohr mag/cell

     iteration #  4     ecut=    70.00 Ry     beta= 0.70
     Davidson diagonalization with overlap
     ethr =  6.66E-03,  avg # of iterations =  3.5

     negative rho (up, down):  1.142E-01 5.252E-01

     total cpu time spent up to now is      521.2 secs

     total energy              =    -945.87808886 Ry
     Harris-Foulkes estimate   =    -961.86316415 Ry
     estimated scf accuracy    <     551.60597756 Ry

     total magnetization       =     4.00 Bohr mag/cell
     absolute magnetization    =    37.19 Bohr mag/cell

     iteration #  5     ecut=    70.00 Ry     beta= 0.70
     Davidson diagonalization with overlap
     ethr =  6.66E-03,  avg # of iterations =  3.0

     negative rho (up, down):  9.521E-02 4.464E-01

     total cpu time spent up to now is      629.6 secs

     total energy              =    -950.94869503 Ry
     Harris-Foulkes estimate   =    -952.85138948 Ry
     estimated scf accuracy    <      25.29109944 Ry

     total magnetization       =     2.00 Bohr mag/cell
     absolute magnetization    =     5.95 Bohr mag/cell

     iteration #  6     ecut=    70.00 Ry     beta= 0.70
     Davidson diagonalization with overlap
     ethr =  6.66E-03,  avg # of iterations =  2.0

     negative rho (up, down):  1.681E-02 4.168E-01

     total cpu time spent up to now is      719.7 secs

     total energy              =    -953.21727226 Ry
     Harris-Foulkes estimate   =    -952.14071170 Ry
     estimated scf accuracy    <      32.12739317 Ry

     total magnetization       =     2.00 Bohr mag/cell
     absolute magnetization    =     9.41 Bohr mag/cell

     iteration #  7     ecut=    70.00 Ry     beta= 0.70
     Davidson diagonalization with overlap
     ethr =  6.66E-03,  avg # of iterations =  2.5

     negative rho (up, down):  7.287E-02 4.497E-01

     total cpu time spent up to now is      813.8 secs

     total energy              =    -947.79522728 Ry
     Harris-Foulkes estimate   =    -955.06788628 Ry
     estimated scf accuracy    <     218.90372966 Ry

     total magnetization       =     0.00 Bohr mag/cell
     absolute magnetization    =    22.54 Bohr mag/cell

     iteration #  8     ecut=    70.00 Ry     beta= 0.70
     Davidson diagonalization with overlap
     ethr =  6.66E-03,  avg # of iterations =  3.0

     negative rho (up, down):  3.869E-02 3.020E-01

     total cpu time spent up to now is      912.4 secs

     total energy              =    -951.71413449 Ry
     Harris-Foulkes estimate   =    -951.61459546 Ry
     estimated scf accuracy    <       3.11289714 Ry

     total magnetization       =     0.00 Bohr mag/cell
     absolute magnetization    =     2.28 Bohr mag/cell

     iteration #  9     ecut=    70.00 Ry     beta= 0.70
     Davidson diagonalization with overlap
     ethr =  1.44E-03,  avg # of iterations =  3.5

     negative rho (up, down):  2.153E-02 3.066E-01

     total cpu time spent up to now is     1007.7 secs

     total energy              =    -952.30119151 Ry
     Harris-Foulkes estimate   =    -952.02125019 Ry
     estimated scf accuracy    <      11.01246599 Ry

     total magnetization       =     0.00 Bohr mag/cell
     absolute magnetization    =     4.84 Bohr mag/cell

     iteration # 10     ecut=    70.00 Ry     beta= 0.70
     Davidson diagonalization with overlap
     ethr =  1.44E-03,  avg # of iterations =  2.0

     negative rho (up, down):  3.232E-02 3.924E-01

     total cpu time spent up to now is     1099.9 secs

     total energy              =    -951.03990367 Ry
     Harris-Foulkes estimate   =    -952.49372719 Ry
     estimated scf accuracy    <      42.78405244 Ry

     total magnetization       =     0.00 Bohr mag/cell
     absolute magnetization    =     9.90 Bohr mag/cell

     iteration # 11     ecut=    70.00 Ry     beta= 0.70
     Davidson diagonalization with overlap
     ethr =  1.44E-03,  avg # of iterations =  2.0

     negative rho (up, down):  1.109E-02 3.060E-01

     total cpu time spent up to now is     1196.2 secs

     total energy              =    -951.80621486 Ry
     Harris-Foulkes estimate   =    -951.79615408 Ry
     estimated scf accuracy    <       0.66815024 Ry

     total magnetization       =    -0.00 Bohr mag/cell
     absolute magnetization    =     0.92 Bohr mag/cell

     iteration # 12     ecut=    70.00 Ry     beta= 0.70
     Davidson diagonalization with overlap
     ethr =  3.09E-04,  avg # of iterations =  4.0

     negative rho (up, down):  8.750E-03 2.256E-01

     total cpu time spent up to now is     1289.0 secs

     total energy              =    -951.82542859 Ry
     Harris-Foulkes estimate   =    -951.88730443 Ry
     estimated scf accuracy    <       0.59745846 Ry

     total magnetization       =    -0.00 Bohr mag/cell
     absolute magnetization    =     0.85 Bohr mag/cell

     iteration # 13     ecut=    70.00 Ry     beta= 0.70
     Davidson diagonalization with overlap
     ethr =  2.77E-04,  avg # of iterations =  2.0

     negative rho (up, down):  4.998E-03 1.766E-01

     total cpu time spent up to now is     1379.9 secs

     total energy              =    -951.86157347 Ry
     Harris-Foulkes estimate   =    -951.89327423 Ry
     estimated scf accuracy    <       0.32266361 Ry

     total magnetization       =    -0.00 Bohr mag/cell
     absolute magnetization    =     0.66 Bohr mag/cell

     iteration # 14     ecut=    70.00 Ry     beta= 0.70
     Davidson diagonalization with overlap
     ethr =  1.49E-04,  avg # of iterations =  2.0

     negative rho (up, down):  8.619E-03 1.456E-01

     total cpu time spent up to now is     1471.7 secs

     total energy              =    -951.87746202 Ry
     Harris-Foulkes estimate   =    -951.89245042 Ry
     estimated scf accuracy    <       0.37877266 Ry

     total magnetization       =    -0.00 Bohr mag/cell
     absolute magnetization    =     0.68 Bohr mag/cell

     iteration # 15     ecut=    70.00 Ry     beta= 0.70
     Davidson diagonalization with overlap
     ethr =  1.49E-04,  avg # of iterations =  2.0

     negative rho (up, down):  1.339E-03 2.122E-01

     total cpu time spent up to now is     1561.3 secs

     total energy              =    -951.89301236 Ry
     Harris-Foulkes estimate   =    -951.88581876 Ry
     estimated scf accuracy    <       0.09345994 Ry

     total magnetization       =     0.00 Bohr mag/cell
     absolute magnetization    =     0.46 Bohr mag/cell

     iteration # 16     ecut=    70.00 Ry     beta= 0.70
     Davidson diagonalization with overlap
     ethr =  4.33E-05,  avg # of iterations =  5.0

     negative rho (up, down):  4.855E-03 3.164E-01

     total cpu time spent up to now is     1656.8 secs

     total energy              =    -951.85193646 Ry
     Harris-Foulkes estimate   =    -951.90712083 Ry
     estimated scf accuracy    <       1.52288532 Ry

     total magnetization       =     0.00 Bohr mag/cell
     absolute magnetization    =     1.87 Bohr mag/cell

     iteration # 17     ecut=    70.00 Ry     beta= 0.70
     Davidson diagonalization with overlap
     ethr =  4.33E-05,  avg # of iterations =  5.0

     negative rho (up, down):  5.218E-03 2.789E-01

     total cpu time spent up to now is     1765.8 secs

     total energy              =    -951.87715670 Ry
     Harris-Foulkes estimate   =    -951.90778217 Ry
     estimated scf accuracy    <       1.59235659 Ry

     total magnetization       =    -0.00 Bohr mag/cell
     absolute magnetization    =     1.91 Bohr mag/cell

     iteration # 18     ecut=    70.00 Ry     beta= 0.70
     Davidson diagonalization with overlap
     ethr =  4.33E-05,  avg # of iterations =  3.0

     negative rho (up, down):  5.629E-03 2.349E-01

     total cpu time spent up to now is     1863.9 secs

     total energy              =    -951.87355251 Ry
     Harris-Foulkes estimate   =    -951.88664690 Ry
     estimated scf accuracy    <       0.31610185 Ry

     total magnetization       =    -0.00 Bohr mag/cell
     absolute magnetization    =     0.81 Bohr mag/cell

     iteration # 19     ecut=    70.00 Ry     beta= 0.70
     Davidson diagonalization with overlap
     ethr =  4.33E-05,  avg # of iterations =  2.0

     negative rho (up, down):  2.331E-03 1.880E-01

     total cpu time spent up to now is     1954.8 secs

     total energy              =    -951.88220888 Ry
     Harris-Foulkes estimate   =    -951.88164029 Ry
     estimated scf accuracy    <       0.04623896 Ry

     total magnetization       =     0.00 Bohr mag/cell
     absolute magnetization    =     0.27 Bohr mag/cell

     iteration # 20     ecut=    70.00 Ry     beta= 0.70
     Davidson diagonalization with overlap
     ethr =  2.14E-05,  avg # of iterations =  2.5

     negative rho (up, down):  4.741E-03 2.185E-01

     total cpu time spent up to now is     2055.6 secs

     total energy              =    -951.88969607 Ry
     Harris-Foulkes estimate   =    -951.89327505 Ry
     estimated scf accuracy    <       0.52805014 Ry

     total magnetization       =    -0.00 Bohr mag/cell
     absolute magnetization    =     1.05 Bohr mag/cell

     iteration # 21     ecut=    70.00 Ry     beta= 0.70
     Davidson diagonalization with overlap
     ethr =  2.14E-05,  avg # of iterations =  3.0

     negative rho (up, down):  7.960E-03 2.097E-01

     total cpu time spent up to now is     2147.2 secs

     total energy              =    -951.87609295 Ry
     Harris-Foulkes estimate   =    -951.89052109 Ry
     estimated scf accuracy    <       0.45442459 Ry

     total magnetization       =    -0.00 Bohr mag/cell
     absolute magnetization    =     0.90 Bohr mag/cell

     iteration # 22     ecut=    70.00 Ry     beta= 0.70
     Davidson diagonalization with overlap
     ethr =  2.14E-05,  avg # of iterations =  2.0

     negative rho (up, down):  2.952E-03 1.769E-01

     total cpu time spent up to now is     2242.5 secs

     total energy              =    -951.88320337 Ry
     Harris-Foulkes estimate   =    -951.88219279 Ry
     estimated scf accuracy    <       0.02734077 Ry

     total magnetization       =     0.00 Bohr mag/cell
     absolute magnetization    =     0.23 Bohr mag/cell

     iteration # 23     ecut=    70.00 Ry     beta= 0.70
     Davidson diagonalization with overlap
     ethr =  1.27E-05,  avg # of iterations =  2.5

     negative rho (up, down):  1.163E-03 1.058E-01

     total cpu time spent up to now is     2334.0 secs

     total energy              =    -951.88563555 Ry
     Harris-Foulkes estimate   =    -951.88430239 Ry
     estimated scf accuracy    <       0.00110356 Ry

     total magnetization       =     0.00 Bohr mag/cell
     absolute magnetization    =     0.07 Bohr mag/cell

     iteration # 24     ecut=    70.00 Ry     beta= 0.70
     Davidson diagonalization with overlap
     ethr =  5.11E-07,  avg # of iterations =  4.5

     negative rho (up, down):  1.162E-03 5.968E-02

     total cpu time spent up to now is     2441.3 secs

     total energy              =    -951.88588257 Ry
     Harris-Foulkes estimate   =    -951.88600665 Ry
     estimated scf accuracy    <       0.00436418 Ry

     total magnetization       =    -0.00 Bohr mag/cell
     absolute magnetization    =     0.09 Bohr mag/cell

     iteration # 25     ecut=    70.00 Ry     beta= 0.70
     Davidson diagonalization with overlap
     ethr =  5.11E-07,  avg # of iterations =  3.0

     negative rho (up, down):  1.665E-03 1.713E-02

     total cpu time spent up to now is     2541.4 secs

     total energy              =    -951.88554232 Ry
     Harris-Foulkes estimate   =    -951.88633726 Ry
     estimated scf accuracy    <       0.01148078 Ry

     total magnetization       =    -0.00 Bohr mag/cell
     absolute magnetization    =     0.07 Bohr mag/cell

     iteration # 26     ecut=    70.00 Ry     beta= 0.70
     Davidson diagonalization with overlap
     ethr =  5.11E-07,  avg # of iterations =  3.0

     negative rho (up, down):  1.090E-03 1.080E-01

     total cpu time spent up to now is     2643.5 secs

     total energy              =    -951.88591834 Ry
     Harris-Foulkes estimate   =    -951.88601988 Ry
     estimated scf accuracy    <       0.00934740 Ry

     total magnetization       =    -0.00 Bohr mag/cell
     absolute magnetization    =     0.16 Bohr mag/cell

     iteration # 27     ecut=    70.00 Ry     beta= 0.70
     Davidson diagonalization with overlap
     ethr =  5.11E-07,  avg # of iterations =  3.0

     negative rho (up, down):  1.062E-03 9.875E-02

     total cpu time spent up to now is     2740.4 secs

     total energy              =    -951.88612049 Ry
     Harris-Foulkes estimate   =    -951.88601911 Ry
     estimated scf accuracy    <       0.00524106 Ry

     total magnetization       =    -0.00 Bohr mag/cell
     absolute magnetization    =     0.12 Bohr mag/cell

     iteration # 28     ecut=    70.00 Ry     beta= 0.70
     Davidson diagonalization with overlap
     ethr =  5.11E-07,  avg # of iterations =  2.0

     negative rho (up, down):  1.068E-03 1.217E-01

     total cpu time spent up to now is     2829.5 secs

     total energy              =    -951.88573863 Ry
     Harris-Foulkes estimate   =    -951.88614037 Ry
     estimated scf accuracy    <       0.00992849 Ry

     total magnetization       =    -0.00 Bohr mag/cell
     absolute magnetization    =     0.16 Bohr mag/cell

     iteration # 29     ecut=    70.00 Ry     beta= 0.70
     Davidson diagonalization with overlap
     ethr =  5.11E-07,  avg # of iterations =  2.0

     negative rho (up, down):  1.085E-03 7.629E-02

     total cpu time spent up to now is     2923.2 secs

     total energy              =    -951.88598425 Ry
     Harris-Foulkes estimate   =    -951.88586014 Ry
     estimated scf accuracy    <       0.00164432 Ry

     total magnetization       =     0.00 Bohr mag/cell
     absolute magnetization    =     0.06 Bohr mag/cell

     iteration # 30     ecut=    70.00 Ry     beta= 0.70
     Davidson diagonalization with overlap
     ethr =  5.11E-07,  avg # of iterations =  2.0

     negative rho (up, down):  1.098E-03 6.949E-02

     total cpu time spent up to now is     3017.5 secs

     total energy              =    -951.88611196 Ry
     Harris-Foulkes estimate   =    -951.88608089 Ry
     estimated scf accuracy    <       0.00347660 Ry

     total magnetization       =     0.00 Bohr mag/cell
     absolute magnetization    =     0.09 Bohr mag/cell

     iteration # 31     ecut=    70.00 Ry     beta= 0.70
     Davidson diagonalization with overlap
     ethr =  5.11E-07,  avg # of iterations =  1.0

     negative rho (up, down):  1.108E-03 8.373E-02

     total cpu time spent up to now is     3105.7 secs

     total energy              =    -951.88600949 Ry
     Harris-Foulkes estimate   =    -951.88611734 Ry
     estimated scf accuracy    <       0.00414879 Ry

     total magnetization       =     0.00 Bohr mag/cell
     absolute magnetization    =     0.10 Bohr mag/cell

     iteration # 32     ecut=    70.00 Ry     beta= 0.70
     Davidson diagonalization with overlap
     ethr =  5.11E-07,  avg # of iterations =  2.0

     negative rho (up, down):  1.073E-03 6.656E-02

     total cpu time spent up to now is     3195.0 secs

     total energy              =    -951.88599819 Ry
     Harris-Foulkes estimate   =    -951.88603480 Ry
     estimated scf accuracy    <       0.00167253 Ry

     total magnetization       =    -0.00 Bohr mag/cell
     absolute magnetization    =     0.07 Bohr mag/cell

     iteration # 33     ecut=    70.00 Ry     beta= 0.70
     Davidson diagonalization with overlap
     ethr =  5.11E-07,  avg # of iterations =  2.0

     negative rho (up, down):  1.033E-03 2.069E-02

     total cpu time spent up to now is     3286.7 secs

     total energy              =    -951.88612594 Ry
     Harris-Foulkes estimate   =    -951.88611313 Ry
     estimated scf accuracy    <       0.00076286 Ry

     total magnetization       =     0.00 Bohr mag/cell
     absolute magnetization    =     0.03 Bohr mag/cell

     iteration # 34     ecut=    70.00 Ry     beta= 0.70
     Davidson diagonalization with overlap
     ethr =  3.53E-07,  avg # of iterations =  3.0

     negative rho (up, down):  1.021E-03 1.170E-02

     total cpu time spent up to now is     3378.6 secs

     total energy              =    -951.88616942 Ry
     Harris-Foulkes estimate   =    -951.88618320 Ry
     estimated scf accuracy    <       0.00024293 Ry

     total magnetization       =     0.00 Bohr mag/cell
     absolute magnetization    =     0.02 Bohr mag/cell

     iteration # 35     ecut=    70.00 Ry     beta= 0.70
     Davidson diagonalization with overlap
     ethr =  1.12E-07,  avg # of iterations =  2.0

     negative rho (up, down):  1.038E-03 1.297E-02

     total cpu time spent up to now is     3472.2 secs

     total energy              =    -951.88613149 Ry
     Harris-Foulkes estimate   =    -951.88619400 Ry
     estimated scf accuracy    <       0.00042819 Ry

     total magnetization       =     0.00 Bohr mag/cell
     absolute magnetization    =     0.02 Bohr mag/cell

     iteration # 36     ecut=    70.00 Ry     beta= 0.70
     Davidson diagonalization with overlap
     ethr =  1.12E-07,  avg # of iterations =  3.0

     negative rho (up, down):  1.090E-03 1.132E-01

     total cpu time spent up to now is     3571.2 secs

     total energy              =    -951.88582794 Ry
     Harris-Foulkes estimate   =    -951.88633013 Ry
     estimated scf accuracy    <       0.01063384 Ry

     total magnetization       =    -0.00 Bohr mag/cell
     absolute magnetization    =     0.15 Bohr mag/cell

     iteration # 37     ecut=    70.00 Ry     beta= 0.70
     Davidson diagonalization with overlap
     ethr =  1.12E-07,  avg # of iterations =  3.0

     negative rho (up, down):  1.062E-03 7.243E-02

     total cpu time spent up to now is     3670.5 secs

     total energy              =    -951.88608338 Ry
     Harris-Foulkes estimate   =    -951.88591734 Ry
     estimated scf accuracy    <       0.00112923 Ry

     total magnetization       =     0.00 Bohr mag/cell
     absolute magnetization    =     0.05 Bohr mag/cell

     iteration # 38     ecut=    70.00 Ry     beta= 0.70
     Davidson diagonalization with overlap
     ethr =  1.12E-07,  avg # of iterations =  2.0

     negative rho (up, down):  1.045E-03 6.284E-02

     total cpu time spent up to now is     3761.1 secs

     total energy              =    -951.88610936 Ry
     Harris-Foulkes estimate   =    -951.88609539 Ry
     estimated scf accuracy    <       0.00160052 Ry

     total magnetization       =     0.00 Bohr mag/cell
     absolute magnetization    =     0.06 Bohr mag/cell

     iteration # 39     ecut=    70.00 Ry     beta= 0.70
     Davidson diagonalization with overlap
     ethr =  1.12E-07,  avg # of iterations =  2.0

     negative rho (up, down):  1.070E-03 4.792E-02

     total cpu time spent up to now is     3851.2 secs

     total energy              =    -951.88610156 Ry
     Harris-Foulkes estimate   =    -951.88612092 Ry
     estimated scf accuracy    <       0.00092660 Ry

     total magnetization       =     0.00 Bohr mag/cell
     absolute magnetization    =     0.04 Bohr mag/cell

     iteration # 40     ecut=    70.00 Ry     beta= 0.70
     Davidson diagonalization with overlap
     ethr =  1.12E-07,  avg # of iterations =  2.0

     negative rho (up, down):  1.040E-03 3.716E-02

     total cpu time spent up to now is     3944.5 secs

     total energy              =    -951.88616885 Ry
     Harris-Foulkes estimate   =    -951.88613254 Ry
     estimated scf accuracy    <       0.00074429 Ry

     total magnetization       =    -0.00 Bohr mag/cell
     absolute magnetization    =     0.04 Bohr mag/cell

     iteration # 41     ecut=    70.00 Ry     beta= 0.70
     Davidson diagonalization with overlap
     ethr =  1.12E-07,  avg # of iterations =  2.0

     negative rho (up, down):  1.029E-03 4.464E-02

     total cpu time spent up to now is     4033.9 secs

     total energy              =    -951.88615608 Ry
     Harris-Foulkes estimate   =    -951.88617332 Ry
     estimated scf accuracy    <       0.00093480 Ry

     total magnetization       =     0.00 Bohr mag/cell
     absolute magnetization    =     0.05 Bohr mag/cell

     iteration # 42     ecut=    70.00 Ry     beta= 0.70
     Davidson diagonalization with overlap
     ethr =  1.12E-07,  avg # of iterations =  2.0

     negative rho (up, down):  1.026E-03 3.790E-02

     total cpu time spent up to now is     4122.7 secs

     total energy              =    -951.88614159 Ry
     Harris-Foulkes estimate   =    -951.88615836 Ry
     estimated scf accuracy    <       0.00049219 Ry

     total magnetization       =     0.00 Bohr mag/cell
     absolute magnetization    =     0.03 Bohr mag/cell

     iteration # 43     ecut=    70.00 Ry     beta= 0.70
     Davidson diagonalization with overlap
     ethr =  1.12E-07,  avg # of iterations =  2.0

     negative rho (up, down):  1.019E-03 1.138E-02

     total cpu time spent up to now is     4214.3 secs

     total energy              =    -951.88618155 Ry
     Harris-Foulkes estimate   =    -951.88615909 Ry
     estimated scf accuracy    <       0.00004699 Ry

     total magnetization       =     0.00 Bohr mag/cell
     absolute magnetization    =     0.01 Bohr mag/cell

     iteration # 44     ecut=    70.00 Ry     beta= 0.70
     Davidson diagonalization with overlap
     ethr =  2.18E-08,  avg # of iterations =  3.0

     negative rho (up, down):  1.025E-03 8.571E-03

     total cpu time spent up to now is     4314.2 secs

     total energy              =    -951.88617504 Ry
     Harris-Foulkes estimate   =    -951.88619706 Ry
     estimated scf accuracy    <       0.00018667 Ry

     total magnetization       =    -0.00 Bohr mag/cell
     absolute magnetization    =     0.01 Bohr mag/cell

     iteration # 45     ecut=    70.00 Ry     beta= 0.70
     Davidson diagonalization with overlap
     ethr =  2.18E-08,  avg # of iterations =  3.0

     negative rho (up, down):  1.026E-03 7.288E-03

     total cpu time spent up to now is     4412.2 secs

     total energy              =    -951.88617731 Ry
     Harris-Foulkes estimate   =    -951.88618979 Ry
     estimated scf accuracy    <       0.00015853 Ry

     total magnetization       =     0.00 Bohr mag/cell
     absolute magnetization    =     0.01 Bohr mag/cell

     iteration # 46     ecut=    70.00 Ry     beta= 0.70
     Davidson diagonalization with overlap
     ethr =  2.18E-08,  avg # of iterations =  2.5

     negative rho (up, down):  1.020E-03 2.067E-02

     total cpu time spent up to now is     4508.7 secs

     total energy              =    -951.88618403 Ry
     Harris-Foulkes estimate   =    -951.88618944 Ry
     estimated scf accuracy    <       0.00028133 Ry

     total magnetization       =    -0.00 Bohr mag/cell
     absolute magnetization    =     0.03 Bohr mag/cell

     iteration # 47     ecut=    70.00 Ry     beta= 0.70
     Davidson diagonalization with overlap
     ethr =  2.18E-08,  avg # of iterations =  2.0

     negative rho (up, down):  1.023E-03 2.277E-02

     total cpu time spent up to now is     4597.8 secs

     total energy              =    -951.88618260 Ry
     Harris-Foulkes estimate   =    -951.88618464 Ry
     estimated scf accuracy    <       0.00017710 Ry

     total magnetization       =    -0.00 Bohr mag/cell
     absolute magnetization    =     0.02 Bohr mag/cell

     iteration # 48     ecut=    70.00 Ry     beta= 0.70
     Davidson diagonalization with overlap
     ethr =  2.18E-08,  avg # of iterations =  2.0

     negative rho (up, down):  1.025E-03 3.133E-02

     total cpu time spent up to now is     4690.6 secs

     total energy              =    -951.88616862 Ry
     Harris-Foulkes estimate   =    -951.88618615 Ry
     estimated scf accuracy    <       0.00042890 Ry

     total magnetization       =    -0.00 Bohr mag/cell
     absolute magnetization    =     0.03 Bohr mag/cell

     iteration # 49     ecut=    70.00 Ry     beta= 0.70
     Davidson diagonalization with overlap
     ethr =  2.18E-08,  avg # of iterations =  2.0

     negative rho (up, down):  1.024E-03 2.108E-02

     total cpu time spent up to now is     4782.5 secs

     total energy              =    -951.88617689 Ry
     Harris-Foulkes estimate   =    -951.88617101 Ry
     estimated scf accuracy    <       0.00010669 Ry

     total magnetization       =     0.00 Bohr mag/cell
     absolute magnetization    =     0.02 Bohr mag/cell

     iteration # 50     ecut=    70.00 Ry     beta= 0.70
     Davidson diagonalization with overlap
     ethr =  2.18E-08,  avg # of iterations =  2.0

     negative rho (up, down):  1.024E-03 1.663E-02

     total cpu time spent up to now is     4876.0 secs

     total energy              =    -951.88618543 Ry
     Harris-Foulkes estimate   =    -951.88618201 Ry
     estimated scf accuracy    <       0.00015492 Ry

     total magnetization       =    -0.00 Bohr mag/cell
     absolute magnetization    =     0.02 Bohr mag/cell

     iteration # 51     ecut=    70.00 Ry     beta= 0.70
     Davidson diagonalization with overlap
     ethr =  2.18E-08,  avg # of iterations =  2.0

     negative rho (up, down):  1.023E-03 2.169E-02

     total cpu time spent up to now is     4967.0 secs

     total energy              =    -951.88618262 Ry
     Harris-Foulkes estimate   =    -951.88618777 Ry
     estimated scf accuracy    <       0.00025034 Ry

     total magnetization       =     0.00 Bohr mag/cell
     absolute magnetization    =     0.02 Bohr mag/cell

     iteration # 52     ecut=    70.00 Ry     beta= 0.70
     Davidson diagonalization with overlap
     ethr =  2.18E-08,  avg # of iterations =  1.0

     negative rho (up, down):  1.025E-03 2.223E-02

     total cpu time spent up to now is     5055.2 secs

     total energy              =    -951.88617049 Ry
     Harris-Foulkes estimate   =    -951.88618275 Ry
     estimated scf accuracy    <       0.00019949 Ry

     total magnetization       =     0.00 Bohr mag/cell
     absolute magnetization    =     0.02 Bohr mag/cell

     iteration # 53     ecut=    70.00 Ry     beta= 0.70
     Davidson diagonalization with overlap
     ethr =  2.18E-08,  avg # of iterations =  2.0

     negative rho (up, down):  1.020E-03 6.602E-03

     total cpu time spent up to now is     5150.0 secs

     total energy              =    -951.88618573 Ry
     Harris-Foulkes estimate   =    -951.88617983 Ry
     estimated scf accuracy    <       0.00004640 Ry

     total magnetization       =     0.00 Bohr mag/cell
     absolute magnetization    =     0.01 Bohr mag/cell

     iteration # 54     ecut=    70.00 Ry     beta= 0.70
     Davidson diagonalization with overlap
     ethr =  2.15E-08,  avg # of iterations =  1.5

     negative rho (up, down):  1.019E-03 1.367E-03

     total cpu time spent up to now is     5239.9 secs

     total energy              =    -951.88618828 Ry
     Harris-Foulkes estimate   =    -951.88618891 Ry
     estimated scf accuracy    <       0.00001229 Ry

     total magnetization       =    -0.00 Bohr mag/cell
     absolute magnetization    =     0.00 Bohr mag/cell

     iteration # 55     ecut=    70.00 Ry     beta= 0.70
     Davidson diagonalization with overlap
     ethr =  5.69E-09,  avg # of iterations =  2.0

     negative rho (up, down):  1.019E-03 3.891E-03

     total cpu time spent up to now is     5334.3 secs

     total energy              =    -951.88618638 Ry
     Harris-Foulkes estimate   =    -951.88618994 Ry
     estimated scf accuracy    <       0.00002746 Ry

     total magnetization       =    -0.00 Bohr mag/cell
     absolute magnetization    =     0.00 Bohr mag/cell

     iteration # 56     ecut=    70.00 Ry     beta= 0.70
     Davidson diagonalization with overlap
     ethr =  5.69E-09,  avg # of iterations =  3.0

     negative rho (up, down):  1.021E-03 2.028E-02

     total cpu time spent up to now is     5432.6 secs

     total energy              =    -951.88618365 Ry
     Harris-Foulkes estimate   =    -951.88619275 Ry
     estimated scf accuracy    <       0.00025868 Ry

     total magnetization       =    -0.00 Bohr mag/cell
     absolute magnetization    =     0.02 Bohr mag/cell

     iteration # 57     ecut=    70.00 Ry     beta= 0.70
     Davidson diagonalization with overlap
     ethr =  5.69E-09,  avg # of iterations =  2.0

     negative rho (up, down):  1.023E-03 2.145E-02

     total cpu time spent up to now is     5523.3 secs

     total energy              =    -951.88618027 Ry
     Harris-Foulkes estimate   =    -951.88618405 Ry
     estimated scf accuracy    <       0.00014532 Ry

     total magnetization       =    -0.00 Bohr mag/cell
     absolute magnetization    =     0.02 Bohr mag/cell

     iteration # 58     ecut=    70.00 Ry     beta= 0.70
     Davidson diagonalization with overlap
     ethr =  5.69E-09,  avg # of iterations =  2.0

     negative rho (up, down):  1.022E-03 2.111E-02

     total cpu time spent up to now is     5620.3 secs

     total energy              =    -951.88618148 Ry
     Harris-Foulkes estimate   =    -951.88618265 Ry
     estimated scf accuracy    <       0.00017280 Ry

     total magnetization       =     0.00 Bohr mag/cell
     absolute magnetization    =     0.02 Bohr mag/cell

     iteration # 59     ecut=    70.00 Ry     beta= 0.70
     Davidson diagonalization with overlap
     ethr =  5.69E-09,  avg # of iterations =  2.0

     negative rho (up, down):  1.023E-03 1.746E-02

     total cpu time spent up to now is     5710.9 secs

     total energy              =    -951.88617996 Ry
     Harris-Foulkes estimate   =    -951.88618204 Ry
     estimated scf accuracy    <       0.00009644 Ry

     total magnetization       =    -0.00 Bohr mag/cell
     absolute magnetization    =     0.01 Bohr mag/cell

     iteration # 60     ecut=    70.00 Ry     beta= 0.70
     Davidson diagonalization with overlap
     ethr =  5.69E-09,  avg # of iterations =  2.0

     negative rho (up, down):  1.019E-03 9.326E-03

     total cpu time spent up to now is     5806.0 secs

     total energy              =    -951.88618788 Ry
     Harris-Foulkes estimate   =    -951.88618234 Ry
     estimated scf accuracy    <       0.00002795 Ry

     total magnetization       =     0.00 Bohr mag/cell
     absolute magnetization    =     0.01 Bohr mag/cell

     iteration # 61     ecut=    70.00 Ry     beta= 0.70
     Davidson diagonalization with overlap
     ethr =  5.69E-09,  avg # of iterations =  2.0

     negative rho (up, down):  1.019E-03 8.257E-03

     total cpu time spent up to now is     5896.3 secs

     total energy              =    -951.88618890 Ry
     Harris-Foulkes estimate   =    -951.88618843 Ry
     estimated scf accuracy    <       0.00003438 Ry

     total magnetization       =     0.00 Bohr mag/cell
     absolute magnetization    =     0.01 Bohr mag/cell

     iteration # 62     ecut=    70.00 Ry     beta= 0.70
     Davidson diagonalization with overlap
     ethr =  5.69E-09,  avg # of iterations =  1.0

     negative rho (up, down):  1.019E-03 9.746E-03

     total cpu time spent up to now is     5984.4 secs

     total energy              =    -951.88618636 Ry
     Harris-Foulkes estimate   =    -951.88618892 Ry
     estimated scf accuracy    <       0.00003839 Ry

     total magnetization       =     0.00 Bohr mag/cell
     absolute magnetization    =     0.01 Bohr mag/cell

     iteration # 63     ecut=    70.00 Ry     beta= 0.70
     Davidson diagonalization with overlap
     ethr =  5.69E-09,  avg # of iterations =  2.0

     negative rho (up, down):  1.018E-03 2.596E-03

     total cpu time spent up to now is     6078.2 secs

     total energy              =    -951.88618897 Ry
     Harris-Foulkes estimate   =    -951.88618762 Ry
     estimated scf accuracy    <       0.00000340 Ry

     total magnetization       =    -0.00 Bohr mag/cell
     absolute magnetization    =     0.00 Bohr mag/cell

     iteration # 64     ecut=    70.00 Ry     beta= 0.70
     Davidson diagonalization with overlap
     ethr =  1.57E-09,  avg # of iterations =  2.5

     negative rho (up, down):  1.018E-03 2.223E-03

     total cpu time spent up to now is     6174.1 secs

     total energy              =    -951.88618871 Ry
     Harris-Foulkes estimate   =    -951.88618982 Ry
     estimated scf accuracy    <       0.00000968 Ry

     total magnetization       =    -0.00 Bohr mag/cell
     absolute magnetization    =     0.00 Bohr mag/cell

     iteration # 65     ecut=    70.00 Ry     beta= 0.70
     Davidson diagonalization with overlap
     ethr =  1.57E-09,  avg # of iterations =  2.0

     negative rho (up, down):  1.018E-03 1.564E-03

     total cpu time spent up to now is     6269.5 secs

     total energy              =    -951.88618896 Ry
     Harris-Foulkes estimate   =    -951.88618945 Ry
     estimated scf accuracy    <       0.00000684 Ry

     total magnetization       =     0.00 Bohr mag/cell
     absolute magnetization    =     0.00 Bohr mag/cell

     iteration # 66     ecut=    70.00 Ry     beta= 0.70
     Davidson diagonalization with overlap
     ethr =  1.57E-09,  avg # of iterations =  2.0

     negative rho (up, down):  1.018E-03 3.614E-03

     total cpu time spent up to now is     6364.2 secs

     total energy              =    -951.88618935 Ry
     Harris-Foulkes estimate   =    -951.88618946 Ry
     estimated scf accuracy    <       0.00000968 Ry

     total magnetization       =     0.00 Bohr mag/cell
     absolute magnetization    =     0.00 Bohr mag/cell

     iteration # 67     ecut=    70.00 Ry     beta= 0.70
     Davidson diagonalization with overlap
     ethr =  1.57E-09,  avg # of iterations =  1.0

     negative rho (up, down):  1.018E-03 5.302E-03

     total cpu time spent up to now is     6452.6 secs

     total energy              =    -951.88618891 Ry
     Harris-Foulkes estimate   =    -951.88618936 Ry
     estimated scf accuracy    <       0.00001004 Ry

     total magnetization       =    -0.00 Bohr mag/cell
     absolute magnetization    =     0.00 Bohr mag/cell

     iteration # 68     ecut=    70.00 Ry     beta= 0.70
     Davidson diagonalization with overlap
     ethr =  1.57E-09,  avg # of iterations =  2.0

     negative rho (up, down):  1.018E-03 4.675E-03

     total cpu time spent up to now is     6542.8 secs

     total energy              =    -951.88618909 Ry
     Harris-Foulkes estimate   =    -951.88618904 Ry
     estimated scf accuracy    <       0.00000744 Ry

     total magnetization       =    -0.00 Bohr mag/cell
     absolute magnetization    =     0.00 Bohr mag/cell

     iteration # 69     ecut=    70.00 Ry     beta= 0.70
     Davidson diagonalization with overlap
     ethr =  1.57E-09,  avg # of iterations =  1.0

     negative rho (up, down):  1.017E-03 3.859E-03

     total cpu time spent up to now is     6631.5 secs

     total energy              =    -951.88618910 Ry
     Harris-Foulkes estimate   =    -951.88618910 Ry
     estimated scf accuracy    <       0.00000418 Ry

     total magnetization       =     0.00 Bohr mag/cell
     absolute magnetization    =     0.00 Bohr mag/cell

     iteration # 70     ecut=    70.00 Ry     beta= 0.70
     Davidson diagonalization with overlap
     ethr =  1.57E-09,  avg # of iterations =  2.0

     negative rho (up, down):  1.017E-03 3.531E-03

     total cpu time spent up to now is     6722.8 secs

     total energy              =    -951.88618924 Ry
     Harris-Foulkes estimate   =    -951.88618927 Ry
     estimated scf accuracy    <       0.00000652 Ry

     total magnetization       =    -0.00 Bohr mag/cell
     absolute magnetization    =     0.00 Bohr mag/cell

     iteration # 71     ecut=    70.00 Ry     beta= 0.70
     Davidson diagonalization with overlap
     ethr =  1.57E-09,  avg # of iterations =  2.0

     negative rho (up, down):  1.018E-03 4.761E-03

     total cpu time spent up to now is     6814.6 secs

     total energy              =    -951.88618918 Ry
     Harris-Foulkes estimate   =    -951.88618947 Ry
     estimated scf accuracy    <       0.00001509 Ry

     total magnetization       =    -0.00 Bohr mag/cell
     absolute magnetization    =     0.01 Bohr mag/cell

     iteration # 72     ecut=    70.00 Ry     beta= 0.70
     Davidson diagonalization with overlap
     ethr =  1.57E-09,  avg # of iterations =  1.0

     negative rho (up, down):  1.017E-03 6.658E-03

     total cpu time spent up to now is     6902.4 secs

     total energy              =    -951.88618779 Ry
     Harris-Foulkes estimate   =    -951.88618920 Ry
     estimated scf accuracy    <       0.00001994 Ry

     total magnetization       =     0.00 Bohr mag/cell
     absolute magnetization    =     0.01 Bohr mag/cell

     iteration # 73     ecut=    70.00 Ry     beta= 0.70
     Davidson diagonalization with overlap
     ethr =  1.57E-09,  avg # of iterations =  2.5

     negative rho (up, down):  1.017E-03 1.364E-03

     total cpu time spent up to now is     6998.6 secs

     total energy              =    -951.88618918 Ry
     Harris-Foulkes estimate   =    -951.88618862 Ry
     estimated scf accuracy    <       0.00000248 Ry

     total magnetization       =    -0.00 Bohr mag/cell
     absolute magnetization    =     0.00 Bohr mag/cell

     iteration # 74     ecut=    70.00 Ry     beta= 0.70
     Davidson diagonalization with overlap
     ethr =  1.15E-09,  avg # of iterations =  2.0

     negative rho (up, down):  1.017E-03 3.201E-05

     Magnetic moment per site:
     atom:    1    charge:    0.2113    magn:    0.0000    constr:    0.0000
     atom:    2    charge:    0.2113    magn:    0.0000    constr:    0.0000
     atom:    3    charge:    1.7155    magn:   -0.0000    constr:    0.0000
     atom:    4    charge:    1.7152    magn:    0.0000    constr:    0.0000
     atom:    5    charge:    1.7168    magn:   -0.0000    constr:    0.0000
     atom:    6    charge:    1.7146    magn:    0.0000    constr:    0.0000
     atom:    7    charge:    1.7168    magn:   -0.0000    constr:    0.0000
     atom:    8    charge:    1.7152    magn:    0.0000    constr:    0.0000
     atom:    9    charge:    1.7155    magn:    0.0000    constr:    0.0000
     atom:   10    charge:    1.7177    magn:   -0.0000    constr:    0.0000
     atom:   11    charge:    1.7155    magn:    0.0000    constr:    0.0000
     atom:   12    charge:    1.7177    magn:   -0.0000    constr:    0.0000
     atom:   13    charge:    1.7155    magn:    0.0000    constr:    0.0000
     atom:   14    charge:    1.7176    magn:    0.0000    constr:    0.0000
     atom:   15    charge:    1.7118    magn:   -0.0000    constr:    0.0000
     atom:   16    charge:    1.7114    magn:    0.0000    constr:    0.0000
     atom:   17    charge:    1.7207    magn:   -0.0000    constr:    0.0000
     atom:   18    charge:    1.7114    magn:    0.0000    constr:    0.0000
     atom:   19    charge:    1.7118    magn:   -0.0000    constr:    0.0000
     atom:   20    charge:    1.7176    magn:   -0.0000    constr:    0.0000
     atom:   21    charge:    1.7155    magn:    0.0000    constr:    0.0000
     atom:   22    charge:    1.7177    magn:   -0.0000    constr:    0.0000
     atom:   23    charge:    1.7155    magn:    0.0000    constr:    0.0000
     atom:   24    charge:    1.7152    magn:    0.0000    constr:    0.0000
     atom:   25    charge:    1.7117    magn:   -0.0000    constr:    0.0000
     atom:   26    charge:    1.7113    magn:    0.0000    constr:    0.0000
     atom:   27    charge:    1.8182    magn:   -0.0000    constr:    0.0000
     atom:   28    charge:   13.4049    magn:    0.0000    constr:    0.0000
     atom:   29    charge:    1.8182    magn:    0.0000    constr:    0.0000
     atom:   30    charge:    1.7114    magn:    0.0000    constr:    0.0000
     atom:   31    charge:    1.7118    magn:   -0.0000    constr:    0.0000
     atom:   32    charge:    1.7152    magn:    0.0000    constr:    0.0000
     atom:   33    charge:    1.7168    magn:   -0.0000    constr:    0.0000
     atom:   34    charge:    1.7154    magn:    0.0000    constr:    0.0000
     atom:   35    charge:    1.7168    magn:   -0.0000    constr:    0.0000
     atom:   36    charge:    1.7146    magn:    0.0000    constr:    0.0000
     atom:   37    charge:    1.7206    magn:   -0.0000    constr:    0.0000
     atom:   38    charge:    1.7113    magn:    0.0000    constr:    0.0000
     atom:   39    charge:    1.8182    magn:   -0.0000    constr:    0.0000
     atom:   40    charge:    1.7114    magn:    0.0000    constr:    0.0000
     atom:   41    charge:    1.7206    magn:   -0.0000    constr:    0.0000
     atom:   42    charge:    1.7146    magn:    0.0000    constr:    0.0000
     atom:   43    charge:    1.7168    magn:   -0.0000    constr:    0.0000
     atom:   44    charge:    1.7154    magn:    0.0000    constr:    0.0000
     atom:   45    charge:    1.7213    magn:   -0.0000    constr:    0.0000
     atom:   46    charge:    1.7154    magn:    0.0000    constr:    0.0000
     atom:   47    charge:    1.7168    magn:   -0.0000    constr:    0.0000
     atom:   48    charge:    1.7152    magn:    0.0000    constr:    0.0000
     atom:   49    charge:    1.7118    magn:   -0.0000    constr:    0.0000
     atom:   50    charge:    1.7176    magn:    0.0000    constr:    0.0000
     atom:   51    charge:    1.7118    magn:   -0.0000    constr:    0.0000
     atom:   52    charge:    1.7152    magn:    0.0000    constr:    0.0000

     total cpu time spent up to now is     7087.5 secs

     End of self-consistent calculation

 ------ SPIN UP ------------


          k = 0.0000 0.0000 0.0000 ( 87777 PWs)   bands (ev):

  -107.9041 -69.0729 -69.0727 -66.9876 -19.8169 -18.9972 -18.9968 -18.8797
   -18.8794 -18.7948 -18.7254 -17.1534 -17.1532 -17.1190 -17.0696 -17.0693
   -16.7440 -16.3026 -16.3025 -16.1564 -16.1563 -16.1430 -15.6599 -14.3003
   -14.3000 -14.1402 -14.0074 -14.0072 -13.5047 -13.1191 -13.1191 -13.0676
   -12.8912 -12.8911 -12.4908 -12.0656 -12.0654 -11.7027 -11.5585 -11.5584
   -10.9242 -10.4209 -10.4207  -9.5666  -9.3559  -9.3558  -9.2175  -9.2024
    -9.2024  -9.1877  -8.9428  -8.9428  -8.5831  -8.5830  -8.4465  -7.9330
    -7.8920  -7.8314  -7.8311  -7.6539  -7.5319  -7.5318  -7.4386  -7.4385
    -6.8362  -6.8135  -6.8129  -6.7439  -6.6836  -6.6093  -6.6092  -6.5462
    -6.5414  -6.5412  -6.5074  -6.4976  -6.4150  -6.4144  -6.3670  -6.2790
    -6.2789  -5.5373  -5.5372  -5.0209  -4.9404  -4.8329  -4.8327  -4.7488
    -4.7071  -4.7069  -4.4188  -4.3897  -4.3895  -3.8269  -3.8269  -3.7558
    -3.7496  -3.7495  -3.7132  -3.4093  -3.4091  -3.3403  -1.8822  -1.7977
    -1.7975  -1.5796  -1.5791  -1.1462   0.1212   0.1214   0.9138   0.9718
     0.9721   1.2226   1.2228   1.5608   2.4918   2.8123   2.8126   2.8621
     3.0505   3.0508   3.4503   3.4746   3.6173   3.7286   3.7331   3.7602
     3.9441   4.0356

     occupation numbers 
     1.0000   1.0000   1.0000   1.0000   1.0000   1.0000   1.0000   1.0000
     1.0000   1.0000   1.0000   1.0000   1.0000   1.0000   1.0000   1.0000
     1.0000   1.0000   1.0000   1.0000   1.0000   1.0000   1.0000   1.0000
     1.0000   1.0000   1.0000   1.0000   1.0000   1.0000   1.0000   1.0000
     1.0000   1.0000   1.0000   1.0000   1.0000   1.0000   1.0000   1.0000
     1.0000   1.0000   1.0000   1.0000   1.0000   1.0000   1.0000   1.0000
     1.0000   1.0000   1.0000   1.0000   1.0000   1.0000   1.0000   1.0000
     1.0000   1.0000   1.0000   1.0000   1.0000   1.0000   1.0000   1.0000
     1.0000   1.0000   1.0000   1.0000   1.0000   1.0000   1.0000   1.0000
     1.0000   1.0000   1.0000   1.0000   1.0000   1.0000   1.0000   1.0000
     1.0000   1.0000   1.0000   1.0000   1.0000   1.0000   1.0000   1.0000
     1.0000   1.0000   1.0000   1.0000   1.0000   1.0000   1.0000   1.0000
     1.0000   1.0000   1.0000   1.0000   1.0000   1.0000   1.0000   1.0000
     1.0000   1.0000   1.0000   1.0000   0.0000   0.0000   0.0000   0.0000
     0.0000   0.0000   0.0000   0.0000   0.0000   0.0000   0.0000   0.0000
     0.0000   0.0000   0.0000   0.0000   0.0000   0.0000   0.0000   0.0000
     0.0000   0.0000

 ------ SPIN DOWN ----------


          k = 0.0000 0.0000 0.0000 ( 87777 PWs)   bands (ev):

  -107.9040 -69.0728 -69.0726 -66.9876 -19.8169 -18.9972 -18.9968 -18.8797
   -18.8794 -18.7948 -18.7254 -17.1534 -17.1532 -17.1190 -17.0696 -17.0693
   -16.7440 -16.3026 -16.3025 -16.1564 -16.1563 -16.1430 -15.6599 -14.3003
   -14.3000 -14.1402 -14.0074 -14.0072 -13.5047 -13.1191 -13.1190 -13.0676
   -12.8912 -12.8911 -12.4908 -12.0656 -12.0654 -11.7027 -11.5585 -11.5584
   -10.9242 -10.4209 -10.4207  -9.5666  -9.3559  -9.3558  -9.2175  -9.2024
    -9.2024  -9.1877  -8.9428  -8.9428  -8.5831  -8.5830  -8.4465  -7.9330
    -7.8920  -7.8314  -7.8311  -7.6539  -7.5319  -7.5318  -7.4386  -7.4385
    -6.8362  -6.8135  -6.8129  -6.7439  -6.6836  -6.6093  -6.6092  -6.5462
    -6.5414  -6.5412  -6.5074  -6.4976  -6.4150  -6.4144  -6.3670  -6.2790
    -6.2789  -5.5373  -5.5372  -5.0209  -4.9404  -4.8329  -4.8327  -4.7488
    -4.7071  -4.7069  -4.4188  -4.3897  -4.3895  -3.8269  -3.8269  -3.7558
    -3.7496  -3.7495  -3.7131  -3.4092  -3.4090  -3.3403  -1.8822  -1.7977
    -1.7975  -1.5796  -1.5791  -1.1462   0.1212   0.1215   0.9138   0.9718
     0.9721   1.2226   1.2227   1.5608   2.4918   2.8123   2.8126   2.8621
     3.0505   3.0508   3.4503   3.4746   3.6173   3.7287   3.7332   3.7602
     3.9441   4.0356

     occupation numbers 
     1.0000   1.0000   1.0000   1.0000   1.0000   1.0000   1.0000   1.0000
     1.0000   1.0000   1.0000   1.0000   1.0000   1.0000   1.0000   1.0000
     1.0000   1.0000   1.0000   1.0000   1.0000   1.0000   1.0000   1.0000
     1.0000   1.0000   1.0000   1.0000   1.0000   1.0000   1.0000   1.0000
     1.0000   1.0000   1.0000   1.0000   1.0000   1.0000   1.0000   1.0000
     1.0000   1.0000   1.0000   1.0000   1.0000   1.0000   1.0000   1.0000
     1.0000   1.0000   1.0000   1.0000   1.0000   1.0000   1.0000   1.0000
     1.0000   1.0000   1.0000   1.0000   1.0000   1.0000   1.0000   1.0000
     1.0000   1.0000   1.0000   1.0000   1.0000   1.0000   1.0000   1.0000
     1.0000   1.0000   1.0000   1.0000   1.0000   1.0000   1.0000   1.0000
     1.0000   1.0000   1.0000   1.0000   1.0000   1.0000   1.0000   1.0000
     1.0000   1.0000   1.0000   1.0000   1.0000   1.0000   1.0000   1.0000
     1.0000   1.0000   1.0000   1.0000   1.0000   1.0000   1.0000   1.0000
     1.0000   1.0000   1.0000   1.0000   0.0000   0.0000   0.0000   0.0000
     0.0000   0.0000   0.0000   0.0000   0.0000   0.0000   0.0000   0.0000
     0.0000   0.0000   0.0000   0.0000   0.0000   0.0000   0.0000   0.0000
     0.0000   0.0000

     the Fermi energy is    -0.3119 ev

!    total energy              =    -951.88618932 Ry
     Harris-Foulkes estimate   =    -951.88618940 Ry
     estimated scf accuracy    <       0.00000047 Ry

     The total energy is the sum of the following terms:

     one-electron contribution =   -2960.75682501 Ry
     hartree contribution      =    1523.09543615 Ry
     xc contribution           =    -265.71412902 Ry
     ewald contribution        =     751.48932856 Ry
     smearing contrib. (-TS)   =       0.00000000 Ry

     total magnetization       =     0.00 Bohr mag/cell
     absolute magnetization    =     0.00 Bohr mag/cell

     convergence has been achieved in  74 iterations

     Writing output data file cobre-sixhollow-distance-4.5.save/

     init_run     :     72.84s CPU     74.06s WALL (       1 calls)
     electrons    :   6883.32s CPU   7012.45s WALL (       1 calls)

     Called by init_run:
     wfcinit      :     39.54s CPU     39.79s WALL (       1 calls)
     wfcinit:atom :      0.05s CPU      0.08s WALL (       2 calls)
     wfcinit:wfcr :     39.14s CPU     39.31s WALL (       2 calls)
     potinit      :     13.35s CPU     13.78s WALL (       1 calls)
     hinit0       :     12.02s CPU     12.05s WALL (       1 calls)

     Called by electrons:
     c_bands      :   4360.38s CPU   4386.30s WALL (      74 calls)
     sum_band     :   1453.43s CPU   1495.66s WALL (      74 calls)
     v_of_rho     :    525.36s CPU    549.59s WALL (      75 calls)
     v_h          :      5.32s CPU      5.47s WALL (      75 calls)
     v_xc         :    520.04s CPU    544.12s WALL (      75 calls)
     newd         :    508.14s CPU    544.79s WALL (      75 calls)
     mix_rho      :     33.28s CPU     33.82s WALL (      74 calls)

     Called by c_bands:
     init_us_2    :     12.76s CPU     12.81s WALL (     298 calls)
     cegterg      :   4325.21s CPU   4350.95s WALL (     148 calls)

     Called by sum_band:
     sum_band:bec :      0.12s CPU      0.12s WALL (     148 calls)
     addusdens    :    887.72s CPU    926.57s WALL (      74 calls)

     Called by *egterg:
     h_psi        :   2273.30s CPU   2291.57s WALL (     504 calls)
     s_psi        :    754.80s CPU    755.23s WALL (     504 calls)
     g_psi        :      2.48s CPU      2.48s WALL (     354 calls)
     cdiaghg      :     31.17s CPU     31.19s WALL (     502 calls)
     cegterg:over :    517.30s CPU    517.61s WALL (     354 calls)
     cegterg:upda :    304.90s CPU    306.89s WALL (     354 calls)
     cegterg:last :    235.23s CPU    235.32s WALL (     148 calls)

     Called by h_psi:
     h_psi:pot    :   2270.74s CPU   2286.08s WALL (     504 calls)
     h_psi:calbec :    758.79s CPU    759.33s WALL (     504 calls)
     vloc_psi     :    757.18s CPU    771.65s WALL (     504 calls)
     add_vuspsi   :    754.77s CPU    755.10s WALL (     504 calls)

     General routines
     calbec       :   1101.34s CPU   1102.06s WALL (     652 calls)
     fft          :    297.84s CPU    307.07s WALL (    5619 calls)
     ffts         :      5.25s CPU      5.45s WALL (     298 calls)
     fftw         :    816.07s CPU    831.70s WALL (  104656 calls)
     interpolate  :     12.02s CPU     12.38s WALL (     150 calls)

     Parallel routines
     fft_scatt_xy :    196.02s CPU    198.97s WALL (  110573 calls)
     fft_scatt_yz :    385.76s CPU    403.60s WALL (  110573 calls)

     PWSCF        :      1h55m CPU      1h58m WALL


   This run was terminated on:   2: 7:21   3Jan2023            

=------------------------------------------------------------------------------=
   JOB DONE.
=------------------------------------------------------------------------------=
