
     Program PWSCF v.6.4.1 starts on  3Jan2023 at 17:36:14 

     This program is part of the open-source Quantum ESPRESSO suite
     for quantum simulation of materials; please cite
         "P. Giannozzi et al., J. Phys.:Condens. Matter 21 395502 (2009);
         "P. Giannozzi et al., J. Phys.:Condens. Matter 29 465901 (2017);
          URL http://www.quantum-espresso.org", 
     in publications or presentations arising from this work. More details at
     http://www.quantum-espresso.org/quote

     Parallel version (MPI), running on     6 processors

     MPI processes distributed on     1 nodes
     R & G space division:  proc/nbgrp/npool/nimage =       6
     Reading input from distance-2.2.in

     Current dimensions of program PWSCF are:
     Max number of different atomic species (ntypx) = 10
     Max number of k-points (npk) =  40000
     Max angular momentum in pseudopotentials (lmaxx) =  3

     IMPORTANT: XC functional enforced from input :
     Exchange-correlation      = RVV10 ( 1  4 13  4 3 0)
     Any further DFT definition will be discarded
     Please, verify this is what you really want

               file H.pbe-rrkjus.UPF: wavefunction(s)  1S renormalized

     Subspace diagonalization in iterative solution of the eigenvalue problem:
     a serial algorithm will be used


     Parallelization info
     --------------------
     sticks:   dense  smooth     PW     G-vecs:    dense   smooth      PW
     Min        3051    1746    432               270999   117096   14629
     Max        3053    1747    437               271001   117099   14630
     Sum       18313   10477   2611              1626001   702581   87777



     bravais-lattice index     =            4
     lattice parameter (alat)  =      23.2937  a.u.
     unit-cell volume          =    8879.8548 (a.u.)^3
     number of atoms/cell      =           52
     number of atomic types    =            3
     number of electrons       =       216.00
     number of Kohn-Sham states=          130
     kinetic-energy cutoff     =      70.0000  Ry
     charge density cutoff     =     490.0000  Ry
     convergence threshold     =      1.0E-06
     mixing beta               =       0.7000
     number of iterations used =            8  plain     mixing
     Exchange-correlation      = RVV10 ( 1  4 13  4 3 0)

     celldm(1)=  23.293684  celldm(2)=   0.000000  celldm(3)=   0.811261
     celldm(4)=   0.000000  celldm(5)=   0.000000  celldm(6)=   0.000000

     crystal axes: (cart. coord. in units of alat)
               a(1) = (   1.000000   0.000000   0.000000 )  
               a(2) = (  -0.500000   0.866025   0.000000 )  
               a(3) = (   0.000000   0.000000   0.811261 )  

     reciprocal axes: (cart. coord. in units 2 pi/alat)
               b(1) = (  1.000000  0.577350 -0.000000 )  
               b(2) = (  0.000000  1.154701  0.000000 )  
               b(3) = (  0.000000 -0.000000  1.232649 )  


     PseudoPot. # 1 for H  read from file:
     /home/cristian/Escritorio/Proyecto_Grafeno/pseudopotenciales/H.pbe-rrkjus.UPF
     MD5 check sum: 7cc9d459525c9a0585f487a71c3c9563
     Pseudo is Ultrasoft, Zval =  1.0
     Generated by new atomic code, or converted to UPF format
     Using radial grid of 1061 points,  2 beta functions with: 
                l(1) =   0
                l(2) =   0
     Q(r) pseudized with 0 coefficients 


     PseudoPot. # 2 for C  read from file:
     /home/cristian/Escritorio/Proyecto_Grafeno/pseudopotenciales/C.pbe-n-rrkjus_psl.1.0.0.UPF
     MD5 check sum: 1fdd950c42eb37d8afe3dd2f8d12311e
     Pseudo is Ultrasoft + core correction, Zval =  4.0
     Generated using "atomic" code by A. Dal Corso v.6.3MaX
     Using radial grid of 1073 points,  4 beta functions with: 
                l(1) =   0
                l(2) =   0
                l(3) =   1
                l(4) =   1
     Q(r) pseudized with 0 coefficients 


     PseudoPot. # 3 for Ni read from file:
     /home/cristian/Escritorio/Proyecto_Grafeno/pseudopotenciales/Ni.pbe-spn-rrkjus_psl.1.0.0.UPF
     MD5 check sum: 8b3fc9aac6dafe35f580d41bb18c3945
     Pseudo is Ultrasoft + core correction, Zval = 18.0
     Generated using "atomic" code by A. Dal Corso v.6.3
     Using radial grid of 1195 points,  6 beta functions with: 
                l(1) =   0
                l(2) =   0
                l(3) =   1
                l(4) =   1
                l(5) =   2
                l(6) =   2
     Q(r) pseudized with 0 coefficients 


     vdW kernel table read from file rVV10_kernel_table
     MD5 check sum: b8e2538accc0c0b3206b45ba4daaba6c

     atomic species   valence    mass     pseudopotential
        H              1.00     1.00794     H ( 1.00)
        C              4.00    12.01070     C ( 1.00)
        Ni            18.00    58.69340     Ni( 1.00)

     Starting magnetic structure 
     atomic species   magnetization
        H            0.500
        C            0.300
        Ni           0.800

     No symmetry found


                                    s                        frac. trans.

      isym =  1     identity                                     

 cryst.   s( 1) = (     1          0          0      )
                  (     0          1          0      )
                  (     0          0          1      )

 cart.    s( 1) = (  1.0000000  0.0000000  0.0000000 )
                  (  0.0000000  1.0000000  0.0000000 )
                  (  0.0000000  0.0000000  1.0000000 )


     point group C_1 (1)    
     there are  1 classes
     the character table:

       E    
A      1.00

     the symmetry operations in each class and the name of the first element:

     E        1
          identity                                               

   Cartesian axes

     site n.     atom                  positions (alat units)
         1           H   tau(   1) = (   0.2694937   0.4041452   0.1784775  )
         2           H   tau(   2) = (   0.3305063   0.4041452   0.1784775  )
         3           C   tau(   3) = (   0.0000000   0.0000000   0.0000000  )
         4           C   tau(   4) = (   0.0000000   0.1154701   0.0000000  )
         5           C   tau(   5) = (  -0.1000000   0.1732051   0.0000000  )
         6           C   tau(   6) = (  -0.1000000   0.2886751   0.0000000  )
         7           C   tau(   7) = (  -0.2000000   0.3464102   0.0000000  )
         8           C   tau(   8) = (  -0.2000000   0.4618802   0.0000000  )
         9           C   tau(   9) = (  -0.3000000   0.5196152   0.0000000  )
        10           C   tau(  10) = (  -0.3000000   0.6350853   0.0000000  )
        11           C   tau(  11) = (  -0.4000000   0.6928203   0.0000000  )
        12           C   tau(  12) = (  -0.4000000   0.8082904   0.0000000  )
        13           C   tau(  13) = (   0.2000000   0.0000000   0.0000000  )
        14           C   tau(  14) = (   0.2000000   0.1154701   0.0000000  )
        15           C   tau(  15) = (   0.1000000   0.1732051   0.0000000  )
        16           C   tau(  16) = (   0.1000000   0.2886751   0.0000000  )
        17           C   tau(  17) = (   0.0000000   0.3464102   0.0000000  )
        18           C   tau(  18) = (   0.0000000   0.4618802   0.0000000  )
        19           C   tau(  19) = (  -0.1000000   0.5196152   0.0000000  )
        20           C   tau(  20) = (  -0.1000000   0.6350853   0.0000000  )
        21           C   tau(  21) = (  -0.2000000   0.6928203   0.0000000  )
        22           C   tau(  22) = (  -0.2000000   0.8082904   0.0000000  )
        23           C   tau(  23) = (   0.4000000   0.0000000   0.0000000  )
        24           C   tau(  24) = (   0.4000000   0.1154701   0.0000000  )
        25           C   tau(  25) = (   0.3000000   0.1732051   0.0000000  )
        26           C   tau(  26) = (   0.3000000   0.2886751   0.0000000  )
        27           C   tau(  27) = (   0.2000000   0.3464102   0.0000000  )
        28           Ni  tau(  28) = (   0.2000000   0.4618802   0.0000000  )
        29           C   tau(  29) = (   0.1000000   0.5196152   0.0000000  )
        30           C   tau(  30) = (   0.1000000   0.6350853   0.0000000  )
        31           C   tau(  31) = (   0.0000000   0.6928203   0.0000000  )
        32           C   tau(  32) = (   0.0000000   0.8082904   0.0000000  )
        33           C   tau(  33) = (   0.6000000   0.0000000   0.0000000  )
        34           C   tau(  34) = (   0.6000000   0.1154701   0.0000000  )
        35           C   tau(  35) = (   0.5000000   0.1732051   0.0000000  )
        36           C   tau(  36) = (   0.5000000   0.2886751   0.0000000  )
        37           C   tau(  37) = (   0.4000000   0.3464102   0.0000000  )
        38           C   tau(  38) = (   0.4000000   0.4618802   0.0000000  )
        39           C   tau(  39) = (   0.3000000   0.5196152   0.0000000  )
        40           C   tau(  40) = (   0.3000000   0.6350853   0.0000000  )
        41           C   tau(  41) = (   0.2000000   0.6928203   0.0000000  )
        42           C   tau(  42) = (   0.2000000   0.8082904   0.0000000  )
        43           C   tau(  43) = (   0.8000000   0.0000000   0.0000000  )
        44           C   tau(  44) = (   0.8000000   0.1154701   0.0000000  )
        45           C   tau(  45) = (   0.7000000   0.1732051   0.0000000  )
        46           C   tau(  46) = (   0.7000000   0.2886751   0.0000000  )
        47           C   tau(  47) = (   0.6000000   0.3464102   0.0000000  )
        48           C   tau(  48) = (   0.6000000   0.4618802   0.0000000  )
        49           C   tau(  49) = (   0.5000000   0.5196152   0.0000000  )
        50           C   tau(  50) = (   0.5000000   0.6350853   0.0000000  )
        51           C   tau(  51) = (   0.4000000   0.6928203   0.0000000  )
        52           C   tau(  52) = (   0.4000000   0.8082904   0.0000000  )

   Crystallographic axes

     site n.     atom                  positions (cryst. coord.)
         1           H   tau(   1) = (  0.5028270  0.4666667  0.2200000  )
         2           H   tau(   2) = (  0.5638397  0.4666667  0.2200000  )
         3           C   tau(   3) = (  0.0000000  0.0000000  0.0000000  )
         4           C   tau(   4) = (  0.0666667  0.1333333  0.0000000  )
         5           C   tau(   5) = (  0.0000000  0.2000000  0.0000000  )
         6           C   tau(   6) = (  0.0666667  0.3333333  0.0000000  )
         7           C   tau(   7) = (  0.0000000  0.4000000  0.0000000  )
         8           C   tau(   8) = (  0.0666667  0.5333333  0.0000000  )
         9           C   tau(   9) = (  0.0000000  0.6000000  0.0000000  )
        10           C   tau(  10) = (  0.0666667  0.7333333  0.0000000  )
        11           C   tau(  11) = (  0.0000000  0.8000000  0.0000000  )
        12           C   tau(  12) = (  0.0666667  0.9333333  0.0000000  )
        13           C   tau(  13) = (  0.2000000  0.0000000  0.0000000  )
        14           C   tau(  14) = (  0.2666667  0.1333333  0.0000000  )
        15           C   tau(  15) = (  0.2000000  0.2000000  0.0000000  )
        16           C   tau(  16) = (  0.2666667  0.3333333  0.0000000  )
        17           C   tau(  17) = (  0.2000000  0.4000000  0.0000000  )
        18           C   tau(  18) = (  0.2666667  0.5333333  0.0000000  )
        19           C   tau(  19) = (  0.2000000  0.6000000  0.0000000  )
        20           C   tau(  20) = (  0.2666667  0.7333333  0.0000000  )
        21           C   tau(  21) = (  0.2000000  0.8000000  0.0000000  )
        22           C   tau(  22) = (  0.2666667  0.9333333  0.0000000  )
        23           C   tau(  23) = (  0.4000000  0.0000000  0.0000000  )
        24           C   tau(  24) = (  0.4666667  0.1333333  0.0000000  )
        25           C   tau(  25) = (  0.4000000  0.2000000  0.0000000  )
        26           C   tau(  26) = (  0.4666667  0.3333333  0.0000000  )
        27           C   tau(  27) = (  0.4000000  0.4000000  0.0000000  )
        28           Ni  tau(  28) = (  0.4666667  0.5333333  0.0000000  )
        29           C   tau(  29) = (  0.4000000  0.6000000  0.0000000  )
        30           C   tau(  30) = (  0.4666667  0.7333333  0.0000000  )
        31           C   tau(  31) = (  0.4000000  0.8000000  0.0000000  )
        32           C   tau(  32) = (  0.4666667  0.9333333  0.0000000  )
        33           C   tau(  33) = (  0.6000000  0.0000000  0.0000000  )
        34           C   tau(  34) = (  0.6666667  0.1333333  0.0000000  )
        35           C   tau(  35) = (  0.6000000  0.2000000  0.0000000  )
        36           C   tau(  36) = (  0.6666667  0.3333333  0.0000000  )
        37           C   tau(  37) = (  0.6000000  0.4000000  0.0000000  )
        38           C   tau(  38) = (  0.6666667  0.5333333  0.0000000  )
        39           C   tau(  39) = (  0.6000000  0.6000000  0.0000000  )
        40           C   tau(  40) = (  0.6666667  0.7333333  0.0000000  )
        41           C   tau(  41) = (  0.6000000  0.8000000  0.0000000  )
        42           C   tau(  42) = (  0.6666667  0.9333333  0.0000000  )
        43           C   tau(  43) = (  0.8000000  0.0000000  0.0000000  )
        44           C   tau(  44) = (  0.8666667  0.1333333  0.0000000  )
        45           C   tau(  45) = (  0.8000000  0.2000000  0.0000000  )
        46           C   tau(  46) = (  0.8666667  0.3333333  0.0000000  )
        47           C   tau(  47) = (  0.8000000  0.4000000  0.0000000  )
        48           C   tau(  48) = (  0.8666667  0.5333333  0.0000000  )
        49           C   tau(  49) = (  0.8000000  0.6000000  0.0000000  )
        50           C   tau(  50) = (  0.8666667  0.7333333  0.0000000  )
        51           C   tau(  51) = (  0.8000000  0.8000000  0.0000000  )
        52           C   tau(  52) = (  0.8666667  0.9333333  0.0000000  )

     number of k points=     1  Marzari-Vanderbilt smearing, width (Ry)=  0.0010
                       cart. coord. in units 2pi/alat
        k(    1) = (   0.0000000   0.0000000   0.0000000), wk =   1.0000000

                       cryst. coord.
        k(    1) = (   0.0000000   0.0000000   0.0000000), wk =   1.0000000

     Dense  grid:  1626001 G-vectors     FFT dimensions: ( 180, 180, 135)

     Smooth grid:   702581 G-vectors     FFT dimensions: ( 125, 125, 108)

     Dynamical RAM for                 wfc:      29.03 MB

     Dynamical RAM for     wfc (w. buffer):      87.10 MB

     Dynamical RAM for           str. fact:      12.41 MB

     Dynamical RAM for           local pot:       0.00 MB

     Dynamical RAM for          nlocal pot:      92.46 MB

     Dynamical RAM for                qrad:      19.73 MB

     Dynamical RAM for          rho,v,vnew:      58.92 MB

     Dynamical RAM for               rhoin:      19.64 MB

     Dynamical RAM for            rho*nmix:     132.32 MB

     Dynamical RAM for           G-vectors:      16.40 MB

     Dynamical RAM for          h,s,v(r/c):      12.38 MB

     Dynamical RAM for          <psi|beta>:       0.82 MB

     Dynamical RAM for                 psi:     116.14 MB

     Dynamical RAM for                hpsi:     116.14 MB

     Dynamical RAM for                spsi:     116.14 MB

     Dynamical RAM for      wfcinit/wfcrot:      93.90 MB

     Dynamical RAM for           addusdens:     975.89 MB

     Estimated static dynamical RAM per process >     489.64 MB

     Estimated max dynamical RAM per process >       1.43 GB

     Estimated total dynamical RAM >       8.59 GB
     Generating pointlists ...
     new r_m :   0.0252 (alat units)  0.5862 (a.u.) for type    1
     new r_m :   0.0476 (alat units)  1.1095 (a.u.) for type    2
     new r_m :   0.0476 (alat units)  1.1095 (a.u.) for type    3

     Check: negative core charge=   -0.000002

     Initial potential from superposition of free atoms

     starting charge  215.80530, renormalised to  216.00000

     negative rho (up, down):  1.713E-04 1.872E-02


---------------------------------------------------------------------------------
Carrying out rVV10 run using the following parameters:
Nqs =      20    Nr_points =    1024   r_max =   100.000
b_value =  6.30000    beta =  0.00901
     q_mesh =  0.00010000  0.00030000  0.00058939  0.00100810
               0.00161396  0.00249058  0.00375900  0.00559430
               0.00824984  0.01209221  0.01765183  0.02569619
               0.03733578  0.05417739  0.07854596  0.11380545
               0.16482331  0.23864234  0.34545298  0.50000000

Gradients computed in Reciprocal space

---------------------------------------------------------------------------------


     Starting wfcs are  208 randomized atomic wfcs

     total cpu time spent up to now is       73.8 secs

     Self-consistent Calculation

     iteration #  1     ecut=    70.00 Ry     beta= 0.70
     Davidson diagonalization with overlap
     ethr =  1.00E-02,  avg # of iterations =  5.0

     negative rho (up, down):  3.364E-04 1.622E-02

     total cpu time spent up to now is      201.6 secs

     total energy              =    -946.71400379 Ry
     Harris-Foulkes estimate   =    -949.73197076 Ry
     estimated scf accuracy    <      14.20630218 Ry

     total magnetization       =     6.00 Bohr mag/cell
     absolute magnetization    =     6.75 Bohr mag/cell

     iteration #  2     ecut=    70.00 Ry     beta= 0.70
     Davidson diagonalization with overlap
     ethr =  6.58E-03,  avg # of iterations =  4.5

     negative rho (up, down):  1.310E-02 2.918E-01

     total cpu time spent up to now is      318.4 secs

     total energy              =    -949.39044002 Ry
     Harris-Foulkes estimate   =    -956.68293220 Ry
     estimated scf accuracy    <      36.80871558 Ry

     total magnetization       =     4.00 Bohr mag/cell
     absolute magnetization    =     7.98 Bohr mag/cell

     iteration #  3     ecut=    70.00 Ry     beta= 0.70
     Davidson diagonalization with overlap
     ethr =  6.58E-03,  avg # of iterations =  3.5

     negative rho (up, down):  2.116E-02 5.369E-01

     total cpu time spent up to now is      428.8 secs

     total energy              =    -951.63375584 Ry
     Harris-Foulkes estimate   =    -961.25352013 Ry
     estimated scf accuracy    <     549.16029000 Ry

     total magnetization       =     0.00 Bohr mag/cell
     absolute magnetization    =    34.49 Bohr mag/cell

     iteration #  4     ecut=    70.00 Ry     beta= 0.70
     Davidson diagonalization with overlap
     ethr =  6.58E-03,  avg # of iterations =  4.0

     negative rho (up, down):  2.428E-03 5.121E-01

     total cpu time spent up to now is      528.9 secs

     total energy              =    -946.19495566 Ry
     Harris-Foulkes estimate   =    -954.22756582 Ry
     estimated scf accuracy    <     141.13840729 Ry

     total magnetization       =     0.43 Bohr mag/cell
     absolute magnetization    =    17.81 Bohr mag/cell

     iteration #  5     ecut=    70.00 Ry     beta= 0.70
     Davidson diagonalization with overlap
     ethr =  6.58E-03,  avg # of iterations =  3.0

     negative rho (up, down):  7.148E-02 1.856E-01

     total cpu time spent up to now is      636.3 secs

     total energy              =    -953.80605885 Ry
     Harris-Foulkes estimate   =    -952.24670447 Ry
     estimated scf accuracy    <      58.21599310 Ry

     total magnetization       =    -0.00 Bohr mag/cell
     absolute magnetization    =    11.35 Bohr mag/cell

     iteration #  6     ecut=    70.00 Ry     beta= 0.70
     Davidson diagonalization with overlap
     ethr =  6.58E-03,  avg # of iterations =  3.0

     negative rho (up, down):  5.004E-02 5.095E-01

     total cpu time spent up to now is      739.8 secs

     total energy              =    -943.98816181 Ry
     Harris-Foulkes estimate   =    -961.50308390 Ry
     estimated scf accuracy    <     558.12537433 Ry

     total magnetization       =     2.00 Bohr mag/cell
     absolute magnetization    =    36.69 Bohr mag/cell

     iteration #  7     ecut=    70.00 Ry     beta= 0.70
     Davidson diagonalization with overlap
     ethr =  6.58E-03,  avg # of iterations =  3.0

     negative rho (up, down):  6.611E-02 4.103E-01

     total cpu time spent up to now is      854.4 secs

     total energy              =    -949.82652539 Ry
     Harris-Foulkes estimate   =    -952.07488517 Ry
     estimated scf accuracy    <      21.63070989 Ry

     total magnetization       =     2.00 Bohr mag/cell
     absolute magnetization    =     5.77 Bohr mag/cell

     iteration #  8     ecut=    70.00 Ry     beta= 0.70
     Davidson diagonalization with overlap
     ethr =  6.58E-03,  avg # of iterations =  2.0

     negative rho (up, down):  2.450E-02 3.651E-01

     total cpu time spent up to now is      947.0 secs

     total energy              =    -952.77744596 Ry
     Harris-Foulkes estimate   =    -952.13676550 Ry
     estimated scf accuracy    <      16.61122633 Ry

     total magnetization       =    -0.00 Bohr mag/cell
     absolute magnetization    =     5.86 Bohr mag/cell

     iteration #  9     ecut=    70.00 Ry     beta= 0.70
     Davidson diagonalization with overlap
     ethr =  6.58E-03,  avg # of iterations =  2.0

     negative rho (up, down):  5.531E-02 4.349E-01

     total cpu time spent up to now is     1040.2 secs

     total energy              =    -950.15988138 Ry
     Harris-Foulkes estimate   =    -953.44555230 Ry
     estimated scf accuracy    <     102.41955065 Ry

     total magnetization       =    -0.00 Bohr mag/cell
     absolute magnetization    =    15.04 Bohr mag/cell

     iteration # 10     ecut=    70.00 Ry     beta= 0.70
     Davidson diagonalization with overlap
     ethr =  6.58E-03,  avg # of iterations =  2.0

     negative rho (up, down):  4.326E-02 3.061E-01

     total cpu time spent up to now is     1136.1 secs

     total energy              =    -951.70985751 Ry
     Harris-Foulkes estimate   =    -951.79229986 Ry
     estimated scf accuracy    <       2.78086600 Ry

     total magnetization       =    -0.00 Bohr mag/cell
     absolute magnetization    =     1.19 Bohr mag/cell

     iteration # 11     ecut=    70.00 Ry     beta= 0.70
     Davidson diagonalization with overlap
     ethr =  1.29E-03,  avg # of iterations =  2.0

     negative rho (up, down):  2.370E-02 2.399E-01

     total cpu time spent up to now is     1230.3 secs

     total energy              =    -951.76440296 Ry
     Harris-Foulkes estimate   =    -951.89988722 Ry
     estimated scf accuracy    <       2.80407550 Ry

     total magnetization       =     0.00 Bohr mag/cell
     absolute magnetization    =     1.55 Bohr mag/cell

     iteration # 12     ecut=    70.00 Ry     beta= 0.70
     Davidson diagonalization with overlap
     ethr =  1.29E-03,  avg # of iterations =  2.0

     negative rho (up, down):  6.828E-03 2.071E-01

     total cpu time spent up to now is     1321.9 secs

     total energy              =    -951.82090003 Ry
     Harris-Foulkes estimate   =    -951.89868109 Ry
     estimated scf accuracy    <       0.56318023 Ry

     total magnetization       =     0.00 Bohr mag/cell
     absolute magnetization    =     0.62 Bohr mag/cell

     iteration # 13     ecut=    70.00 Ry     beta= 0.70
     Davidson diagonalization with overlap
     ethr =  2.61E-04,  avg # of iterations =  5.0

     negative rho (up, down):  2.076E-02 3.574E-01

     total cpu time spent up to now is     1419.2 secs

     total energy              =    -951.87258093 Ry
     Harris-Foulkes estimate   =    -951.92303949 Ry
     estimated scf accuracy    <       3.95380344 Ry

     total magnetization       =     0.01 Bohr mag/cell
     absolute magnetization    =     2.92 Bohr mag/cell

     iteration # 14     ecut=    70.00 Ry     beta= 0.70
     Davidson diagonalization with overlap
     ethr =  2.61E-04,  avg # of iterations =  2.0

     negative rho (up, down):  7.283E-03 3.570E-01

     total cpu time spent up to now is     1513.0 secs

     total energy              =    -951.87015727 Ry
     Harris-Foulkes estimate   =    -951.90862724 Ry
     estimated scf accuracy    <       3.52057760 Ry

     total magnetization       =     0.09 Bohr mag/cell
     absolute magnetization    =     2.90 Bohr mag/cell

     iteration # 15     ecut=    70.00 Ry     beta= 0.70
     Davidson diagonalization with overlap
     ethr =  2.61E-04,  avg # of iterations =  2.0

     negative rho (up, down):  2.316E-02 3.583E-01

     total cpu time spent up to now is     1605.6 secs

     total energy              =    -951.92170061 Ry
     Harris-Foulkes estimate   =    -951.90935518 Ry
     estimated scf accuracy    <       4.60275487 Ry

     total magnetization       =     0.00 Bohr mag/cell
     absolute magnetization    =     3.15 Bohr mag/cell

     iteration # 16     ecut=    70.00 Ry     beta= 0.70
     Davidson diagonalization with overlap
     ethr =  2.61E-04,  avg # of iterations =  3.0

     negative rho (up, down):  1.999E-02 4.509E-01

     total cpu time spent up to now is     1723.0 secs

     total energy              =    -951.30048571 Ry
     Harris-Foulkes estimate   =    -952.98164411 Ry
     estimated scf accuracy    <      79.88403502 Ry

     total magnetization       =     0.00 Bohr mag/cell
     absolute magnetization    =    14.01 Bohr mag/cell

     iteration # 17     ecut=    70.00 Ry     beta= 0.70
     Davidson diagonalization with overlap
     ethr =  2.61E-04,  avg # of iterations =  3.0

     negative rho (up, down):  3.601E-02 3.850E-01

     total cpu time spent up to now is     1838.8 secs

     total energy              =    -951.55649727 Ry
     Harris-Foulkes estimate   =    -951.96398260 Ry
     estimated scf accuracy    <      13.01177467 Ry

     total magnetization       =     0.31 Bohr mag/cell
     absolute magnetization    =     5.25 Bohr mag/cell

     iteration # 18     ecut=    70.00 Ry     beta= 0.70
     Davidson diagonalization with overlap
     ethr =  2.61E-04,  avg # of iterations =  3.0

     negative rho (up, down):  1.934E-02 3.873E-01

     total cpu time spent up to now is     1944.1 secs

     total energy              =    -951.72335891 Ry
     Harris-Foulkes estimate   =    -951.87989248 Ry
     estimated scf accuracy    <       4.92874124 Ry

     total magnetization       =     0.00 Bohr mag/cell
     absolute magnetization    =     3.16 Bohr mag/cell

     iteration # 19     ecut=    70.00 Ry     beta= 0.70
     Davidson diagonalization with overlap
     ethr =  2.61E-04,  avg # of iterations =  3.0

     negative rho (up, down):  1.516E-02 3.271E-01

     total cpu time spent up to now is     2046.1 secs

     total energy              =    -951.91873303 Ry
     Harris-Foulkes estimate   =    -951.87051243 Ry
     estimated scf accuracy    <       1.87280756 Ry

     total magnetization       =    -0.00 Bohr mag/cell
     absolute magnetization    =     2.08 Bohr mag/cell

     iteration # 20     ecut=    70.00 Ry     beta= 0.70
     Davidson diagonalization with overlap
     ethr =  2.61E-04,  avg # of iterations =  1.5

     negative rho (up, down):  1.856E-02 3.032E-01

     total cpu time spent up to now is     2136.9 secs

     total energy              =    -952.16783003 Ry
     Harris-Foulkes estimate   =    -951.94890126 Ry
     estimated scf accuracy    <       3.56575596 Ry

     total magnetization       =     0.00 Bohr mag/cell
     absolute magnetization    =     2.70 Bohr mag/cell

     iteration # 21     ecut=    70.00 Ry     beta= 0.70
     Davidson diagonalization with overlap
     ethr =  2.61E-04,  avg # of iterations =  3.0

     negative rho (up, down):  2.376E-02 4.175E-01

     total cpu time spent up to now is     2246.9 secs

     total energy              =    -951.76971886 Ry
     Harris-Foulkes estimate   =    -952.46499457 Ry
     estimated scf accuracy    <      32.93138791 Ry

     total magnetization       =     0.00 Bohr mag/cell
     absolute magnetization    =     8.47 Bohr mag/cell

     iteration # 22     ecut=    70.00 Ry     beta= 0.70
     Davidson diagonalization with overlap
     ethr =  2.61E-04,  avg # of iterations =  3.0

     negative rho (up, down):  2.723E-02 3.821E-01

     total cpu time spent up to now is     2352.1 secs

     total energy              =    -951.68599374 Ry
     Harris-Foulkes estimate   =    -951.96551643 Ry
     estimated scf accuracy    <       7.18427182 Ry

     total magnetization       =    -0.00 Bohr mag/cell
     absolute magnetization    =     3.76 Bohr mag/cell

     iteration # 23     ecut=    70.00 Ry     beta= 0.70
     Davidson diagonalization with overlap
     ethr =  2.61E-04,  avg # of iterations =  2.5

     negative rho (up, down):  1.478E-02 3.218E-01

     total cpu time spent up to now is     2453.5 secs

     total energy              =    -951.83048049 Ry
     Harris-Foulkes estimate   =    -951.83821449 Ry
     estimated scf accuracy    <       1.07447914 Ry

     total magnetization       =    -0.00 Bohr mag/cell
     absolute magnetization    =     1.26 Bohr mag/cell

     iteration # 24     ecut=    70.00 Ry     beta= 0.70
     Davidson diagonalization with overlap
     ethr =  2.61E-04,  avg # of iterations =  1.5

     negative rho (up, down):  4.052E-03 3.105E-01

     total cpu time spent up to now is     2546.0 secs

     total energy              =    -951.85052459 Ry
     Harris-Foulkes estimate   =    -951.85767254 Ry
     estimated scf accuracy    <       0.28931711 Ry

     total magnetization       =     0.00 Bohr mag/cell
     absolute magnetization    =     0.81 Bohr mag/cell

     iteration # 25     ecut=    70.00 Ry     beta= 0.70
     Davidson diagonalization with overlap
     ethr =  1.34E-04,  avg # of iterations =  2.0

     negative rho (up, down):  5.669E-03 1.710E-01

     total cpu time spent up to now is     2638.2 secs

     total energy              =    -951.86366964 Ry
     Harris-Foulkes estimate   =    -951.86722756 Ry
     estimated scf accuracy    <       0.10833834 Ry

     total magnetization       =    -0.03 Bohr mag/cell
     absolute magnetization    =     0.27 Bohr mag/cell

     iteration # 26     ecut=    70.00 Ry     beta= 0.70
     Davidson diagonalization with overlap
     ethr =  5.02E-05,  avg # of iterations =  2.5

     negative rho (up, down):  1.831E-03 3.125E-01

     total cpu time spent up to now is     2740.7 secs

     total energy              =    -951.86720261 Ry
     Harris-Foulkes estimate   =    -951.88506019 Ry
     estimated scf accuracy    <       0.96030307 Ry

     total magnetization       =    -0.00 Bohr mag/cell
     absolute magnetization    =     1.49 Bohr mag/cell

     iteration # 27     ecut=    70.00 Ry     beta= 0.70
     Davidson diagonalization with overlap
     ethr =  5.02E-05,  avg # of iterations =  2.0

     negative rho (up, down):  4.113E-03 2.583E-01

     total cpu time spent up to now is     2836.8 secs

     total energy              =    -951.85670878 Ry
     Harris-Foulkes estimate   =    -951.87439410 Ry
     estimated scf accuracy    <       0.25526332 Ry

     total magnetization       =     0.00 Bohr mag/cell
     absolute magnetization    =     0.64 Bohr mag/cell

     iteration # 28     ecut=    70.00 Ry     beta= 0.70
     Davidson diagonalization with overlap
     ethr =  5.02E-05,  avg # of iterations =  2.0

     negative rho (up, down):  3.955E-03 2.405E-01

     total cpu time spent up to now is     2931.2 secs

     total energy              =    -951.87146398 Ry
     Harris-Foulkes estimate   =    -951.86891051 Ry
     estimated scf accuracy    <       0.15029940 Ry

     total magnetization       =    -0.06 Bohr mag/cell
     absolute magnetization    =     0.58 Bohr mag/cell

     iteration # 29     ecut=    70.00 Ry     beta= 0.70
     Davidson diagonalization with overlap
     ethr =  5.02E-05,  avg # of iterations =  1.0

     negative rho (up, down):  5.521E-03 2.747E-01

     total cpu time spent up to now is     3021.0 secs

     total energy              =    -951.86432112 Ry
     Harris-Foulkes estimate   =    -951.87197773 Ry
     estimated scf accuracy    <       0.23113160 Ry

     total magnetization       =    -0.00 Bohr mag/cell
     absolute magnetization    =     0.70 Bohr mag/cell

     iteration # 30     ecut=    70.00 Ry     beta= 0.70
     Davidson diagonalization with overlap
     ethr =  5.02E-05,  avg # of iterations =  1.5

     negative rho (up, down):  1.758E-03 2.052E-01

     total cpu time spent up to now is     3112.6 secs

     total energy              =    -951.86946608 Ry
     Harris-Foulkes estimate   =    -951.86749728 Ry
     estimated scf accuracy    <       0.00899762 Ry

     total magnetization       =     0.00 Bohr mag/cell
     absolute magnetization    =     0.14 Bohr mag/cell

     iteration # 31     ecut=    70.00 Ry     beta= 0.70
     Davidson diagonalization with overlap
     ethr =  4.17E-06,  avg # of iterations =  4.0

     negative rho (up, down):  4.381E-03 2.077E-01

     total cpu time spent up to now is     3229.1 secs

     total energy              =    -951.86789644 Ry
     Harris-Foulkes estimate   =    -951.87432357 Ry
     estimated scf accuracy    <       0.15531341 Ry

     total magnetization       =     0.00 Bohr mag/cell
     absolute magnetization    =     0.49 Bohr mag/cell

     iteration # 32     ecut=    70.00 Ry     beta= 0.70
     Davidson diagonalization with overlap
     ethr =  4.17E-06,  avg # of iterations =  4.0

     negative rho (up, down):  1.884E-03 2.416E-01

     total cpu time spent up to now is     3342.0 secs

     total energy              =    -951.86816509 Ry
     Harris-Foulkes estimate   =    -951.87132777 Ry
     estimated scf accuracy    <       0.08332437 Ry

     total magnetization       =     0.00 Bohr mag/cell
     absolute magnetization    =     0.41 Bohr mag/cell

     iteration # 33     ecut=    70.00 Ry     beta= 0.70
     Davidson diagonalization with overlap
     ethr =  4.17E-06,  avg # of iterations =  3.5

     negative rho (up, down):  2.075E-03 1.706E-01

     total cpu time spent up to now is     3444.6 secs

     total energy              =    -951.87049933 Ry
     Harris-Foulkes estimate   =    -951.86963394 Ry
     estimated scf accuracy    <       0.02392176 Ry

     total magnetization       =     0.00 Bohr mag/cell
     absolute magnetization    =     0.21 Bohr mag/cell

     iteration # 34     ecut=    70.00 Ry     beta= 0.70
     Davidson diagonalization with overlap
     ethr =  4.17E-06,  avg # of iterations =  4.0

     negative rho (up, down):  1.824E-03 2.805E-01

     total cpu time spent up to now is     3556.1 secs

     total energy              =    -951.86660617 Ry
     Harris-Foulkes estimate   =    -951.87580533 Ry
     estimated scf accuracy    <       0.29335377 Ry

     total magnetization       =     0.00 Bohr mag/cell
     absolute magnetization    =     0.81 Bohr mag/cell

     iteration # 35     ecut=    70.00 Ry     beta= 0.70
     Davidson diagonalization with overlap
     ethr =  4.17E-06,  avg # of iterations =  4.0

     negative rho (up, down):  2.224E-03 2.365E-01

     total cpu time spent up to now is     3664.0 secs

     total energy              =    -951.86855783 Ry
     Harris-Foulkes estimate   =    -951.86907020 Ry
     estimated scf accuracy    <       0.05037223 Ry

     total magnetization       =    -0.00 Bohr mag/cell
     absolute magnetization    =     0.32 Bohr mag/cell

     iteration # 36     ecut=    70.00 Ry     beta= 0.70
     Davidson diagonalization with overlap
     ethr =  4.17E-06,  avg # of iterations =  2.5

     negative rho (up, down):  1.458E-03 2.386E-01

     total cpu time spent up to now is     3769.0 secs

     total energy              =    -951.87017518 Ry
     Harris-Foulkes estimate   =    -951.87109347 Ry
     estimated scf accuracy    <       0.09968486 Ry

     total magnetization       =     0.00 Bohr mag/cell
     absolute magnetization    =     0.48 Bohr mag/cell

     iteration # 37     ecut=    70.00 Ry     beta= 0.70
     Davidson diagonalization with overlap
     ethr =  4.17E-06,  avg # of iterations =  3.0

     negative rho (up, down):  1.840E-03 2.227E-01

     total cpu time spent up to now is     3864.0 secs

     total energy              =    -951.86821798 Ry
     Harris-Foulkes estimate   =    -951.87036442 Ry
     estimated scf accuracy    <       0.05013654 Ry

     total magnetization       =     0.00 Bohr mag/cell
     absolute magnetization    =     0.33 Bohr mag/cell

     iteration # 38     ecut=    70.00 Ry     beta= 0.70
     Davidson diagonalization with overlap
     ethr =  4.17E-06,  avg # of iterations =  3.0

     negative rho (up, down):  3.773E-03 1.762E-01

     total cpu time spent up to now is     3963.7 secs

     total energy              =    -951.86928944 Ry
     Harris-Foulkes estimate   =    -951.87018968 Ry
     estimated scf accuracy    <       0.05522079 Ry

     total magnetization       =    -0.00 Bohr mag/cell
     absolute magnetization    =     0.30 Bohr mag/cell

     iteration # 39     ecut=    70.00 Ry     beta= 0.70
     Davidson diagonalization with overlap
     ethr =  4.17E-06,  avg # of iterations =  3.0

     negative rho (up, down):  2.107E-03 1.830E-01

     total cpu time spent up to now is     4059.3 secs

     total energy              =    -951.87032826 Ry
     Harris-Foulkes estimate   =    -951.86964996 Ry
     estimated scf accuracy    <       0.01696399 Ry

     total magnetization       =     0.00 Bohr mag/cell
     absolute magnetization    =     0.20 Bohr mag/cell

     iteration # 40     ecut=    70.00 Ry     beta= 0.70
     Davidson diagonalization with overlap
     ethr =  4.17E-06,  avg # of iterations =  2.5

     negative rho (up, down):  2.161E-03 2.016E-01

     total cpu time spent up to now is     4152.4 secs

     total energy              =    -951.87022741 Ry
     Harris-Foulkes estimate   =    -951.87047969 Ry
     estimated scf accuracy    <       0.03903524 Ry

     total magnetization       =     0.00 Bohr mag/cell
     absolute magnetization    =     0.28 Bohr mag/cell

     iteration # 41     ecut=    70.00 Ry     beta= 0.70
     Davidson diagonalization with overlap
     ethr =  4.17E-06,  avg # of iterations =  1.5

     negative rho (up, down):  2.261E-03 2.066E-01

     total cpu time spent up to now is     4242.4 secs

     total energy              =    -951.87020387 Ry
     Harris-Foulkes estimate   =    -951.87024480 Ry
     estimated scf accuracy    <       0.04010083 Ry

     total magnetization       =     0.00 Bohr mag/cell
     absolute magnetization    =     0.29 Bohr mag/cell

     iteration # 42     ecut=    70.00 Ry     beta= 0.70
     Davidson diagonalization with overlap
     ethr =  4.17E-06,  avg # of iterations =  1.0

     negative rho (up, down):  2.540E-03 2.078E-01

     total cpu time spent up to now is     4332.2 secs

     total energy              =    -951.86978688 Ry
     Harris-Foulkes estimate   =    -951.87029062 Ry
     estimated scf accuracy    <       0.04785556 Ry

     total magnetization       =    -0.00 Bohr mag/cell
     absolute magnetization    =     0.31 Bohr mag/cell

     iteration # 43     ecut=    70.00 Ry     beta= 0.70
     Davidson diagonalization with overlap
     ethr =  4.17E-06,  avg # of iterations =  2.5

     negative rho (up, down):  2.648E-03 2.087E-01

     total cpu time spent up to now is     4425.0 secs

     total energy              =    -951.87052659 Ry
     Harris-Foulkes estimate   =    -951.87051157 Ry
     estimated scf accuracy    <       0.05755622 Ry

     total magnetization       =    -0.00 Bohr mag/cell
     absolute magnetization    =     0.35 Bohr mag/cell

     iteration # 44     ecut=    70.00 Ry     beta= 0.70
     Davidson diagonalization with overlap
     ethr =  4.17E-06,  avg # of iterations =  2.5

     negative rho (up, down):  4.248E-03 2.398E-01

     total cpu time spent up to now is     4521.7 secs

     total energy              =    -951.87006607 Ry
     Harris-Foulkes estimate   =    -951.87190765 Ry
     estimated scf accuracy    <       0.17310054 Ry

     total magnetization       =    -0.00 Bohr mag/cell
     absolute magnetization    =     0.59 Bohr mag/cell

     iteration # 45     ecut=    70.00 Ry     beta= 0.70
     Davidson diagonalization with overlap
     ethr =  4.17E-06,  avg # of iterations =  2.5

     negative rho (up, down):  4.829E-03 2.324E-01

     total cpu time spent up to now is     4616.4 secs

     total energy              =    -951.86937186 Ry
     Harris-Foulkes estimate   =    -951.87050375 Ry
     estimated scf accuracy    <       0.13556797 Ry

     total magnetization       =    -0.00 Bohr mag/cell
     absolute magnetization    =     0.50 Bohr mag/cell

     iteration # 46     ecut=    70.00 Ry     beta= 0.70
     Davidson diagonalization with overlap
     ethr =  4.17E-06,  avg # of iterations =  2.0

     negative rho (up, down):  3.743E-03 2.358E-01

     total cpu time spent up to now is     4709.9 secs

     total energy              =    -951.87029062 Ry
     Harris-Foulkes estimate   =    -951.87002801 Ry
     estimated scf accuracy    <       0.09934162 Ry

     total magnetization       =     0.00 Bohr mag/cell
     absolute magnetization    =     0.45 Bohr mag/cell

     iteration # 47     ecut=    70.00 Ry     beta= 0.70
     Davidson diagonalization with overlap
     ethr =  4.17E-06,  avg # of iterations =  2.0

     negative rho (up, down):  3.444E-03 2.352E-01

     total cpu time spent up to now is     4801.3 secs

     total energy              =    -951.87002093 Ry
     Harris-Foulkes estimate   =    -951.87033207 Ry
     estimated scf accuracy    <       0.09222263 Ry

     total magnetization       =    -0.00 Bohr mag/cell
     absolute magnetization    =     0.43 Bohr mag/cell

     iteration # 48     ecut=    70.00 Ry     beta= 0.70
     Davidson diagonalization with overlap
     ethr =  4.17E-06,  avg # of iterations =  2.0

     negative rho (up, down):  4.193E-03 2.038E-01

     total cpu time spent up to now is     4894.5 secs

     total energy              =    -951.87336573 Ry
     Harris-Foulkes estimate   =    -951.87059339 Ry
     estimated scf accuracy    <       0.09098536 Ry

     total magnetization       =     0.00 Bohr mag/cell
     absolute magnetization    =     0.40 Bohr mag/cell

     iteration # 49     ecut=    70.00 Ry     beta= 0.70
     Davidson diagonalization with overlap
     ethr =  4.17E-06,  avg # of iterations =  4.0

     negative rho (up, down):  3.651E-03 2.699E-01

     total cpu time spent up to now is     5009.6 secs

     total energy              =    -951.87178772 Ry
     Harris-Foulkes estimate   =    -951.87749605 Ry
     estimated scf accuracy    <       0.37817972 Ry

     total magnetization       =    -0.00 Bohr mag/cell
     absolute magnetization    =     0.90 Bohr mag/cell

     iteration # 50     ecut=    70.00 Ry     beta= 0.70
     Davidson diagonalization with overlap
     ethr =  4.17E-06,  avg # of iterations =  2.5

     negative rho (up, down):  2.254E-03 2.710E-01

     total cpu time spent up to now is     5108.7 secs

     total energy              =    -951.86094253 Ry
     Harris-Foulkes estimate   =    -951.87276821 Ry
     estimated scf accuracy    <       0.19077376 Ry

     total magnetization       =    -0.08 Bohr mag/cell
     absolute magnetization    =     0.69 Bohr mag/cell

     iteration # 51     ecut=    70.00 Ry     beta= 0.70
     Davidson diagonalization with overlap
     ethr =  4.17E-06,  avg # of iterations =  4.0

     negative rho (up, down):  1.383E-03 1.499E-01

     total cpu time spent up to now is     5229.2 secs

     total energy              =    -951.86960295 Ry
     Harris-Foulkes estimate   =    -951.86772207 Ry
     estimated scf accuracy    <       0.00709306 Ry

     total magnetization       =    -0.16 Bohr mag/cell
     absolute magnetization    =     0.23 Bohr mag/cell

     iteration # 52     ecut=    70.00 Ry     beta= 0.70
     Davidson diagonalization with overlap
     ethr =  3.28E-06,  avg # of iterations =  4.0

     negative rho (up, down):  1.468E-03 6.436E-02

     total cpu time spent up to now is     5328.7 secs

     total energy              =    -951.87008786 Ry
     Harris-Foulkes estimate   =    -951.87032630 Ry
     estimated scf accuracy    <       0.00540634 Ry

     total magnetization       =     0.00 Bohr mag/cell
     absolute magnetization    =     0.06 Bohr mag/cell

     iteration # 53     ecut=    70.00 Ry     beta= 0.70
     Davidson diagonalization with overlap
     ethr =  2.50E-06,  avg # of iterations =  4.0

     negative rho (up, down):  1.301E-03 2.573E-02

     total cpu time spent up to now is     5425.3 secs

     total energy              =    -951.87021239 Ry
     Harris-Foulkes estimate   =    -951.87066963 Ry
     estimated scf accuracy    <       0.00322001 Ry

     total magnetization       =    -0.00 Bohr mag/cell
     absolute magnetization    =     0.06 Bohr mag/cell

     iteration # 54     ecut=    70.00 Ry     beta= 0.70
     Davidson diagonalization with overlap
     ethr =  1.49E-06,  avg # of iterations =  3.0

     negative rho (up, down):  2.192E-03 2.064E-01

     total cpu time spent up to now is     5529.1 secs

     total energy              =    -951.86975053 Ry
     Harris-Foulkes estimate   =    -951.87147048 Ry
     estimated scf accuracy    <       0.06748983 Ry

     total magnetization       =    -0.00 Bohr mag/cell
     absolute magnetization    =     0.38 Bohr mag/cell

     iteration # 55     ecut=    70.00 Ry     beta= 0.70
     Davidson diagonalization with overlap
     ethr =  1.49E-06,  avg # of iterations =  4.0

     negative rho (up, down):  2.453E-03 1.875E-01

     total cpu time spent up to now is     5626.8 secs

     total energy              =    -951.86953814 Ry
     Harris-Foulkes estimate   =    -951.86996438 Ry
     estimated scf accuracy    <       0.02870268 Ry

     total magnetization       =     0.00 Bohr mag/cell
     absolute magnetization    =     0.23 Bohr mag/cell

     iteration # 56     ecut=    70.00 Ry     beta= 0.70
     Davidson diagonalization with overlap
     ethr =  1.49E-06,  avg # of iterations =  2.0

     negative rho (up, down):  2.163E-03 2.033E-01

     total cpu time spent up to now is     5726.4 secs

     total energy              =    -951.87002883 Ry
     Harris-Foulkes estimate   =    -951.87047218 Ry
     estimated scf accuracy    <       0.04952013 Ry

     total magnetization       =     0.00 Bohr mag/cell
     absolute magnetization    =     0.34 Bohr mag/cell

     iteration # 57     ecut=    70.00 Ry     beta= 0.70
     Davidson diagonalization with overlap
     ethr =  1.49E-06,  avg # of iterations =  3.0

     negative rho (up, down):  2.175E-03 1.932E-01

     total cpu time spent up to now is     5822.7 secs

     total energy              =    -951.86937848 Ry
     Harris-Foulkes estimate   =    -951.87015890 Ry
     estimated scf accuracy    <       0.02709394 Ry

     total magnetization       =     0.00 Bohr mag/cell
     absolute magnetization    =     0.24 Bohr mag/cell

     iteration # 58     ecut=    70.00 Ry     beta= 0.70
     Davidson diagonalization with overlap
     ethr =  1.49E-06,  avg # of iterations =  2.0

     negative rho (up, down):  2.537E-03 9.890E-02

     total cpu time spent up to now is     5920.3 secs

     total energy              =    -951.86955739 Ry
     Harris-Foulkes estimate   =    -951.87021335 Ry
     estimated scf accuracy    <       0.01857241 Ry

     total magnetization       =    -0.00 Bohr mag/cell
     absolute magnetization    =     0.11 Bohr mag/cell

     iteration # 59     ecut=    70.00 Ry     beta= 0.70
     Davidson diagonalization with overlap
     ethr =  1.49E-06,  avg # of iterations =  4.0

     negative rho (up, down):  1.448E-03 9.344E-02

     total cpu time spent up to now is     6020.4 secs

     total energy              =    -951.87040622 Ry
     Harris-Foulkes estimate   =    -951.87000096 Ry
     estimated scf accuracy    <       0.00341187 Ry

     total magnetization       =    -0.00 Bohr mag/cell
     absolute magnetization    =     0.10 Bohr mag/cell

     iteration # 60     ecut=    70.00 Ry     beta= 0.70
     Davidson diagonalization with overlap
     ethr =  1.49E-06,  avg # of iterations =  2.0

     negative rho (up, down):  1.285E-03 1.104E-01

     total cpu time spent up to now is     6112.4 secs

     total energy              =    -951.87011053 Ry
     Harris-Foulkes estimate   =    -951.87041576 Ry
     estimated scf accuracy    <       0.00472604 Ry

     total magnetization       =     0.00 Bohr mag/cell
     absolute magnetization    =     0.12 Bohr mag/cell

     iteration # 61     ecut=    70.00 Ry     beta= 0.70
     Davidson diagonalization with overlap
     ethr =  1.49E-06,  avg # of iterations =  2.5

     negative rho (up, down):  1.372E-03 3.211E-02

     total cpu time spent up to now is     6206.1 secs

     total energy              =    -951.87034214 Ry
     Harris-Foulkes estimate   =    -951.87048717 Ry
     estimated scf accuracy    <       0.00293111 Ry

     total magnetization       =    -0.00 Bohr mag/cell
     absolute magnetization    =     0.04 Bohr mag/cell

     iteration # 62     ecut=    70.00 Ry     beta= 0.70
     Davidson diagonalization with overlap
     ethr =  1.36E-06,  avg # of iterations =  3.0

     negative rho (up, down):  1.454E-03 6.345E-02

     total cpu time spent up to now is     6304.8 secs

     total energy              =    -951.87027169 Ry
     Harris-Foulkes estimate   =    -951.87062329 Ry
     estimated scf accuracy    <       0.00478159 Ry

     total magnetization       =    -0.00 Bohr mag/cell
     absolute magnetization    =     0.07 Bohr mag/cell

     iteration # 63     ecut=    70.00 Ry     beta= 0.70
     Davidson diagonalization with overlap
     ethr =  1.36E-06,  avg # of iterations =  2.0

     negative rho (up, down):  1.259E-03 3.241E-02

     total cpu time spent up to now is     6397.3 secs

     total energy              =    -951.87049017 Ry
     Harris-Foulkes estimate   =    -951.87042911 Ry
     estimated scf accuracy    <       0.00028836 Ry

     total magnetization       =    -0.00 Bohr mag/cell
     absolute magnetization    =     0.02 Bohr mag/cell

     iteration # 64     ecut=    70.00 Ry     beta= 0.70
     Davidson diagonalization with overlap
     ethr =  1.33E-07,  avg # of iterations =  2.5

     negative rho (up, down):  1.335E-03 9.772E-02

     total cpu time spent up to now is     6496.5 secs

     total energy              =    -951.87044818 Ry
     Harris-Foulkes estimate   =    -951.87056676 Ry
     estimated scf accuracy    <       0.00390666 Ry

     total magnetization       =     0.00 Bohr mag/cell
     absolute magnetization    =     0.09 Bohr mag/cell

     iteration # 65     ecut=    70.00 Ry     beta= 0.70
     Davidson diagonalization with overlap
     ethr =  1.33E-07,  avg # of iterations =  2.5

     negative rho (up, down):  1.396E-03 1.143E-01

     total cpu time spent up to now is     6588.2 secs

     total energy              =    -951.87030501 Ry
     Harris-Foulkes estimate   =    -951.87045024 Ry
     estimated scf accuracy    <       0.00424968 Ry

     total magnetization       =     0.00 Bohr mag/cell
     absolute magnetization    =     0.09 Bohr mag/cell

     iteration # 66     ecut=    70.00 Ry     beta= 0.70
     Davidson diagonalization with overlap
     ethr =  1.33E-07,  avg # of iterations =  2.0

     negative rho (up, down):  1.298E-03 8.714E-02

     total cpu time spent up to now is     6685.8 secs

     total energy              =    -951.87044702 Ry
     Harris-Foulkes estimate   =    -951.87035187 Ry
     estimated scf accuracy    <       0.00176404 Ry

     total magnetization       =     0.00 Bohr mag/cell
     absolute magnetization    =     0.07 Bohr mag/cell

     iteration # 67     ecut=    70.00 Ry     beta= 0.70
     Davidson diagonalization with overlap
     ethr =  1.33E-07,  avg # of iterations =  1.0

     negative rho (up, down):  1.283E-03 8.124E-02

     total cpu time spent up to now is     6775.5 secs

     total energy              =    -951.87041180 Ry
     Harris-Foulkes estimate   =    -951.87044783 Ry
     estimated scf accuracy    <       0.00151125 Ry

     total magnetization       =     0.00 Bohr mag/cell
     absolute magnetization    =     0.06 Bohr mag/cell

     iteration # 68     ecut=    70.00 Ry     beta= 0.70
     Davidson diagonalization with overlap
     ethr =  1.33E-07,  avg # of iterations =  2.0

     negative rho (up, down):  1.314E-03 3.630E-02

     total cpu time spent up to now is     6870.2 secs

     total energy              =    -951.87047502 Ry
     Harris-Foulkes estimate   =    -951.87044461 Ry
     estimated scf accuracy    <       0.00054616 Ry

     total magnetization       =    -0.00 Bohr mag/cell
     absolute magnetization    =     0.02 Bohr mag/cell

     iteration # 69     ecut=    70.00 Ry     beta= 0.70
     Davidson diagonalization with overlap
     ethr =  1.33E-07,  avg # of iterations =  2.5

     negative rho (up, down):  1.264E-03 6.298E-02

     total cpu time spent up to now is     6974.3 secs

     total energy              =    -951.87060798 Ry
     Harris-Foulkes estimate   =    -951.87057063 Ry
     estimated scf accuracy    <       0.00220229 Ry

     total magnetization       =    -0.00 Bohr mag/cell
     absolute magnetization    =     0.07 Bohr mag/cell

     iteration # 70     ecut=    70.00 Ry     beta= 0.70
     Davidson diagonalization with overlap
     ethr =  1.33E-07,  avg # of iterations =  2.0

     negative rho (up, down):  1.283E-03 1.377E-01

     total cpu time spent up to now is     7072.9 secs

     total energy              =    -951.87003056 Ry
     Harris-Foulkes estimate   =    -951.87066120 Ry
     estimated scf accuracy    <       0.00989788 Ry

     total magnetization       =    -0.00 Bohr mag/cell
     absolute magnetization    =     0.15 Bohr mag/cell

     iteration # 71     ecut=    70.00 Ry     beta= 0.70
     Davidson diagonalization with overlap
     ethr =  1.33E-07,  avg # of iterations =  3.0

     negative rho (up, down):  1.272E-03 4.800E-02

     total cpu time spent up to now is     7180.9 secs

     total energy              =    -951.87048444 Ry
     Harris-Foulkes estimate   =    -951.87024048 Ry
     estimated scf accuracy    <       0.00011663 Ry

     total magnetization       =     0.00 Bohr mag/cell
     absolute magnetization    =     0.01 Bohr mag/cell

     iteration # 72     ecut=    70.00 Ry     beta= 0.70
     Davidson diagonalization with overlap
     ethr =  5.40E-08,  avg # of iterations =  2.5

     negative rho (up, down):  1.270E-03 2.545E-02

     total cpu time spent up to now is     7278.9 secs

     total energy              =    -951.87050727 Ry
     Harris-Foulkes estimate   =    -951.87049535 Ry
     estimated scf accuracy    <       0.00019080 Ry

     total magnetization       =     0.00 Bohr mag/cell
     absolute magnetization    =     0.02 Bohr mag/cell

     iteration # 73     ecut=    70.00 Ry     beta= 0.70
     Davidson diagonalization with overlap
     ethr =  5.40E-08,  avg # of iterations =  2.0

     negative rho (up, down):  1.264E-03 7.206E-03

     total cpu time spent up to now is     7374.6 secs

     total energy              =    -951.87051172 Ry
     Harris-Foulkes estimate   =    -951.87052180 Ry
     estimated scf accuracy    <       0.00009506 Ry

     total magnetization       =    -0.00 Bohr mag/cell
     absolute magnetization    =     0.01 Bohr mag/cell

     iteration # 74     ecut=    70.00 Ry     beta= 0.70
     Davidson diagonalization with overlap
     ethr =  4.40E-08,  avg # of iterations =  3.0

     negative rho (up, down):  1.285E-03 4.949E-02

     total cpu time spent up to now is     7476.0 secs

     total energy              =    -951.87051643 Ry
     Harris-Foulkes estimate   =    -951.87053866 Ry
     estimated scf accuracy    <       0.00097389 Ry

     total magnetization       =    -0.00 Bohr mag/cell
     absolute magnetization    =     0.04 Bohr mag/cell

     iteration # 75     ecut=    70.00 Ry     beta= 0.70
     Davidson diagonalization with overlap
     ethr =  4.40E-08,  avg # of iterations =  2.5

     negative rho (up, down):  1.296E-03 7.975E-02

     total cpu time spent up to now is     7569.3 secs

     total energy              =    -951.87044716 Ry
     Harris-Foulkes estimate   =    -951.87051914 Ry
     estimated scf accuracy    <       0.00174937 Ry

     total magnetization       =     0.00 Bohr mag/cell
     absolute magnetization    =     0.06 Bohr mag/cell

     iteration # 76     ecut=    70.00 Ry     beta= 0.70
     Davidson diagonalization with overlap
     ethr =  4.40E-08,  avg # of iterations =  2.0

     negative rho (up, down):  1.289E-03 6.217E-02

     total cpu time spent up to now is     7668.6 secs

     total energy              =    -951.87050536 Ry
     Harris-Foulkes estimate   =    -951.87046638 Ry
     estimated scf accuracy    <       0.00096950 Ry

     total magnetization       =    -0.00 Bohr mag/cell
     absolute magnetization    =     0.04 Bohr mag/cell

     iteration # 77     ecut=    70.00 Ry     beta= 0.70
     Davidson diagonalization with overlap
     ethr =  4.40E-08,  avg # of iterations =  2.0

     negative rho (up, down):  1.283E-03 7.920E-02

     total cpu time spent up to now is     7764.1 secs

     total energy              =    -951.87038718 Ry
     Harris-Foulkes estimate   =    -951.87051343 Ry
     estimated scf accuracy    <       0.00220947 Ry

     total magnetization       =     0.00 Bohr mag/cell
     absolute magnetization    =     0.07 Bohr mag/cell

     iteration # 78     ecut=    70.00 Ry     beta= 0.70
     Davidson diagonalization with overlap
     ethr =  4.40E-08,  avg # of iterations =  2.5

     negative rho (up, down):  1.394E-03 2.552E-02

     total cpu time spent up to now is     7867.6 secs

     total energy              =    -951.87044213 Ry
     Harris-Foulkes estimate   =    -951.87045764 Ry
     estimated scf accuracy    <       0.00123541 Ry

     total magnetization       =    -0.00 Bohr mag/cell
     absolute magnetization    =     0.02 Bohr mag/cell

     iteration # 79     ecut=    70.00 Ry     beta= 0.70
     Davidson diagonalization with overlap
     ethr =  4.40E-08,  avg # of iterations =  3.0

     negative rho (up, down):  1.269E-03 8.564E-03

     total cpu time spent up to now is     7968.4 secs

     total energy              =    -951.87051935 Ry
     Harris-Foulkes estimate   =    -951.87046644 Ry
     estimated scf accuracy    <       0.00001226 Ry

     total magnetization       =    -0.00 Bohr mag/cell
     absolute magnetization    =     0.01 Bohr mag/cell

     iteration # 80     ecut=    70.00 Ry     beta= 0.70
     Davidson diagonalization with overlap
     ethr =  5.68E-09,  avg # of iterations =  2.5

     negative rho (up, down):  1.259E-03 1.585E-02

     total cpu time spent up to now is     8063.8 secs

     total energy              =    -951.87051798 Ry
     Harris-Foulkes estimate   =    -951.87052028 Ry
     estimated scf accuracy    <       0.00009482 Ry

     total magnetization       =     0.00 Bohr mag/cell
     absolute magnetization    =     0.02 Bohr mag/cell

     iteration # 81     ecut=    70.00 Ry     beta= 0.70
     Davidson diagonalization with overlap
     ethr =  5.68E-09,  avg # of iterations =  3.0

     negative rho (up, down):  1.260E-03 6.828E-03

     total cpu time spent up to now is     8168.6 secs

     total energy              =    -951.87052019 Ry
     Harris-Foulkes estimate   =    -951.87052335 Ry
     estimated scf accuracy    <       0.00003699 Ry

     total magnetization       =    -0.00 Bohr mag/cell
     absolute magnetization    =     0.01 Bohr mag/cell

     iteration # 82     ecut=    70.00 Ry     beta= 0.70
     Davidson diagonalization with overlap
     ethr =  5.68E-09,  avg # of iterations =  3.0

     negative rho (up, down):  1.269E-03 1.001E-02

     total cpu time spent up to now is     8272.0 secs

     total energy              =    -951.87051533 Ry
     Harris-Foulkes estimate   =    -951.87052611 Ry
     estimated scf accuracy    <       0.00013265 Ry

     total magnetization       =     0.00 Bohr mag/cell
     absolute magnetization    =     0.01 Bohr mag/cell

     iteration # 83     ecut=    70.00 Ry     beta= 0.70
     Davidson diagonalization with overlap
     ethr =  5.68E-09,  avg # of iterations =  2.5

     negative rho (up, down):  1.259E-03 2.327E-03

     total cpu time spent up to now is     8372.4 secs

     total energy              =    -951.87052257 Ry
     Harris-Foulkes estimate   =    -951.87051900 Ry
     estimated scf accuracy    <       0.00000365 Ry

     total magnetization       =     0.00 Bohr mag/cell
     absolute magnetization    =     0.00 Bohr mag/cell

     iteration # 84     ecut=    70.00 Ry     beta= 0.70
     Davidson diagonalization with overlap
     ethr =  1.69E-09,  avg # of iterations =  3.0

     negative rho (up, down):  1.259E-03 9.603E-03

     total cpu time spent up to now is     8475.0 secs

     total energy              =    -951.87052261 Ry
     Harris-Foulkes estimate   =    -951.87052389 Ry
     estimated scf accuracy    <       0.00003374 Ry

     total magnetization       =     0.00 Bohr mag/cell
     absolute magnetization    =     0.01 Bohr mag/cell

     iteration # 85     ecut=    70.00 Ry     beta= 0.70
     Davidson diagonalization with overlap
     ethr =  1.69E-09,  avg # of iterations =  2.0

     negative rho (up, down):  1.259E-03 1.128E-02

     total cpu time spent up to now is     8567.4 secs

     total energy              =    -951.87052233 Ry
     Harris-Foulkes estimate   =    -951.87052274 Ry
     estimated scf accuracy    <       0.00002375 Ry

     total magnetization       =     0.00 Bohr mag/cell
     absolute magnetization    =     0.01 Bohr mag/cell

     iteration # 86     ecut=    70.00 Ry     beta= 0.70
     Davidson diagonalization with overlap
     ethr =  1.69E-09,  avg # of iterations =  2.0

     negative rho (up, down):  1.259E-03 8.232E-03

     total cpu time spent up to now is     8659.5 secs

     total energy              =    -951.87052299 Ry
     Harris-Foulkes estimate   =    -951.87052245 Ry
     estimated scf accuracy    <       0.00001048 Ry

     total magnetization       =     0.00 Bohr mag/cell
     absolute magnetization    =     0.01 Bohr mag/cell

     iteration # 87     ecut=    70.00 Ry     beta= 0.70
     Davidson diagonalization with overlap
     ethr =  1.69E-09,  avg # of iterations =  2.0

     negative rho (up, down):  1.259E-03 8.955E-03

     total cpu time spent up to now is     8752.2 secs

     total energy              =    -951.87052209 Ry
     Harris-Foulkes estimate   =    -951.87052314 Ry
     estimated scf accuracy    <       0.00002207 Ry

     total magnetization       =     0.00 Bohr mag/cell
     absolute magnetization    =     0.01 Bohr mag/cell

     iteration # 88     ecut=    70.00 Ry     beta= 0.70
     Davidson diagonalization with overlap
     ethr =  1.69E-09,  avg # of iterations =  2.0

     negative rho (up, down):  1.259E-03 2.641E-03

     total cpu time spent up to now is     8848.0 secs

     total energy              =    -951.87052221 Ry
     Harris-Foulkes estimate   =    -951.87052274 Ry
     estimated scf accuracy    <       0.00001291 Ry

     total magnetization       =    -0.00 Bohr mag/cell
     absolute magnetization    =     0.00 Bohr mag/cell

     iteration # 89     ecut=    70.00 Ry     beta= 0.70
     Davidson diagonalization with overlap
     ethr =  1.69E-09,  avg # of iterations =  3.0

     negative rho (up, down):  1.259E-03 9.412E-03

     total cpu time spent up to now is     8950.5 secs

     total energy              =    -951.87052452 Ry
     Harris-Foulkes estimate   =    -951.87052412 Ry
     estimated scf accuracy    <       0.00004509 Ry

     total magnetization       =    -0.00 Bohr mag/cell
     absolute magnetization    =     0.01 Bohr mag/cell

     iteration # 90     ecut=    70.00 Ry     beta= 0.70
     Davidson diagonalization with overlap
     ethr =  1.69E-09,  avg # of iterations =  2.5

     negative rho (up, down):  1.261E-03 2.859E-02

     total cpu time spent up to now is     9053.2 secs

     total energy              =    -951.87050900 Ry
     Harris-Foulkes estimate   =    -951.87052664 Ry
     estimated scf accuracy    <       0.00027290 Ry

     total magnetization       =    -0.00 Bohr mag/cell
     absolute magnetization    =     0.03 Bohr mag/cell

     iteration # 91     ecut=    70.00 Ry     beta= 0.70
     Davidson diagonalization with overlap
     ethr =  1.69E-09,  avg # of iterations =  3.0

     negative rho (up, down):  1.259E-03 6.973E-05

     Magnetic moment per site:
     atom:    1    charge:    0.2138    magn:    0.0000    constr:    0.0000
     atom:    2    charge:    0.2138    magn:   -0.0000    constr:    0.0000
     atom:    3    charge:    1.7154    magn:   -0.0000    constr:    0.0000
     atom:    4    charge:    1.7153    magn:    0.0000    constr:    0.0000
     atom:    5    charge:    1.7167    magn:   -0.0000    constr:    0.0000
     atom:    6    charge:    1.7146    magn:    0.0000    constr:    0.0000
     atom:    7    charge:    1.7168    magn:   -0.0000    constr:    0.0000
     atom:    8    charge:    1.7152    magn:    0.0000    constr:    0.0000
     atom:    9    charge:    1.7155    magn:   -0.0000    constr:    0.0000
     atom:   10    charge:    1.7176    magn:    0.0000    constr:    0.0000
     atom:   11    charge:    1.7155    magn:   -0.0000    constr:    0.0000
     atom:   12    charge:    1.7177    magn:    0.0000    constr:    0.0000
     atom:   13    charge:    1.7155    magn:   -0.0000    constr:    0.0000
     atom:   14    charge:    1.7175    magn:    0.0000    constr:    0.0000
     atom:   15    charge:    1.7118    magn:   -0.0000    constr:    0.0000
     atom:   16    charge:    1.7114    magn:    0.0000    constr:    0.0000
     atom:   17    charge:    1.7206    magn:   -0.0000    constr:    0.0000
     atom:   18    charge:    1.7114    magn:    0.0000    constr:    0.0000
     atom:   19    charge:    1.7118    magn:   -0.0000    constr:    0.0000
     atom:   20    charge:    1.7175    magn:    0.0000    constr:    0.0000
     atom:   21    charge:    1.7156    magn:   -0.0000    constr:    0.0000
     atom:   22    charge:    1.7176    magn:    0.0000    constr:    0.0000
     atom:   23    charge:    1.7155    magn:   -0.0000    constr:    0.0000
     atom:   24    charge:    1.7152    magn:    0.0000    constr:    0.0000
     atom:   25    charge:    1.7116    magn:   -0.0000    constr:    0.0000
     atom:   26    charge:    1.7121    magn:    0.0000    constr:    0.0000
     atom:   27    charge:    1.8196    magn:   -0.0000    constr:    0.0000
     atom:   28    charge:   13.4063    magn:   -0.0000    constr:    0.0000
     atom:   29    charge:    1.8182    magn:   -0.0000    constr:    0.0000
     atom:   30    charge:    1.7114    magn:    0.0000    constr:    0.0000
     atom:   31    charge:    1.7118    magn:   -0.0000    constr:    0.0000
     atom:   32    charge:    1.7152    magn:    0.0000    constr:    0.0000
     atom:   33    charge:    1.7168    magn:   -0.0000    constr:    0.0000
     atom:   34    charge:    1.7154    magn:    0.0000    constr:    0.0000
     atom:   35    charge:    1.7168    magn:   -0.0000    constr:    0.0000
     atom:   36    charge:    1.7147    magn:    0.0000    constr:    0.0000
     atom:   37    charge:    1.7208    magn:   -0.0000    constr:    0.0000
     atom:   38    charge:    1.7123    magn:    0.0000    constr:    0.0000
     atom:   39    charge:    1.8196    magn:   -0.0000    constr:    0.0000
     atom:   40    charge:    1.7112    magn:    0.0000    constr:    0.0000
     atom:   41    charge:    1.7206    magn:   -0.0000    constr:    0.0000
     atom:   42    charge:    1.7146    magn:    0.0000    constr:    0.0000
     atom:   43    charge:    1.7167    magn:   -0.0000    constr:    0.0000
     atom:   44    charge:    1.7154    magn:    0.0000    constr:    0.0000
     atom:   45    charge:    1.7211    magn:   -0.0000    constr:    0.0000
     atom:   46    charge:    1.7154    magn:    0.0000    constr:    0.0000
     atom:   47    charge:    1.7167    magn:   -0.0000    constr:    0.0000
     atom:   48    charge:    1.7152    magn:    0.0000    constr:    0.0000
     atom:   49    charge:    1.7117    magn:   -0.0000    constr:    0.0000
     atom:   50    charge:    1.7176    magn:    0.0000    constr:    0.0000
     atom:   51    charge:    1.7117    magn:   -0.0000    constr:    0.0000
     atom:   52    charge:    1.7152    magn:    0.0000    constr:    0.0000

     total cpu time spent up to now is     9159.5 secs

     End of self-consistent calculation

 ------ SPIN UP ------------


          k = 0.0000 0.0000 0.0000 ( 87777 PWs)   bands (ev):

  -107.8997 -69.0741 -69.0644 -66.9839 -19.8289 -19.0098 -19.0060 -18.8928
   -18.8900 -18.8070 -18.7391 -17.1644 -17.1627 -17.1294 -17.0861 -17.0798
   -16.7566 -16.3139 -16.3120 -16.1700 -16.1679 -16.1554 -15.6720 -14.3111
   -14.3088 -14.1506 -14.0194 -14.0179 -13.5182 -13.1318 -13.1295 -13.0787
   -12.9057 -12.9017 -12.5018 -12.0756 -12.0747 -11.7154 -11.5714 -11.5695
   -10.9353 -10.4285 -10.4273  -9.5755  -9.3682  -9.3664  -9.2286  -9.2144
    -9.2138  -9.1997  -8.9570  -8.9528  -8.5942  -8.5930  -8.4536  -8.1660
    -7.9027  -7.9015  -7.8491  -7.6672  -7.5471  -7.5417  -7.4490  -7.4483
    -7.1107  -6.8455  -6.8241  -6.8176  -6.7500  -6.6207  -6.6191  -6.5578
    -6.5532  -6.5523  -6.5193  -6.4343  -6.4243  -6.3900  -6.2905  -6.2883
    -6.0097  -5.5485  -5.5476  -5.0312  -4.9517  -4.8445  -4.8429  -4.7605
    -4.7188  -4.6926  -4.4167  -4.4006  -4.3639  -3.8420  -3.8360  -3.7705
    -3.7615  -3.7609  -3.6079  -3.4260  -3.4049  -3.2850  -1.8974  -1.8104
    -1.8082  -1.6024  -1.5905  -1.1793   0.1077   0.1216   0.8966   0.9596
     0.9608   1.2078   1.2124   1.5431   2.5134   2.7993   2.8006   2.8501
     3.0342   3.0428   3.4217   3.5648   3.6666   3.7472   3.7519   3.7760
     3.9565   4.2363

     occupation numbers 
     1.0000   1.0000   1.0000   1.0000   1.0000   1.0000   1.0000   1.0000
     1.0000   1.0000   1.0000   1.0000   1.0000   1.0000   1.0000   1.0000
     1.0000   1.0000   1.0000   1.0000   1.0000   1.0000   1.0000   1.0000
     1.0000   1.0000   1.0000   1.0000   1.0000   1.0000   1.0000   1.0000
     1.0000   1.0000   1.0000   1.0000   1.0000   1.0000   1.0000   1.0000
     1.0000   1.0000   1.0000   1.0000   1.0000   1.0000   1.0000   1.0000
     1.0000   1.0000   1.0000   1.0000   1.0000   1.0000   1.0000   1.0000
     1.0000   1.0000   1.0000   1.0000   1.0000   1.0000   1.0000   1.0000
     1.0000   1.0000   1.0000   1.0000   1.0000   1.0000   1.0000   1.0000
     1.0000   1.0000   1.0000   1.0000   1.0000   1.0000   1.0000   1.0000
     1.0000   1.0000   1.0000   1.0000   1.0000   1.0000   1.0000   1.0000
     1.0000   1.0000   1.0000   1.0000   1.0000   1.0000   1.0000   1.0000
     1.0000   1.0000   1.0000   1.0000   1.0000   1.0000   1.0000   1.0000
     1.0000   1.0000   1.0000   1.0000   0.0000   0.0000   0.0000   0.0000
     0.0000   0.0000   0.0000   0.0000   0.0000   0.0000   0.0000   0.0000
     0.0000   0.0000   0.0000   0.0000   0.0000   0.0000   0.0000   0.0000
     0.0000   0.0000

 ------ SPIN DOWN ----------


          k = 0.0000 0.0000 0.0000 ( 87777 PWs)   bands (ev):

  -107.8997 -69.0740 -69.0644 -66.9839 -19.8289 -19.0098 -19.0060 -18.8928
   -18.8900 -18.8070 -18.7391 -17.1644 -17.1627 -17.1294 -17.0861 -17.0798
   -16.7566 -16.3139 -16.3120 -16.1700 -16.1679 -16.1554 -15.6720 -14.3111
   -14.3088 -14.1506 -14.0193 -14.0179 -13.5183 -13.1317 -13.1295 -13.0788
   -12.9057 -12.9017 -12.5018 -12.0756 -12.0747 -11.7154 -11.5714 -11.5695
   -10.9353 -10.4285 -10.4273  -9.5755  -9.3682  -9.3664  -9.2286  -9.2144
    -9.2138  -9.1997  -8.9570  -8.9528  -8.5942  -8.5930  -8.4536  -8.1660
    -7.9027  -7.9015  -7.8491  -7.6672  -7.5471  -7.5417  -7.4490  -7.4483
    -7.1106  -6.8455  -6.8241  -6.8176  -6.7500  -6.6207  -6.6191  -6.5578
    -6.5532  -6.5523  -6.5193  -6.4343  -6.4243  -6.3900  -6.2905  -6.2883
    -6.0097  -5.5484  -5.5476  -5.0312  -4.9517  -4.8445  -4.8429  -4.7605
    -4.7188  -4.6926  -4.4167  -4.4006  -4.3639  -3.8420  -3.8360  -3.7706
    -3.7615  -3.7609  -3.6079  -3.4260  -3.4049  -3.2850  -1.8974  -1.8103
    -1.8082  -1.6024  -1.5904  -1.1794   0.1078   0.1216   0.8965   0.9596
     0.9608   1.2078   1.2124   1.5431   2.5123   2.7993   2.8006   2.8501
     3.0342   3.0428   3.4213   3.5641   3.6659   3.7464   3.7509   3.7745
     3.9557   4.2349

     occupation numbers 
     1.0000   1.0000   1.0000   1.0000   1.0000   1.0000   1.0000   1.0000
     1.0000   1.0000   1.0000   1.0000   1.0000   1.0000   1.0000   1.0000
     1.0000   1.0000   1.0000   1.0000   1.0000   1.0000   1.0000   1.0000
     1.0000   1.0000   1.0000   1.0000   1.0000   1.0000   1.0000   1.0000
     1.0000   1.0000   1.0000   1.0000   1.0000   1.0000   1.0000   1.0000
     1.0000   1.0000   1.0000   1.0000   1.0000   1.0000   1.0000   1.0000
     1.0000   1.0000   1.0000   1.0000   1.0000   1.0000   1.0000   1.0000
     1.0000   1.0000   1.0000   1.0000   1.0000   1.0000   1.0000   1.0000
     1.0000   1.0000   1.0000   1.0000   1.0000   1.0000   1.0000   1.0000
     1.0000   1.0000   1.0000   1.0000   1.0000   1.0000   1.0000   1.0000
     1.0000   1.0000   1.0000   1.0000   1.0000   1.0000   1.0000   1.0000
     1.0000   1.0000   1.0000   1.0000   1.0000   1.0000   1.0000   1.0000
     1.0000   1.0000   1.0000   1.0000   1.0000   1.0000   1.0000   1.0000
     1.0000   1.0000   1.0000   1.0000   0.0000   0.0000   0.0000   0.0000
     0.0000   0.0000   0.0000   0.0000   0.0000   0.0000   0.0000   0.0000
     0.0000   0.0000   0.0000   0.0000   0.0000   0.0000   0.0000   0.0000
     0.0000   0.0000

     the Fermi energy is    -0.9954 ev

!    total energy              =    -951.87052301 Ry
     Harris-Foulkes estimate   =    -951.87051328 Ry
     estimated scf accuracy    <       0.00000099 Ry

     The total energy is the sum of the following terms:

     one-electron contribution =   -2998.65665717 Ry
     hartree contribution      =    1542.00986966 Ry
     xc contribution           =    -265.77313531 Ry
     ewald contribution        =     770.54939981 Ry
     smearing contrib. (-TS)   =       0.00000000 Ry

     total magnetization       =    -0.00 Bohr mag/cell
     absolute magnetization    =     0.00 Bohr mag/cell

     convergence has been achieved in  91 iterations

     Writing output data file cobre-sixhollow-distance-2.2.save/

     init_run     :     71.29s CPU     72.62s WALL (       1 calls)
     electrons    :   8924.30s CPU   9085.91s WALL (       1 calls)

     Called by init_run:
     wfcinit      :     40.41s CPU     40.66s WALL (       1 calls)
     wfcinit:atom :      0.06s CPU      0.08s WALL (       2 calls)
     wfcinit:wfcr :     39.96s CPU     40.16s WALL (       2 calls)
     potinit      :     12.96s CPU     13.41s WALL (       1 calls)
     hinit0       :      9.75s CPU      9.79s WALL (       1 calls)

     Called by electrons:
     c_bands      :   5768.07s CPU   5801.94s WALL (      91 calls)
     sum_band     :   1819.36s CPU   1872.25s WALL (      91 calls)
     v_of_rho     :    651.94s CPU    682.42s WALL (      92 calls)
     v_h          :      6.67s CPU      6.86s WALL (      92 calls)
     v_xc         :    645.27s CPU    675.56s WALL (      92 calls)
     newd         :    636.95s CPU    681.08s WALL (      92 calls)
     mix_rho      :     41.72s CPU     42.41s WALL (      91 calls)

     Called by c_bands:
     init_us_2    :     15.86s CPU     15.92s WALL (     366 calls)
     cegterg      :   5725.45s CPU   5759.07s WALL (     182 calls)

     Called by sum_band:
     sum_band:bec :      0.15s CPU      0.15s WALL (     182 calls)
     addusdens    :   1111.16s CPU   1159.29s WALL (      91 calls)

     Called by *egterg:
     h_psi        :   2970.63s CPU   2994.50s WALL (     669 calls)
     s_psi        :    985.58s CPU    986.10s WALL (     669 calls)
     g_psi        :      3.35s CPU      3.36s WALL (     485 calls)
     cdiaghg      :     45.58s CPU     45.62s WALL (     667 calls)
     cegterg:over :    711.17s CPU    711.54s WALL (     485 calls)
     cegterg:upda :    434.17s CPU    436.84s WALL (     485 calls)
     cegterg:last :    308.29s CPU    308.43s WALL (     182 calls)

     Called by h_psi:
     h_psi:pot    :   2967.45s CPU   2987.50s WALL (     669 calls)
     h_psi:calbec :    992.22s CPU    992.75s WALL (     669 calls)
     vloc_psi     :    990.71s CPU   1009.83s WALL (     669 calls)
     add_vuspsi   :    984.51s CPU    984.92s WALL (     669 calls)

     General routines
     calbec       :   1421.40s CPU   1422.12s WALL (     851 calls)
     fft          :    370.37s CPU    382.12s WALL (    6894 calls)
     ffts         :      6.60s CPU      6.85s WALL (     366 calls)
     fftw         :   1060.58s CPU   1081.55s WALL (  133112 calls)
     interpolate  :     14.94s CPU     15.37s WALL (     184 calls)

     Parallel routines
     fft_scatt_xy :    254.57s CPU    258.39s WALL (  140372 calls)
     fft_scatt_yz :    493.78s CPU    517.15s WALL (  140372 calls)

     PWSCF        :      2h29m CPU      2h32m WALL


   This run was terminated on:  20: 8:54   3Jan2023            

=------------------------------------------------------------------------------=
   JOB DONE.
=------------------------------------------------------------------------------=
