
     Program PWSCF v.6.4.1 starts on 24Aug2022 at 18:52:15 

     This program is part of the open-source Quantum ESPRESSO suite
     for quantum simulation of materials; please cite
         "P. Giannozzi et al., J. Phys.:Condens. Matter 21 395502 (2009);
         "P. Giannozzi et al., J. Phys.:Condens. Matter 29 465901 (2017);
          URL http://www.quantum-espresso.org", 
     in publications or presentations arising from this work. More details at
     http://www.quantum-espresso.org/quote

     Parallel version (MPI), running on     6 processors

     MPI processes distributed on     1 nodes
     R & G space division:  proc/nbgrp/npool/nimage =       6
     Reading input from distance-5.0.in

     Current dimensions of program PWSCF are:
     Max number of different atomic species (ntypx) = 10
     Max number of k-points (npk) =  40000
     Max angular momentum in pseudopotentials (lmaxx) =  3

     IMPORTANT: XC functional enforced from input :
     Exchange-correlation      = RVV10 ( 1  4 13  4 3 0)
     Any further DFT definition will be discarded
     Please, verify this is what you really want

               file H.pbe-rrkjus.UPF: wavefunction(s)  1S renormalized

     Subspace diagonalization in iterative solution of the eigenvalue problem:
     a serial algorithm will be used


     Parallelization info
     --------------------
     sticks:   dense  smooth     PW     G-vecs:    dense   smooth      PW
     Min        3051    1746    432               270999   117096   14629
     Max        3053    1747    437               271001   117099   14630
     Sum       18313   10477   2611              1626001   702581   87777



     bravais-lattice index     =            4
     lattice parameter (alat)  =      23.2937  a.u.
     unit-cell volume          =    8879.8548 (a.u.)^3
     number of atoms/cell      =           52
     number of atomic types    =            3
     number of electrons       =       214.00
     number of Kohn-Sham states=          128
     kinetic-energy cutoff     =      70.0000  Ry
     charge density cutoff     =     490.0000  Ry
     convergence threshold     =      1.0E-06
     mixing beta               =       0.7000
     number of iterations used =            8  plain     mixing
     Exchange-correlation      = RVV10 ( 1  4 13  4 3 0)

     celldm(1)=  23.293684  celldm(2)=   0.000000  celldm(3)=   0.811261
     celldm(4)=   0.000000  celldm(5)=   0.000000  celldm(6)=   0.000000

     crystal axes: (cart. coord. in units of alat)
               a(1) = (   1.000000   0.000000   0.000000 )  
               a(2) = (  -0.500000   0.866025   0.000000 )  
               a(3) = (   0.000000   0.000000   0.811261 )  

     reciprocal axes: (cart. coord. in units 2 pi/alat)
               b(1) = (  1.000000  0.577350 -0.000000 )  
               b(2) = (  0.000000  1.154701  0.000000 )  
               b(3) = (  0.000000 -0.000000  1.232649 )  


     PseudoPot. # 1 for H  read from file:
     /home/cristian/Escritorio/Proyecto_Grafeno/pseudopotenciales/H.pbe-rrkjus.UPF
     MD5 check sum: 7cc9d459525c9a0585f487a71c3c9563
     Pseudo is Ultrasoft, Zval =  1.0
     Generated by new atomic code, or converted to UPF format
     Using radial grid of 1061 points,  2 beta functions with: 
                l(1) =   0
                l(2) =   0
     Q(r) pseudized with 0 coefficients 


     PseudoPot. # 2 for C  read from file:
     /home/cristian/Escritorio/Proyecto_Grafeno/pseudopotenciales/C.pbe-n-rrkjus_psl.1.0.0.UPF
     MD5 check sum: 1fdd950c42eb37d8afe3dd2f8d12311e
     Pseudo is Ultrasoft + core correction, Zval =  4.0
     Generated using "atomic" code by A. Dal Corso v.6.3MaX
     Using radial grid of 1073 points,  4 beta functions with: 
                l(1) =   0
                l(2) =   0
                l(3) =   1
                l(4) =   1
     Q(r) pseudized with 0 coefficients 


     PseudoPot. # 3 for Fe read from file:
     /home/cristian/Escritorio/Proyecto_Grafeno/pseudopotenciales/Fe.pbe-spn-rrkjus_psl.1.0.0.UPF
     MD5 check sum: 72ea77fed8e64ab3a2ccf2804dfc1862
     Pseudo is Ultrasoft + core correction, Zval = 16.0
     Generated using "atomic" code by A. Dal Corso v.6.3
     Using radial grid of 1191 points,  6 beta functions with: 
                l(1) =   0
                l(2) =   0
                l(3) =   1
                l(4) =   1
                l(5) =   2
                l(6) =   2
     Q(r) pseudized with 0 coefficients 


     vdW kernel table read from file rVV10_kernel_table
     MD5 check sum: b8e2538accc0c0b3206b45ba4daaba6c

     atomic species   valence    mass     pseudopotential
        H              1.00     1.00794     H ( 1.00)
        C              4.00    12.01070     C ( 1.00)
        Fe            16.00    55.84500     Fe( 1.00)

     Starting magnetic structure 
     atomic species   magnetization
        H            0.500
        C            0.300
        Fe           0.800

      2 Sym. Ops. (no inversion) found


                                    s                        frac. trans.

      isym =  1     identity                                     

 cryst.   s( 1) = (     1          0          0      )
                  (     0          1          0      )
                  (     0          0          1      )

 cart.    s( 1) = (  1.0000000  0.0000000  0.0000000 )
                  (  0.0000000  1.0000000  0.0000000 )
                  (  0.0000000  0.0000000  1.0000000 )


      isym =  2     inv. 180 deg rotation - cryst. axis [1,1,0]  

 cryst.   s( 2) = (     0         -1          0      )
                  (    -1          0          0      )
                  (     0          0          1      )

 cart.    s( 2) = (  0.5000000 -0.8660254  0.0000000 )
                  ( -0.8660254 -0.5000000  0.0000000 )
                  (  0.0000000  0.0000000  1.0000000 )


     point group C_s (m)    
     there are  2 classes
     the character table:

       E     s    
A'     1.00  1.00
A''    1.00 -1.00

     the symmetry operations in each class and the name of the first element:

     E        1
          identity                                               
     s        2
          inv. 180 deg rotation - cryst. axis [1,1,0]            

   Cartesian axes

     site n.     atom                  positions (alat units)
         1           H   tau(   1) = (   0.2000000   0.4618802   0.4056306  )
         2           H   tau(   2) = (   0.2000000   0.4618802   0.4666433  )
         3           C   tau(   3) = (   0.0000000   0.0000000   0.0000000  )
         4           C   tau(   4) = (   0.0000000   0.1154701   0.0000000  )
         5           C   tau(   5) = (  -0.1000000   0.1732051   0.0000000  )
         6           C   tau(   6) = (  -0.1000000   0.2886751   0.0000000  )
         7           C   tau(   7) = (  -0.2000000   0.3464102   0.0000000  )
         8           C   tau(   8) = (  -0.2000000   0.4618802   0.0000000  )
         9           C   tau(   9) = (  -0.3000000   0.5196152   0.0000000  )
        10           C   tau(  10) = (  -0.3000000   0.6350853   0.0000000  )
        11           C   tau(  11) = (  -0.4000000   0.6928203   0.0000000  )
        12           C   tau(  12) = (  -0.4000000   0.8082904   0.0000000  )
        13           C   tau(  13) = (   0.2000000   0.0000000   0.0000000  )
        14           C   tau(  14) = (   0.2000000   0.1154701   0.0000000  )
        15           C   tau(  15) = (   0.1000000   0.1732051   0.0000000  )
        16           C   tau(  16) = (   0.1000000   0.2886751   0.0000000  )
        17           C   tau(  17) = (   0.0000000   0.3464102   0.0000000  )
        18           C   tau(  18) = (   0.0000000   0.4618802   0.0000000  )
        19           C   tau(  19) = (  -0.1000000   0.5196152   0.0000000  )
        20           C   tau(  20) = (  -0.1000000   0.6350853   0.0000000  )
        21           C   tau(  21) = (  -0.2000000   0.6928203   0.0000000  )
        22           C   tau(  22) = (  -0.2000000   0.8082904   0.0000000  )
        23           C   tau(  23) = (   0.4000000   0.0000000   0.0000000  )
        24           C   tau(  24) = (   0.4000000   0.1154701   0.0000000  )
        25           C   tau(  25) = (   0.3000000   0.1732051   0.0000000  )
        26           C   tau(  26) = (   0.3000000   0.2886751   0.0000000  )
        27           C   tau(  27) = (   0.2000000   0.3464102   0.0000000  )
        28           Fe  tau(  28) = (   0.2000000   0.4618802   0.0000000  )
        29           C   tau(  29) = (   0.1000000   0.5196152   0.0000000  )
        30           C   tau(  30) = (   0.1000000   0.6350853   0.0000000  )
        31           C   tau(  31) = (   0.0000000   0.6928203   0.0000000  )
        32           C   tau(  32) = (   0.0000000   0.8082904   0.0000000  )
        33           C   tau(  33) = (   0.6000000   0.0000000   0.0000000  )
        34           C   tau(  34) = (   0.6000000   0.1154701   0.0000000  )
        35           C   tau(  35) = (   0.5000000   0.1732051   0.0000000  )
        36           C   tau(  36) = (   0.5000000   0.2886751   0.0000000  )
        37           C   tau(  37) = (   0.4000000   0.3464102   0.0000000  )
        38           C   tau(  38) = (   0.4000000   0.4618802   0.0000000  )
        39           C   tau(  39) = (   0.3000000   0.5196152   0.0000000  )
        40           C   tau(  40) = (   0.3000000   0.6350853   0.0000000  )
        41           C   tau(  41) = (   0.2000000   0.6928203   0.0000000  )
        42           C   tau(  42) = (   0.2000000   0.8082904   0.0000000  )
        43           C   tau(  43) = (   0.8000000   0.0000000   0.0000000  )
        44           C   tau(  44) = (   0.8000000   0.1154701   0.0000000  )
        45           C   tau(  45) = (   0.7000000   0.1732051   0.0000000  )
        46           C   tau(  46) = (   0.7000000   0.2886751   0.0000000  )
        47           C   tau(  47) = (   0.6000000   0.3464102   0.0000000  )
        48           C   tau(  48) = (   0.6000000   0.4618802   0.0000000  )
        49           C   tau(  49) = (   0.5000000   0.5196152   0.0000000  )
        50           C   tau(  50) = (   0.5000000   0.6350853   0.0000000  )
        51           C   tau(  51) = (   0.4000000   0.6928203   0.0000000  )
        52           C   tau(  52) = (   0.4000000   0.8082904   0.0000000  )

   Crystallographic axes

     site n.     atom                  positions (cryst. coord.)
         1           H   tau(   1) = (  0.4666667  0.5333333  0.5000000  )
         2           H   tau(   2) = (  0.4666667  0.5333333  0.5752072  )
         3           C   tau(   3) = (  0.0000000  0.0000000  0.0000000  )
         4           C   tau(   4) = (  0.0666667  0.1333333  0.0000000  )
         5           C   tau(   5) = (  0.0000000  0.2000000  0.0000000  )
         6           C   tau(   6) = (  0.0666667  0.3333333  0.0000000  )
         7           C   tau(   7) = (  0.0000000  0.4000000  0.0000000  )
         8           C   tau(   8) = (  0.0666667  0.5333333  0.0000000  )
         9           C   tau(   9) = (  0.0000000  0.6000000  0.0000000  )
        10           C   tau(  10) = (  0.0666667  0.7333333  0.0000000  )
        11           C   tau(  11) = (  0.0000000  0.8000000  0.0000000  )
        12           C   tau(  12) = (  0.0666667  0.9333333  0.0000000  )
        13           C   tau(  13) = (  0.2000000  0.0000000  0.0000000  )
        14           C   tau(  14) = (  0.2666667  0.1333333  0.0000000  )
        15           C   tau(  15) = (  0.2000000  0.2000000  0.0000000  )
        16           C   tau(  16) = (  0.2666667  0.3333333  0.0000000  )
        17           C   tau(  17) = (  0.2000000  0.4000000  0.0000000  )
        18           C   tau(  18) = (  0.2666667  0.5333333  0.0000000  )
        19           C   tau(  19) = (  0.2000000  0.6000000  0.0000000  )
        20           C   tau(  20) = (  0.2666667  0.7333333  0.0000000  )
        21           C   tau(  21) = (  0.2000000  0.8000000  0.0000000  )
        22           C   tau(  22) = (  0.2666667  0.9333333  0.0000000  )
        23           C   tau(  23) = (  0.4000000  0.0000000  0.0000000  )
        24           C   tau(  24) = (  0.4666667  0.1333333  0.0000000  )
        25           C   tau(  25) = (  0.4000000  0.2000000  0.0000000  )
        26           C   tau(  26) = (  0.4666667  0.3333333  0.0000000  )
        27           C   tau(  27) = (  0.4000000  0.4000000  0.0000000  )
        28           Fe  tau(  28) = (  0.4666667  0.5333333  0.0000000  )
        29           C   tau(  29) = (  0.4000000  0.6000000  0.0000000  )
        30           C   tau(  30) = (  0.4666667  0.7333333  0.0000000  )
        31           C   tau(  31) = (  0.4000000  0.8000000  0.0000000  )
        32           C   tau(  32) = (  0.4666667  0.9333333  0.0000000  )
        33           C   tau(  33) = (  0.6000000  0.0000000  0.0000000  )
        34           C   tau(  34) = (  0.6666667  0.1333333  0.0000000  )
        35           C   tau(  35) = (  0.6000000  0.2000000  0.0000000  )
        36           C   tau(  36) = (  0.6666667  0.3333333  0.0000000  )
        37           C   tau(  37) = (  0.6000000  0.4000000  0.0000000  )
        38           C   tau(  38) = (  0.6666667  0.5333333  0.0000000  )
        39           C   tau(  39) = (  0.6000000  0.6000000  0.0000000  )
        40           C   tau(  40) = (  0.6666667  0.7333333  0.0000000  )
        41           C   tau(  41) = (  0.6000000  0.8000000  0.0000000  )
        42           C   tau(  42) = (  0.6666667  0.9333333  0.0000000  )
        43           C   tau(  43) = (  0.8000000  0.0000000  0.0000000  )
        44           C   tau(  44) = (  0.8666667  0.1333333  0.0000000  )
        45           C   tau(  45) = (  0.8000000  0.2000000  0.0000000  )
        46           C   tau(  46) = (  0.8666667  0.3333333  0.0000000  )
        47           C   tau(  47) = (  0.8000000  0.4000000  0.0000000  )
        48           C   tau(  48) = (  0.8666667  0.5333333  0.0000000  )
        49           C   tau(  49) = (  0.8000000  0.6000000  0.0000000  )
        50           C   tau(  50) = (  0.8666667  0.7333333  0.0000000  )
        51           C   tau(  51) = (  0.8000000  0.8000000  0.0000000  )
        52           C   tau(  52) = (  0.8666667  0.9333333  0.0000000  )

     number of k points=     1  Marzari-Vanderbilt smearing, width (Ry)=  0.0010
                       cart. coord. in units 2pi/alat
        k(    1) = (   0.0000000   0.0000000   0.0000000), wk =   1.0000000

                       cryst. coord.
        k(    1) = (   0.0000000   0.0000000   0.0000000), wk =   1.0000000

     Dense  grid:  1626001 G-vectors     FFT dimensions: ( 180, 180, 135)

     Smooth grid:   702581 G-vectors     FFT dimensions: ( 125, 125, 108)

     Dynamical RAM for                 wfc:      28.59 MB

     Dynamical RAM for     wfc (w. buffer):      85.76 MB

     Dynamical RAM for           str. fact:      12.41 MB

     Dynamical RAM for           local pot:       0.00 MB

     Dynamical RAM for          nlocal pot:      92.46 MB

     Dynamical RAM for                qrad:      19.73 MB

     Dynamical RAM for          rho,v,vnew:      58.92 MB

     Dynamical RAM for               rhoin:      19.64 MB

     Dynamical RAM for            rho*nmix:     132.32 MB

     Dynamical RAM for           G-vectors:      16.40 MB

     Dynamical RAM for          h,s,v(r/c):      12.00 MB

     Dynamical RAM for          <psi|beta>:       0.81 MB

     Dynamical RAM for                 psi:     114.35 MB

     Dynamical RAM for                hpsi:     114.35 MB

     Dynamical RAM for                spsi:     114.35 MB

     Dynamical RAM for      wfcinit/wfcrot:      93.90 MB

     Dynamical RAM for           addusdens:     975.89 MB

     Estimated static dynamical RAM per process >     488.30 MB

     Estimated max dynamical RAM per process >       1.43 GB

     Estimated total dynamical RAM >       8.58 GB
     Generating pointlists ...
     new r_m :   0.0252 (alat units)  0.5862 (a.u.) for type    1
     new r_m :   0.0476 (alat units)  1.1095 (a.u.) for type    2
     new r_m :   0.0476 (alat units)  1.1095 (a.u.) for type    3

     Check: negative core charge=   -0.000002

     Initial potential from superposition of free atoms

     starting charge  213.80512, renormalised to  214.00000

     negative rho (up, down):  6.627E-05 9.172E-03


---------------------------------------------------------------------------------
Carrying out rVV10 run using the following parameters:
Nqs =      20    Nr_points =    1024   r_max =   100.000
b_value =  6.30000    beta =  0.00901
     q_mesh =  0.00010000  0.00030000  0.00058939  0.00100810
               0.00161396  0.00249058  0.00375900  0.00559430
               0.00824984  0.01209221  0.01765183  0.02569619
               0.03733578  0.05417739  0.07854596  0.11380545
               0.16482331  0.23864234  0.34545298  0.50000000

Gradients computed in Reciprocal space

---------------------------------------------------------------------------------


     Starting wfcs are  208 randomized atomic wfcs

     total cpu time spent up to now is       84.0 secs

     Self-consistent Calculation

     iteration #  1     ecut=    70.00 Ry     beta= 0.70
     Davidson diagonalization with overlap
     ethr =  1.00E-02,  avg # of iterations =  2.5

     negative rho (up, down):  1.234E-04 1.227E-02

     total cpu time spent up to now is      235.3 secs

     total energy              =    -857.50429143 Ry
     Harris-Foulkes estimate   =    -858.63350287 Ry
     estimated scf accuracy    <      10.05855489 Ry

     total magnetization       =     6.00 Bohr mag/cell
     absolute magnetization    =     6.66 Bohr mag/cell

     iteration #  2     ecut=    70.00 Ry     beta= 0.70
     Davidson diagonalization with overlap
     ethr =  4.70E-03,  avg # of iterations =  4.0

     negative rho (up, down):  2.173E-04 2.420E-02

     total cpu time spent up to now is      361.0 secs

     total energy              =    -857.25242584 Ry
     Harris-Foulkes estimate   =    -860.26417247 Ry
     estimated scf accuracy    <       5.88182025 Ry

     total magnetization       =     4.00 Bohr mag/cell
     absolute magnetization    =     4.92 Bohr mag/cell

     iteration #  3     ecut=    70.00 Ry     beta= 0.70
     Davidson diagonalization with overlap
     ethr =  2.75E-03,  avg # of iterations =  7.0

     negative rho (up, down):  5.686E-04 4.847E-02

     total cpu time spent up to now is      512.6 secs

     total energy              =    -855.80268108 Ry
     Harris-Foulkes estimate   =    -863.28748793 Ry
     estimated scf accuracy    <      37.06490734 Ry

     total magnetization       =     0.00 Bohr mag/cell
     absolute magnetization    =     1.10 Bohr mag/cell

     iteration #  4     ecut=    70.00 Ry     beta= 0.70
     Davidson diagonalization with overlap
     ethr =  2.75E-03,  avg # of iterations =  5.0

     negative rho (up, down):  2.585E-04 3.798E-02

     total cpu time spent up to now is      637.7 secs

     total energy              =    -859.15315166 Ry
     Harris-Foulkes estimate   =    -860.64232888 Ry
     estimated scf accuracy    <       6.06476957 Ry

     total magnetization       =     2.00 Bohr mag/cell
     absolute magnetization    =     2.88 Bohr mag/cell

     iteration #  5     ecut=    70.00 Ry     beta= 0.70
     Davidson diagonalization with overlap
     ethr =  2.75E-03,  avg # of iterations =  3.5

     negative rho (up, down):  4.332E-04 5.496E-02

     total cpu time spent up to now is      756.9 secs

     total energy              =    -859.89613342 Ry
     Harris-Foulkes estimate   =    -860.15610789 Ry
     estimated scf accuracy    <       1.14704026 Ry

     total magnetization       =     2.00 Bohr mag/cell
     absolute magnetization    =     2.59 Bohr mag/cell

     iteration #  6     ecut=    70.00 Ry     beta= 0.70
     Davidson diagonalization with overlap
     ethr =  5.36E-04,  avg # of iterations =  3.0

     negative rho (up, down):  1.153E-03 8.101E-02

     total cpu time spent up to now is      872.6 secs

     total energy              =    -859.96213628 Ry
     Harris-Foulkes estimate   =    -860.10106421 Ry
     estimated scf accuracy    <       0.40788988 Ry

     total magnetization       =     2.00 Bohr mag/cell
     absolute magnetization    =     2.38 Bohr mag/cell

     iteration #  7     ecut=    70.00 Ry     beta= 0.70
     Davidson diagonalization with overlap
     ethr =  1.91E-04,  avg # of iterations =  5.0

     negative rho (up, down):  1.250E-03 6.324E-02

     total cpu time spent up to now is      995.8 secs

     total energy              =    -860.02401121 Ry
     Harris-Foulkes estimate   =    -860.08943673 Ry
     estimated scf accuracy    <       0.24974345 Ry

     total magnetization       =     2.00 Bohr mag/cell
     absolute magnetization    =     2.40 Bohr mag/cell

     iteration #  8     ecut=    70.00 Ry     beta= 0.70
     Davidson diagonalization with overlap
     ethr =  1.17E-04,  avg # of iterations =  3.0

     negative rho (up, down):  9.219E-04 5.733E-02

     total cpu time spent up to now is     1103.5 secs

     total energy              =    -860.04249784 Ry
     Harris-Foulkes estimate   =    -860.05258873 Ry
     estimated scf accuracy    <       0.10807442 Ry

     total magnetization       =     2.00 Bohr mag/cell
     absolute magnetization    =     2.42 Bohr mag/cell

     iteration #  9     ecut=    70.00 Ry     beta= 0.70
     Davidson diagonalization with overlap
     ethr =  5.05E-05,  avg # of iterations =  1.0

     negative rho (up, down):  8.981E-04 6.589E-02

     total cpu time spent up to now is     1209.4 secs

     total energy              =    -860.05192857 Ry
     Harris-Foulkes estimate   =    -860.05321708 Ry
     estimated scf accuracy    <       0.06858412 Ry

     total magnetization       =     2.00 Bohr mag/cell
     absolute magnetization    =     2.28 Bohr mag/cell

     iteration # 10     ecut=    70.00 Ry     beta= 0.70
     Davidson diagonalization with overlap
     ethr =  3.20E-05,  avg # of iterations =  1.0

     negative rho (up, down):  1.180E-03 8.316E-02

     total cpu time spent up to now is     1315.9 secs

     total energy              =    -860.05274419 Ry
     Harris-Foulkes estimate   =    -860.05298942 Ry
     estimated scf accuracy    <       0.04059727 Ry

     total magnetization       =     2.00 Bohr mag/cell
     absolute magnetization    =     2.44 Bohr mag/cell

     iteration # 11     ecut=    70.00 Ry     beta= 0.70
     Davidson diagonalization with overlap
     ethr =  1.90E-05,  avg # of iterations =  1.0

     negative rho (up, down):  1.073E-03 7.993E-02

     total cpu time spent up to now is     1419.8 secs

     total energy              =    -860.05287860 Ry
     Harris-Foulkes estimate   =    -860.05285414 Ry
     estimated scf accuracy    <       0.03866133 Ry

     total magnetization       =     2.00 Bohr mag/cell
     absolute magnetization    =     2.43 Bohr mag/cell

     iteration # 12     ecut=    70.00 Ry     beta= 0.70
     Davidson diagonalization with overlap
     ethr =  1.81E-05,  avg # of iterations =  1.0

     negative rho (up, down):  9.532E-04 7.425E-02

     total cpu time spent up to now is     1524.2 secs

     total energy              =    -860.05301972 Ry
     Harris-Foulkes estimate   =    -860.05322070 Ry
     estimated scf accuracy    <       0.03058710 Ry

     total magnetization       =     2.00 Bohr mag/cell
     absolute magnetization    =     2.48 Bohr mag/cell

     iteration # 13     ecut=    70.00 Ry     beta= 0.70
     Davidson diagonalization with overlap
     ethr =  1.43E-05,  avg # of iterations =  2.0

     negative rho (up, down):  8.194E-04 6.738E-02

     total cpu time spent up to now is     1632.4 secs

     total energy              =    -860.05369506 Ry
     Harris-Foulkes estimate   =    -860.05341372 Ry
     estimated scf accuracy    <       0.02036379 Ry

     total magnetization       =     2.00 Bohr mag/cell
     absolute magnetization    =     2.64 Bohr mag/cell

     iteration # 14     ecut=    70.00 Ry     beta= 0.70
     Davidson diagonalization with overlap
     ethr =  9.52E-06,  avg # of iterations =  2.0

     negative rho (up, down):  8.173E-04 7.129E-02

     total cpu time spent up to now is     1742.5 secs

     total energy              =    -860.05388829 Ry
     Harris-Foulkes estimate   =    -860.05387836 Ry
     estimated scf accuracy    <       0.01574335 Ry

     total magnetization       =     2.00 Bohr mag/cell
     absolute magnetization    =     2.73 Bohr mag/cell

     iteration # 15     ecut=    70.00 Ry     beta= 0.70
     Davidson diagonalization with overlap
     ethr =  7.36E-06,  avg # of iterations =  1.0

     negative rho (up, down):  6.835E-04 6.481E-02

     total cpu time spent up to now is     1847.9 secs

     total energy              =    -860.05347599 Ry
     Harris-Foulkes estimate   =    -860.05391154 Ry
     estimated scf accuracy    <       0.01518225 Ry

     total magnetization       =     2.00 Bohr mag/cell
     absolute magnetization    =     2.74 Bohr mag/cell

     iteration # 16     ecut=    70.00 Ry     beta= 0.70
     Davidson diagonalization with overlap
     ethr =  7.09E-06,  avg # of iterations =  6.0

     negative rho (up, down):  6.788E-04 6.908E-02

     total cpu time spent up to now is     1957.4 secs

     total energy              =    -860.05364361 Ry
     Harris-Foulkes estimate   =    -860.05386797 Ry
     estimated scf accuracy    <       0.00942638 Ry

     total magnetization       =     2.11 Bohr mag/cell
     absolute magnetization    =     2.83 Bohr mag/cell

     iteration # 17     ecut=    70.00 Ry     beta= 0.70
     Davidson diagonalization with overlap
     ethr =  4.40E-06,  avg # of iterations =  2.5

     negative rho (up, down):  4.993E-04 3.053E-02

     total cpu time spent up to now is     2066.1 secs

     total energy              =    -860.05243336 Ry
     Harris-Foulkes estimate   =    -860.05386036 Ry
     estimated scf accuracy    <       0.00785411 Ry

     total magnetization       =     2.11 Bohr mag/cell
     absolute magnetization    =     2.85 Bohr mag/cell

     iteration # 18     ecut=    70.00 Ry     beta= 0.70
     Davidson diagonalization with overlap
     ethr =  3.67E-06,  avg # of iterations = 10.5

     negative rho (up, down):  5.497E-04 2.371E-02

     total cpu time spent up to now is     2199.5 secs

     total energy              =    -860.05305232 Ry
     Harris-Foulkes estimate   =    -860.05491894 Ry
     estimated scf accuracy    <       0.01161911 Ry

     total magnetization       =     2.00 Bohr mag/cell
     absolute magnetization    =     3.17 Bohr mag/cell

     iteration # 19     ecut=    70.00 Ry     beta= 0.70
     Davidson diagonalization with overlap
     ethr =  3.67E-06,  avg # of iterations =  2.5

     negative rho (up, down):  5.491E-04 5.466E-02

     total cpu time spent up to now is     2310.6 secs

     total energy              =    -860.05429073 Ry
     Harris-Foulkes estimate   =    -860.05463564 Ry
     estimated scf accuracy    <       0.00192855 Ry

     total magnetization       =     2.00 Bohr mag/cell
     absolute magnetization    =     3.05 Bohr mag/cell

     iteration # 20     ecut=    70.00 Ry     beta= 0.70
     Davidson diagonalization with overlap
     ethr =  9.01E-07,  avg # of iterations =  2.0

     negative rho (up, down):  5.585E-04 6.729E-02

     total cpu time spent up to now is     2432.3 secs

     total energy              =    -860.05475992 Ry
     Harris-Foulkes estimate   =    -860.05489484 Ry
     estimated scf accuracy    <       0.00149840 Ry

     total magnetization       =     2.00 Bohr mag/cell
     absolute magnetization    =     3.06 Bohr mag/cell

     iteration # 21     ecut=    70.00 Ry     beta= 0.70
     Davidson diagonalization with overlap
     ethr =  7.00E-07,  avg # of iterations =  1.0

     negative rho (up, down):  5.736E-04 1.014E-01

     total cpu time spent up to now is     2538.0 secs

     total energy              =    -860.05301222 Ry
     Harris-Foulkes estimate   =    -860.05477379 Ry
     estimated scf accuracy    <       0.00148559 Ry

     total magnetization       =     2.00 Bohr mag/cell
     absolute magnetization    =     3.05 Bohr mag/cell

     iteration # 22     ecut=    70.00 Ry     beta= 0.70
     Davidson diagonalization with overlap
     ethr =  6.94E-07,  avg # of iterations =  2.5

     negative rho (up, down):  5.508E-04 7.028E-02

     total cpu time spent up to now is     2662.1 secs

     total energy              =    -860.05358521 Ry
     Harris-Foulkes estimate   =    -860.05385577 Ry
     estimated scf accuracy    <       0.00099947 Ry

     total magnetization       =     2.00 Bohr mag/cell
     absolute magnetization    =     3.01 Bohr mag/cell

     iteration # 23     ecut=    70.00 Ry     beta= 0.70
     Davidson diagonalization with overlap
     ethr =  4.67E-07,  avg # of iterations =  3.0

     negative rho (up, down):  5.426E-04 3.361E-02

     total cpu time spent up to now is     2780.2 secs

     total energy              =    -860.05390343 Ry
     Harris-Foulkes estimate   =    -860.05384639 Ry
     estimated scf accuracy    <       0.00030480 Ry

     total magnetization       =     2.00 Bohr mag/cell
     absolute magnetization    =     3.05 Bohr mag/cell

     iteration # 24     ecut=    70.00 Ry     beta= 0.70
     Davidson diagonalization with overlap
     ethr =  1.42E-07,  avg # of iterations =  2.5

     negative rho (up, down):  5.411E-04 1.932E-02

     total cpu time spent up to now is     2895.1 secs

     total energy              =    -860.05391433 Ry
     Harris-Foulkes estimate   =    -860.05394703 Ry
     estimated scf accuracy    <       0.00024017 Ry

     total magnetization       =     2.00 Bohr mag/cell
     absolute magnetization    =     3.09 Bohr mag/cell

     iteration # 25     ecut=    70.00 Ry     beta= 0.70
     Davidson diagonalization with overlap
     ethr =  1.12E-07,  avg # of iterations =  2.0

     negative rho (up, down):  5.398E-04 1.166E-02

     total cpu time spent up to now is     3007.2 secs

     total energy              =    -860.05395330 Ry
     Harris-Foulkes estimate   =    -860.05394856 Ry
     estimated scf accuracy    <       0.00003564 Ry

     total magnetization       =     2.00 Bohr mag/cell
     absolute magnetization    =     3.12 Bohr mag/cell

     iteration # 26     ecut=    70.00 Ry     beta= 0.70
     Davidson diagonalization with overlap
     ethr =  1.67E-08,  avg # of iterations =  3.0

     negative rho (up, down):  5.400E-04 9.276E-03

     total cpu time spent up to now is     3136.4 secs

     total energy              =    -860.05397059 Ry
     Harris-Foulkes estimate   =    -860.05396926 Ry
     estimated scf accuracy    <       0.00003550 Ry

     total magnetization       =     2.00 Bohr mag/cell
     absolute magnetization    =     3.15 Bohr mag/cell

     iteration # 27     ecut=    70.00 Ry     beta= 0.70
     Davidson diagonalization with overlap
     ethr =  1.66E-08,  avg # of iterations =  2.0

     negative rho (up, down):  5.425E-04 1.256E-02

     total cpu time spent up to now is     3244.9 secs

     total energy              =    -860.05397370 Ry
     Harris-Foulkes estimate   =    -860.05397524 Ry
     estimated scf accuracy    <       0.00005166 Ry

     total magnetization       =     2.00 Bohr mag/cell
     absolute magnetization    =     3.16 Bohr mag/cell

     iteration # 28     ecut=    70.00 Ry     beta= 0.70
     Davidson diagonalization with overlap
     ethr =  1.66E-08,  avg # of iterations =  1.0

     negative rho (up, down):  5.482E-04 1.885E-02

     total cpu time spent up to now is     3360.9 secs

     total energy              =    -860.05395899 Ry
     Harris-Foulkes estimate   =    -860.05397394 Ry
     estimated scf accuracy    <       0.00005356 Ry

     total magnetization       =     2.00 Bohr mag/cell
     absolute magnetization    =     3.16 Bohr mag/cell

     iteration # 29     ecut=    70.00 Ry     beta= 0.70
     Davidson diagonalization with overlap
     ethr =  1.66E-08,  avg # of iterations =  2.0

     negative rho (up, down):  5.524E-04 2.227E-02

     total cpu time spent up to now is     3479.2 secs

     total energy              =    -860.05393591 Ry
     Harris-Foulkes estimate   =    -860.05396514 Ry
     estimated scf accuracy    <       0.00006667 Ry

     total magnetization       =     2.00 Bohr mag/cell
     absolute magnetization    =     3.16 Bohr mag/cell

     iteration # 30     ecut=    70.00 Ry     beta= 0.70
     Davidson diagonalization with overlap
     ethr =  1.66E-08,  avg # of iterations =  3.0

     negative rho (up, down):  5.421E-04 1.266E-02

     total cpu time spent up to now is     3593.9 secs

     total energy              =    -860.05395913 Ry
     Harris-Foulkes estimate   =    -860.05395062 Ry
     estimated scf accuracy    <       0.00000859 Ry

     total magnetization       =     2.00 Bohr mag/cell
     absolute magnetization    =     3.16 Bohr mag/cell

     iteration # 31     ecut=    70.00 Ry     beta= 0.70
     Davidson diagonalization with overlap
     ethr =  4.01E-09,  avg # of iterations =  3.0

     negative rho (up, down):  5.395E-04 8.846E-03

     total cpu time spent up to now is     3721.9 secs

     total energy              =    -860.05396299 Ry
     Harris-Foulkes estimate   =    -860.05396087 Ry
     estimated scf accuracy    <       0.00000818 Ry

     total magnetization       =     2.00 Bohr mag/cell
     absolute magnetization    =     3.17 Bohr mag/cell

     iteration # 32     ecut=    70.00 Ry     beta= 0.70
     Davidson diagonalization with overlap
     ethr =  3.82E-09,  avg # of iterations =  2.0

     negative rho (up, down):  5.391E-04 7.990E-03

     total cpu time spent up to now is     3838.8 secs

     total energy              =    -860.05396481 Ry
     Harris-Foulkes estimate   =    -860.05396335 Ry
     estimated scf accuracy    <       0.00000422 Ry

     total magnetization       =     2.00 Bohr mag/cell
     absolute magnetization    =     3.17 Bohr mag/cell

     iteration # 33     ecut=    70.00 Ry     beta= 0.70
     Davidson diagonalization with overlap
     ethr =  1.97E-09,  avg # of iterations =  2.5

     negative rho (up, down):  5.392E-04 8.763E-03

     total cpu time spent up to now is     3965.8 secs

     total energy              =    -860.05396428 Ry
     Harris-Foulkes estimate   =    -860.05396525 Ry
     estimated scf accuracy    <       0.00000480 Ry

     total magnetization       =     2.00 Bohr mag/cell
     absolute magnetization    =     3.17 Bohr mag/cell

     iteration # 34     ecut=    70.00 Ry     beta= 0.70
     Davidson diagonalization with overlap
     ethr =  1.97E-09,  avg # of iterations =  2.0

     negative rho (up, down):  5.391E-04 8.807E-03

     total cpu time spent up to now is     4088.0 secs

     total energy              =    -860.05396404 Ry
     Harris-Foulkes estimate   =    -860.05396456 Ry
     estimated scf accuracy    <       0.00000426 Ry

     total magnetization       =     2.00 Bohr mag/cell
     absolute magnetization    =     3.17 Bohr mag/cell

     iteration # 35     ecut=    70.00 Ry     beta= 0.70
     Davidson diagonalization with overlap
     ethr =  1.97E-09,  avg # of iterations =  2.0

     negative rho (up, down):  5.391E-04 9.719E-03

     total cpu time spent up to now is     4215.6 secs

     total energy              =    -860.05396010 Ry
     Harris-Foulkes estimate   =    -860.05396479 Ry
     estimated scf accuracy    <       0.00000503 Ry

     total magnetization       =     2.00 Bohr mag/cell
     absolute magnetization    =     3.17 Bohr mag/cell

     iteration # 36     ecut=    70.00 Ry     beta= 0.70
     Davidson diagonalization with overlap
     ethr =  1.97E-09,  avg # of iterations =  3.0

     negative rho (up, down):  5.392E-04 8.159E-03

     total cpu time spent up to now is     4345.0 secs

     total energy              =    -860.05396332 Ry
     Harris-Foulkes estimate   =    -860.05396318 Ry
     estimated scf accuracy    <       0.00000172 Ry

     total magnetization       =     2.00 Bohr mag/cell
     absolute magnetization    =     3.18 Bohr mag/cell

     iteration # 37     ecut=    70.00 Ry     beta= 0.70
     Davidson diagonalization with overlap
     ethr =  8.05E-10,  avg # of iterations =  2.0

     negative rho (up, down):  5.391E-04 7.438E-03

     Magnetic moment per site:
     atom:    1    charge:    0.2119    magn:   -0.0000    constr:    0.0000
     atom:    2    charge:    0.2109    magn:   -0.0000    constr:    0.0000
     atom:    3    charge:    1.7171    magn:   -0.0127    constr:    0.0000
     atom:    4    charge:    1.7153    magn:    0.0178    constr:    0.0000
     atom:    5    charge:    1.7177    magn:   -0.0086    constr:    0.0000
     atom:    6    charge:    1.7142    magn:    0.0057    constr:    0.0000
     atom:    7    charge:    1.7176    magn:   -0.0086    constr:    0.0000
     atom:    8    charge:    1.7152    magn:    0.0178    constr:    0.0000
     atom:    9    charge:    1.7171    magn:   -0.0127    constr:    0.0000
     atom:   10    charge:    1.7148    magn:    0.0588    constr:    0.0000
     atom:   11    charge:    1.7176    magn:   -0.0173    constr:    0.0000
     atom:   12    charge:    1.7149    magn:    0.0588    constr:    0.0000
     atom:   13    charge:    1.7176    magn:   -0.0173    constr:    0.0000
     atom:   14    charge:    1.7155    magn:    0.0460    constr:    0.0000
     atom:   15    charge:    1.7140    magn:   -0.0137    constr:    0.0000
     atom:   16    charge:    1.7106    magn:    0.0555    constr:    0.0000
     atom:   17    charge:    1.7228    magn:   -0.0121    constr:    0.0000
     atom:   18    charge:    1.7106    magn:    0.0555    constr:    0.0000
     atom:   19    charge:    1.7140    magn:   -0.0136    constr:    0.0000
     atom:   20    charge:    1.7154    magn:    0.0460    constr:    0.0000
     atom:   21    charge:    1.7176    magn:   -0.0173    constr:    0.0000
     atom:   22    charge:    1.7148    magn:    0.0588    constr:    0.0000
     atom:   23    charge:    1.7171    magn:   -0.0127    constr:    0.0000
     atom:   24    charge:    1.7153    magn:    0.0178    constr:    0.0000
     atom:   25    charge:    1.7140    magn:   -0.0137    constr:    0.0000
     atom:   26    charge:    1.7106    magn:    0.0555    constr:    0.0000
     atom:   27    charge:    1.8519    magn:   -0.0194    constr:    0.0000
     atom:   28    charge:   11.1425    magn:    0.4520    constr:    0.0000
     atom:   29    charge:    1.8518    magn:   -0.0194    constr:    0.0000
     atom:   30    charge:    1.7106    magn:    0.0555    constr:    0.0000
     atom:   31    charge:    1.7140    magn:   -0.0136    constr:    0.0000
     atom:   32    charge:    1.7152    magn:    0.0178    constr:    0.0000
     atom:   33    charge:    1.7176    magn:   -0.0086    constr:    0.0000
     atom:   34    charge:    1.7139    magn:    0.0125    constr:    0.0000
     atom:   35    charge:    1.7177    magn:   -0.0086    constr:    0.0000
     atom:   36    charge:    1.7142    magn:    0.0057    constr:    0.0000
     atom:   37    charge:    1.7229    magn:   -0.0122    constr:    0.0000
     atom:   38    charge:    1.7106    magn:    0.0555    constr:    0.0000
     atom:   39    charge:    1.8519    magn:   -0.0194    constr:    0.0000
     atom:   40    charge:    1.7106    magn:    0.0555    constr:    0.0000
     atom:   41    charge:    1.7228    magn:   -0.0121    constr:    0.0000
     atom:   42    charge:    1.7142    magn:    0.0057    constr:    0.0000
     atom:   43    charge:    1.7177    magn:   -0.0086    constr:    0.0000
     atom:   44    charge:    1.7139    magn:    0.0125    constr:    0.0000
     atom:   45    charge:    1.7236    magn:   -0.0051    constr:    0.0000
     atom:   46    charge:    1.7139    magn:    0.0125    constr:    0.0000
     atom:   47    charge:    1.7177    magn:   -0.0086    constr:    0.0000
     atom:   48    charge:    1.7153    magn:    0.0178    constr:    0.0000
     atom:   49    charge:    1.7140    magn:   -0.0137    constr:    0.0000
     atom:   50    charge:    1.7155    magn:    0.0460    constr:    0.0000
     atom:   51    charge:    1.7140    magn:   -0.0137    constr:    0.0000
     atom:   52    charge:    1.7153    magn:    0.0178    constr:    0.0000

     total cpu time spent up to now is     4462.1 secs

     End of self-consistent calculation

 ------ SPIN UP ------------


          k = 0.0000 0.0000 0.0000 ( 87777 PWs)   bands (ev):

   -88.6933 -55.5815 -55.5811 -53.8665 -19.8875 -19.0527 -19.0524 -18.9663
   -18.9280 -18.9277 -18.5843 -17.1775 -17.1775 -17.1774 -17.1058 -17.1058
   -16.8002 -16.3311 -16.3311 -16.2296 -16.1776 -16.1775 -15.4860 -14.2332
   -14.2331 -14.1479 -14.1008 -14.1007 -13.4323 -13.1648 -13.1648 -13.1404
   -12.8602 -12.8602 -12.4514 -11.9436 -11.9436 -11.7555 -11.5081 -11.5080
   -10.6267  -9.7934  -9.7933  -9.5305  -9.4215  -9.4215  -9.3385  -9.3075
    -9.3074  -9.2946  -8.8284  -8.8283  -8.2853  -8.2852  -8.1965  -8.0350
    -7.9370  -7.5476  -7.5476  -7.3407  -7.2243  -7.2239  -7.0801  -7.0800
    -6.9465  -6.9231  -6.9228  -6.8122  -6.6695  -6.6694  -6.6391  -6.6266
    -6.6265  -6.5842  -6.5797  -6.2751  -5.7358  -5.7355  -5.6702  -5.6699
    -5.4811  -5.4811  -5.2755  -5.0921  -4.9820  -4.8448  -4.8186  -4.8186
    -4.5340  -4.5338  -4.5038  -4.3364  -4.3363  -3.9815  -3.9814  -3.8945
    -3.7856  -3.7855  -3.2097  -2.8964  -2.8962  -1.9777  -1.9073  -1.9073
    -1.3008  -1.3005  -1.0629  -0.8905   0.8197   0.8677   0.8677   1.3960
     1.3960   1.5055   2.3853   2.3866   2.5210   2.6622   2.6623   2.7618
     3.2969   3.2970   3.4113   3.6631   3.6634   3.7224   3.7367   3.7368

     occupation numbers 
     1.0000   1.0000   1.0000   1.0000   1.0000   1.0000   1.0000   1.0000
     1.0000   1.0000   1.0000   1.0000   1.0000   1.0000   1.0000   1.0000
     1.0000   1.0000   1.0000   1.0000   1.0000   1.0000   1.0000   1.0000
     1.0000   1.0000   1.0000   1.0000   1.0000   1.0000   1.0000   1.0000
     1.0000   1.0000   1.0000   1.0000   1.0000   1.0000   1.0000   1.0000
     1.0000   1.0000   1.0000   1.0000   1.0000   1.0000   1.0000   1.0000
     1.0000   1.0000   1.0000   1.0000   1.0000   1.0000   1.0000   1.0000
     1.0000   1.0000   1.0000   1.0000   1.0000   1.0000   1.0000   1.0000
     1.0000   1.0000   1.0000   1.0000   1.0000   1.0000   1.0000   1.0000
     1.0000   1.0000   1.0000   1.0000   1.0000   1.0000   1.0000   1.0000
     1.0000   1.0000   1.0000   1.0000   1.0000   1.0000   1.0000   1.0000
     1.0000   1.0000   1.0000   1.0000   1.0000   1.0000   1.0000   1.0000
     1.0000   1.0000   1.0000   1.0000   1.0000   1.0000   1.0000   1.0000
     1.0000   1.0000   1.0000   1.0000   0.0000   0.0000   0.0000   0.0000
     0.0000   0.0000   0.0000   0.0000   0.0000   0.0000   0.0000   0.0000
     0.0000   0.0000   0.0000   0.0000   0.0000   0.0000   0.0000   0.0000

 ------ SPIN DOWN ----------


          k = 0.0000 0.0000 0.0000 ( 87777 PWs)   bands (ev):

   -87.9733 -54.9942 -54.9942 -52.9735 -19.8455 -19.0062 -19.0059 -18.9265
   -18.9017 -18.9015 -18.5253 -17.1498 -17.1410 -17.1410 -17.0519 -17.0519
   -16.7701 -16.2856 -16.2855 -16.1956 -16.1342 -16.1341 -15.4614 -14.1622
   -14.1621 -14.0907 -14.0906 -14.0853 -13.4389 -13.1400 -13.1400 -13.1080
   -12.8412 -12.8412 -12.4206 -11.9060 -11.9060 -11.7326 -11.4860 -11.4860
   -10.6039  -9.7448  -9.7446  -9.4988  -9.3894  -9.3893  -9.3214  -9.2839
    -9.2839  -9.2766  -8.8158  -8.8158  -8.2498  -8.2497  -8.1770  -7.9375
    -7.9199  -7.5330  -7.5329  -7.3087  -7.0597  -7.0594  -7.0342  -7.0339
    -6.8638  -6.8635  -6.8467  -6.7969  -6.6530  -6.6529  -6.6285  -6.6129
    -6.6128  -6.5617  -6.4480  -6.2748  -5.6904  -5.6902  -5.4391  -5.4391
    -5.4360  -5.4358  -5.1961  -5.0783  -4.9722  -4.7701  -4.7262  -4.7261
    -4.4509  -4.4507  -4.4304  -4.2103  -4.2102  -3.8467  -3.8467  -3.7978
    -3.7708  -3.7707  -3.1659  -2.6656  -2.6656  -1.8799  -1.8799  -1.8164
    -0.9055  -0.8518  -0.7921  -0.7920   0.9149   0.9150   0.9770   1.5520
     1.5520   1.6283   2.5329   2.5341   2.5343   2.8036   2.8036   2.8358
     3.4551   3.4552   3.5006   3.6807   3.6808   3.7343   3.7423   3.7425

     occupation numbers 
     1.0000   1.0000   1.0000   1.0000   1.0000   1.0000   1.0000   1.0000
     1.0000   1.0000   1.0000   1.0000   1.0000   1.0000   1.0000   1.0000
     1.0000   1.0000   1.0000   1.0000   1.0000   1.0000   1.0000   1.0000
     1.0000   1.0000   1.0000   1.0000   1.0000   1.0000   1.0000   1.0000
     1.0000   1.0000   1.0000   1.0000   1.0000   1.0000   1.0000   1.0000
     1.0000   1.0000   1.0000   1.0000   1.0000   1.0000   1.0000   1.0000
     1.0000   1.0000   1.0000   1.0000   1.0000   1.0000   1.0000   1.0000
     1.0000   1.0000   1.0000   1.0000   1.0000   1.0000   1.0000   1.0000
     1.0000   1.0000   1.0000   1.0000   1.0000   1.0000   1.0000   1.0000
     1.0000   1.0000   1.0000   1.0000   1.0000   1.0000   1.0000   1.0000
     1.0000   1.0000   1.0000   1.0000   1.0000   1.0000   1.0000   1.0000
     1.0000   1.0000   1.0000   1.0000   1.0000   1.0000   1.0000   1.0000
     1.0000   1.0000   1.0000   1.0000   1.0000   1.0000   1.0000   1.0000
     1.0000   1.0000   0.0000   0.0000   0.0000   0.0000   0.0000   0.0000
     0.0000   0.0000   0.0000   0.0000   0.0000   0.0000   0.0000   0.0000
     0.0000   0.0000   0.0000   0.0000   0.0000   0.0000   0.0000   0.0000

     the Fermi energy is    -0.8393 ev

!    total energy              =    -860.05396453 Ry
     Harris-Foulkes estimate   =    -860.05396371 Ry
     estimated scf accuracy    <       0.00000090 Ry

     The total energy is the sum of the following terms:

     one-electron contribution =   -2779.25072932 Ry
     hartree contribution      =    1433.41561222 Ry
     xc contribution           =    -259.29907247 Ry
     ewald contribution        =     745.08014340 Ry
     smearing contrib. (-TS)   =       0.00008163 Ry

     total magnetization       =     2.00 Bohr mag/cell
     absolute magnetization    =     3.18 Bohr mag/cell

     convergence has been achieved in  37 iterations

     Writing output data file distance-5.0.save/

     init_run     :     79.54s CPU     82.86s WALL (       1 calls)
     electrons    :   4299.43s CPU   4378.26s WALL (       1 calls)

     Called by init_run:
     wfcinit      :     49.57s CPU     49.87s WALL (       1 calls)
     wfcinit:atom :      0.05s CPU      0.08s WALL (       2 calls)
     wfcinit:wfcr :     49.13s CPU     49.36s WALL (       2 calls)
     potinit      :     12.26s CPU     13.78s WALL (       1 calls)
     hinit0       :      7.70s CPU      7.91s WALL (       1 calls)

     Called by electrons:
     c_bands      :   2703.48s CPU   2718.58s WALL (      37 calls)
     sum_band     :    940.14s CPU    966.34s WALL (      37 calls)
     v_of_rho     :    317.13s CPU    334.28s WALL (      38 calls)
     v_h          :      3.83s CPU      3.92s WALL (      38 calls)
     v_xc         :    313.30s CPU    330.36s WALL (      38 calls)
     newd         :    322.54s CPU    344.95s WALL (      38 calls)
     mix_rho      :     21.71s CPU     22.01s WALL (      37 calls)

     Called by c_bands:
     init_us_2    :      7.61s CPU      7.66s WALL (     150 calls)
     cegterg      :   2684.17s CPU   2699.19s WALL (      74 calls)

     Called by sum_band:
     sum_band:bec :      0.06s CPU      0.06s WALL (      74 calls)
     addusdens    :    601.01s CPU    624.70s WALL (      37 calls)

     Called by *egterg:
     h_psi        :   1464.18s CPU   1474.57s WALL (     284 calls)
     s_psi        :    453.49s CPU    453.74s WALL (     284 calls)
     g_psi        :      1.41s CPU      1.41s WALL (     208 calls)
     cdiaghg      :     20.76s CPU     20.79s WALL (     282 calls)
     cegterg:over :    311.44s CPU    311.63s WALL (     208 calls)
     cegterg:upda :    192.06s CPU    193.33s WALL (     208 calls)
     cegterg:last :    142.16s CPU    142.24s WALL (      74 calls)

     Called by h_psi:
     h_psi:pot    :   1462.71s CPU   1471.24s WALL (     284 calls)
     h_psi:calbec :    451.92s CPU    452.13s WALL (     284 calls)
     vloc_psi     :    557.05s CPU    565.20s WALL (     284 calls)
     add_vuspsi   :    453.73s CPU    453.91s WALL (     284 calls)

     General routines
     calbec       :    652.69s CPU    652.99s WALL (     358 calls)
     fft          :    190.57s CPU    197.43s WALL (    2844 calls)
     ffts         :      3.60s CPU      3.72s WALL (     150 calls)
     fftw         :    584.85s CPU    593.82s WALL (   52942 calls)
     interpolate  :      8.78s CPU      9.00s WALL (      76 calls)

     Parallel routines
     fft_scatt_xy :    166.72s CPU    167.74s WALL (   55936 calls)
     fft_scatt_yz :    223.27s CPU    235.04s WALL (   55936 calls)

     PWSCF        :      1h13m CPU      1h14m WALL


   This run was terminated on:  20: 6:37  24Aug2022            

=------------------------------------------------------------------------------=
   JOB DONE.
=------------------------------------------------------------------------------=
