
     Program PWSCF v.6.4.1 starts on 25Aug2022 at  0:10:21 

     This program is part of the open-source Quantum ESPRESSO suite
     for quantum simulation of materials; please cite
         "P. Giannozzi et al., J. Phys.:Condens. Matter 21 395502 (2009);
         "P. Giannozzi et al., J. Phys.:Condens. Matter 29 465901 (2017);
          URL http://www.quantum-espresso.org", 
     in publications or presentations arising from this work. More details at
     http://www.quantum-espresso.org/quote

     Parallel version (MPI), running on     6 processors

     MPI processes distributed on     1 nodes
     R & G space division:  proc/nbgrp/npool/nimage =       6
     Reading input from distance-3.5.in

     Current dimensions of program PWSCF are:
     Max number of different atomic species (ntypx) = 10
     Max number of k-points (npk) =  40000
     Max angular momentum in pseudopotentials (lmaxx) =  3

     IMPORTANT: XC functional enforced from input :
     Exchange-correlation      = RVV10 ( 1  4 13  4 3 0)
     Any further DFT definition will be discarded
     Please, verify this is what you really want

               file H.pbe-rrkjus.UPF: wavefunction(s)  1S renormalized

     Subspace diagonalization in iterative solution of the eigenvalue problem:
     a serial algorithm will be used


     Parallelization info
     --------------------
     sticks:   dense  smooth     PW     G-vecs:    dense   smooth      PW
     Min        3051    1746    432               270999   117096   14629
     Max        3053    1747    437               271001   117099   14630
     Sum       18313   10477   2611              1626001   702581   87777



     bravais-lattice index     =            4
     lattice parameter (alat)  =      23.2937  a.u.
     unit-cell volume          =    8879.8548 (a.u.)^3
     number of atoms/cell      =           52
     number of atomic types    =            3
     number of electrons       =       214.00
     number of Kohn-Sham states=          128
     kinetic-energy cutoff     =      70.0000  Ry
     charge density cutoff     =     490.0000  Ry
     convergence threshold     =      1.0E-06
     mixing beta               =       0.7000
     number of iterations used =            8  plain     mixing
     Exchange-correlation      = RVV10 ( 1  4 13  4 3 0)

     celldm(1)=  23.293684  celldm(2)=   0.000000  celldm(3)=   0.811261
     celldm(4)=   0.000000  celldm(5)=   0.000000  celldm(6)=   0.000000

     crystal axes: (cart. coord. in units of alat)
               a(1) = (   1.000000   0.000000   0.000000 )  
               a(2) = (  -0.500000   0.866025   0.000000 )  
               a(3) = (   0.000000   0.000000   0.811261 )  

     reciprocal axes: (cart. coord. in units 2 pi/alat)
               b(1) = (  1.000000  0.577350 -0.000000 )  
               b(2) = (  0.000000  1.154701  0.000000 )  
               b(3) = (  0.000000 -0.000000  1.232649 )  


     PseudoPot. # 1 for H  read from file:
     /home/cristian/Escritorio/Proyecto_Grafeno/pseudopotenciales/H.pbe-rrkjus.UPF
     MD5 check sum: 7cc9d459525c9a0585f487a71c3c9563
     Pseudo is Ultrasoft, Zval =  1.0
     Generated by new atomic code, or converted to UPF format
     Using radial grid of 1061 points,  2 beta functions with: 
                l(1) =   0
                l(2) =   0
     Q(r) pseudized with 0 coefficients 


     PseudoPot. # 2 for C  read from file:
     /home/cristian/Escritorio/Proyecto_Grafeno/pseudopotenciales/C.pbe-n-rrkjus_psl.1.0.0.UPF
     MD5 check sum: 1fdd950c42eb37d8afe3dd2f8d12311e
     Pseudo is Ultrasoft + core correction, Zval =  4.0
     Generated using "atomic" code by A. Dal Corso v.6.3MaX
     Using radial grid of 1073 points,  4 beta functions with: 
                l(1) =   0
                l(2) =   0
                l(3) =   1
                l(4) =   1
     Q(r) pseudized with 0 coefficients 


     PseudoPot. # 3 for Fe read from file:
     /home/cristian/Escritorio/Proyecto_Grafeno/pseudopotenciales/Fe.pbe-spn-rrkjus_psl.1.0.0.UPF
     MD5 check sum: 72ea77fed8e64ab3a2ccf2804dfc1862
     Pseudo is Ultrasoft + core correction, Zval = 16.0
     Generated using "atomic" code by A. Dal Corso v.6.3
     Using radial grid of 1191 points,  6 beta functions with: 
                l(1) =   0
                l(2) =   0
                l(3) =   1
                l(4) =   1
                l(5) =   2
                l(6) =   2
     Q(r) pseudized with 0 coefficients 


     vdW kernel table read from file rVV10_kernel_table
     MD5 check sum: b8e2538accc0c0b3206b45ba4daaba6c

     atomic species   valence    mass     pseudopotential
        H              1.00     1.00794     H ( 1.00)
        C              4.00    12.01070     C ( 1.00)
        Fe            16.00    55.84500     Fe( 1.00)

     Starting magnetic structure 
     atomic species   magnetization
        H            0.500
        C            0.300
        Fe           0.800

      2 Sym. Ops. (no inversion) found


                                    s                        frac. trans.

      isym =  1     identity                                     

 cryst.   s( 1) = (     1          0          0      )
                  (     0          1          0      )
                  (     0          0          1      )

 cart.    s( 1) = (  1.0000000  0.0000000  0.0000000 )
                  (  0.0000000  1.0000000  0.0000000 )
                  (  0.0000000  0.0000000  1.0000000 )


      isym =  2     inv. 180 deg rotation - cryst. axis [1,1,0]  

 cryst.   s( 2) = (     0         -1          0      )
                  (    -1          0          0      )
                  (     0          0          1      )

 cart.    s( 2) = (  0.5000000 -0.8660254  0.0000000 )
                  ( -0.8660254 -0.5000000  0.0000000 )
                  (  0.0000000  0.0000000  1.0000000 )


     point group C_s (m)    
     there are  2 classes
     the character table:

       E     s    
A'     1.00  1.00
A''    1.00 -1.00

     the symmetry operations in each class and the name of the first element:

     E        1
          identity                                               
     s        2
          inv. 180 deg rotation - cryst. axis [1,1,0]            

   Cartesian axes

     site n.     atom                  positions (alat units)
         1           H   tau(   1) = (   0.2000000   0.4618802   0.2839414  )
         2           H   tau(   2) = (   0.2000000   0.4618802   0.3449541  )
         3           C   tau(   3) = (   0.0000000   0.0000000   0.0000000  )
         4           C   tau(   4) = (   0.0000000   0.1154701   0.0000000  )
         5           C   tau(   5) = (  -0.1000000   0.1732051   0.0000000  )
         6           C   tau(   6) = (  -0.1000000   0.2886751   0.0000000  )
         7           C   tau(   7) = (  -0.2000000   0.3464102   0.0000000  )
         8           C   tau(   8) = (  -0.2000000   0.4618802   0.0000000  )
         9           C   tau(   9) = (  -0.3000000   0.5196152   0.0000000  )
        10           C   tau(  10) = (  -0.3000000   0.6350853   0.0000000  )
        11           C   tau(  11) = (  -0.4000000   0.6928203   0.0000000  )
        12           C   tau(  12) = (  -0.4000000   0.8082904   0.0000000  )
        13           C   tau(  13) = (   0.2000000   0.0000000   0.0000000  )
        14           C   tau(  14) = (   0.2000000   0.1154701   0.0000000  )
        15           C   tau(  15) = (   0.1000000   0.1732051   0.0000000  )
        16           C   tau(  16) = (   0.1000000   0.2886751   0.0000000  )
        17           C   tau(  17) = (   0.0000000   0.3464102   0.0000000  )
        18           C   tau(  18) = (   0.0000000   0.4618802   0.0000000  )
        19           C   tau(  19) = (  -0.1000000   0.5196152   0.0000000  )
        20           C   tau(  20) = (  -0.1000000   0.6350853   0.0000000  )
        21           C   tau(  21) = (  -0.2000000   0.6928203   0.0000000  )
        22           C   tau(  22) = (  -0.2000000   0.8082904   0.0000000  )
        23           C   tau(  23) = (   0.4000000   0.0000000   0.0000000  )
        24           C   tau(  24) = (   0.4000000   0.1154701   0.0000000  )
        25           C   tau(  25) = (   0.3000000   0.1732051   0.0000000  )
        26           C   tau(  26) = (   0.3000000   0.2886751   0.0000000  )
        27           C   tau(  27) = (   0.2000000   0.3464102   0.0000000  )
        28           Fe  tau(  28) = (   0.2000000   0.4618802   0.0000000  )
        29           C   tau(  29) = (   0.1000000   0.5196152   0.0000000  )
        30           C   tau(  30) = (   0.1000000   0.6350853   0.0000000  )
        31           C   tau(  31) = (   0.0000000   0.6928203   0.0000000  )
        32           C   tau(  32) = (   0.0000000   0.8082904   0.0000000  )
        33           C   tau(  33) = (   0.6000000   0.0000000   0.0000000  )
        34           C   tau(  34) = (   0.6000000   0.1154701   0.0000000  )
        35           C   tau(  35) = (   0.5000000   0.1732051   0.0000000  )
        36           C   tau(  36) = (   0.5000000   0.2886751   0.0000000  )
        37           C   tau(  37) = (   0.4000000   0.3464102   0.0000000  )
        38           C   tau(  38) = (   0.4000000   0.4618802   0.0000000  )
        39           C   tau(  39) = (   0.3000000   0.5196152   0.0000000  )
        40           C   tau(  40) = (   0.3000000   0.6350853   0.0000000  )
        41           C   tau(  41) = (   0.2000000   0.6928203   0.0000000  )
        42           C   tau(  42) = (   0.2000000   0.8082904   0.0000000  )
        43           C   tau(  43) = (   0.8000000   0.0000000   0.0000000  )
        44           C   tau(  44) = (   0.8000000   0.1154701   0.0000000  )
        45           C   tau(  45) = (   0.7000000   0.1732051   0.0000000  )
        46           C   tau(  46) = (   0.7000000   0.2886751   0.0000000  )
        47           C   tau(  47) = (   0.6000000   0.3464102   0.0000000  )
        48           C   tau(  48) = (   0.6000000   0.4618802   0.0000000  )
        49           C   tau(  49) = (   0.5000000   0.5196152   0.0000000  )
        50           C   tau(  50) = (   0.5000000   0.6350853   0.0000000  )
        51           C   tau(  51) = (   0.4000000   0.6928203   0.0000000  )
        52           C   tau(  52) = (   0.4000000   0.8082904   0.0000000  )

   Crystallographic axes

     site n.     atom                  positions (cryst. coord.)
         1           H   tau(   1) = (  0.4666667  0.5333333  0.3500000  )
         2           H   tau(   2) = (  0.4666667  0.5333333  0.4252072  )
         3           C   tau(   3) = (  0.0000000  0.0000000  0.0000000  )
         4           C   tau(   4) = (  0.0666667  0.1333333  0.0000000  )
         5           C   tau(   5) = (  0.0000000  0.2000000  0.0000000  )
         6           C   tau(   6) = (  0.0666667  0.3333333  0.0000000  )
         7           C   tau(   7) = (  0.0000000  0.4000000  0.0000000  )
         8           C   tau(   8) = (  0.0666667  0.5333333  0.0000000  )
         9           C   tau(   9) = (  0.0000000  0.6000000  0.0000000  )
        10           C   tau(  10) = (  0.0666667  0.7333333  0.0000000  )
        11           C   tau(  11) = (  0.0000000  0.8000000  0.0000000  )
        12           C   tau(  12) = (  0.0666667  0.9333333  0.0000000  )
        13           C   tau(  13) = (  0.2000000  0.0000000  0.0000000  )
        14           C   tau(  14) = (  0.2666667  0.1333333  0.0000000  )
        15           C   tau(  15) = (  0.2000000  0.2000000  0.0000000  )
        16           C   tau(  16) = (  0.2666667  0.3333333  0.0000000  )
        17           C   tau(  17) = (  0.2000000  0.4000000  0.0000000  )
        18           C   tau(  18) = (  0.2666667  0.5333333  0.0000000  )
        19           C   tau(  19) = (  0.2000000  0.6000000  0.0000000  )
        20           C   tau(  20) = (  0.2666667  0.7333333  0.0000000  )
        21           C   tau(  21) = (  0.2000000  0.8000000  0.0000000  )
        22           C   tau(  22) = (  0.2666667  0.9333333  0.0000000  )
        23           C   tau(  23) = (  0.4000000  0.0000000  0.0000000  )
        24           C   tau(  24) = (  0.4666667  0.1333333  0.0000000  )
        25           C   tau(  25) = (  0.4000000  0.2000000  0.0000000  )
        26           C   tau(  26) = (  0.4666667  0.3333333  0.0000000  )
        27           C   tau(  27) = (  0.4000000  0.4000000  0.0000000  )
        28           Fe  tau(  28) = (  0.4666667  0.5333333  0.0000000  )
        29           C   tau(  29) = (  0.4000000  0.6000000  0.0000000  )
        30           C   tau(  30) = (  0.4666667  0.7333333  0.0000000  )
        31           C   tau(  31) = (  0.4000000  0.8000000  0.0000000  )
        32           C   tau(  32) = (  0.4666667  0.9333333  0.0000000  )
        33           C   tau(  33) = (  0.6000000  0.0000000  0.0000000  )
        34           C   tau(  34) = (  0.6666667  0.1333333  0.0000000  )
        35           C   tau(  35) = (  0.6000000  0.2000000  0.0000000  )
        36           C   tau(  36) = (  0.6666667  0.3333333  0.0000000  )
        37           C   tau(  37) = (  0.6000000  0.4000000  0.0000000  )
        38           C   tau(  38) = (  0.6666667  0.5333333  0.0000000  )
        39           C   tau(  39) = (  0.6000000  0.6000000  0.0000000  )
        40           C   tau(  40) = (  0.6666667  0.7333333  0.0000000  )
        41           C   tau(  41) = (  0.6000000  0.8000000  0.0000000  )
        42           C   tau(  42) = (  0.6666667  0.9333333  0.0000000  )
        43           C   tau(  43) = (  0.8000000  0.0000000  0.0000000  )
        44           C   tau(  44) = (  0.8666667  0.1333333  0.0000000  )
        45           C   tau(  45) = (  0.8000000  0.2000000  0.0000000  )
        46           C   tau(  46) = (  0.8666667  0.3333333  0.0000000  )
        47           C   tau(  47) = (  0.8000000  0.4000000  0.0000000  )
        48           C   tau(  48) = (  0.8666667  0.5333333  0.0000000  )
        49           C   tau(  49) = (  0.8000000  0.6000000  0.0000000  )
        50           C   tau(  50) = (  0.8666667  0.7333333  0.0000000  )
        51           C   tau(  51) = (  0.8000000  0.8000000  0.0000000  )
        52           C   tau(  52) = (  0.8666667  0.9333333  0.0000000  )

     number of k points=     1  Marzari-Vanderbilt smearing, width (Ry)=  0.0010
                       cart. coord. in units 2pi/alat
        k(    1) = (   0.0000000   0.0000000   0.0000000), wk =   1.0000000

                       cryst. coord.
        k(    1) = (   0.0000000   0.0000000   0.0000000), wk =   1.0000000

     Dense  grid:  1626001 G-vectors     FFT dimensions: ( 180, 180, 135)

     Smooth grid:   702581 G-vectors     FFT dimensions: ( 125, 125, 108)

     Dynamical RAM for                 wfc:      28.59 MB

     Dynamical RAM for     wfc (w. buffer):      85.76 MB

     Dynamical RAM for           str. fact:      12.41 MB

     Dynamical RAM for           local pot:       0.00 MB

     Dynamical RAM for          nlocal pot:      92.46 MB

     Dynamical RAM for                qrad:      19.73 MB

     Dynamical RAM for          rho,v,vnew:      58.92 MB

     Dynamical RAM for               rhoin:      19.64 MB

     Dynamical RAM for            rho*nmix:     132.32 MB

     Dynamical RAM for           G-vectors:      16.40 MB

     Dynamical RAM for          h,s,v(r/c):      12.00 MB

     Dynamical RAM for          <psi|beta>:       0.81 MB

     Dynamical RAM for                 psi:     114.35 MB

     Dynamical RAM for                hpsi:     114.35 MB

     Dynamical RAM for                spsi:     114.35 MB

     Dynamical RAM for      wfcinit/wfcrot:      93.90 MB

     Dynamical RAM for           addusdens:     975.89 MB

     Estimated static dynamical RAM per process >     488.30 MB

     Estimated max dynamical RAM per process >       1.43 GB

     Estimated total dynamical RAM >       8.58 GB
     Generating pointlists ...
     new r_m :   0.0252 (alat units)  0.5862 (a.u.) for type    1
     new r_m :   0.0476 (alat units)  1.1095 (a.u.) for type    2
     new r_m :   0.0476 (alat units)  1.1095 (a.u.) for type    3

     Check: negative core charge=   -0.000002

     Initial potential from superposition of free atoms

     starting charge  213.80512, renormalised to  214.00000

     negative rho (up, down):  5.784E-05 1.002E-02


---------------------------------------------------------------------------------
Carrying out rVV10 run using the following parameters:
Nqs =      20    Nr_points =    1024   r_max =   100.000
b_value =  6.30000    beta =  0.00901
     q_mesh =  0.00010000  0.00030000  0.00058939  0.00100810
               0.00161396  0.00249058  0.00375900  0.00559430
               0.00824984  0.01209221  0.01765183  0.02569619
               0.03733578  0.05417739  0.07854596  0.11380545
               0.16482331  0.23864234  0.34545298  0.50000000

Gradients computed in Reciprocal space

---------------------------------------------------------------------------------


     Starting wfcs are  208 randomized atomic wfcs

     total cpu time spent up to now is       78.9 secs

     Self-consistent Calculation

     iteration #  1     ecut=    70.00 Ry     beta= 0.70
     Davidson diagonalization with overlap
     ethr =  1.00E-02,  avg # of iterations =  4.0

     negative rho (up, down):  1.257E-04 1.277E-02

     total cpu time spent up to now is      226.1 secs

     total energy              =    -857.47391963 Ry
     Harris-Foulkes estimate   =    -858.62550200 Ry
     estimated scf accuracy    <      10.08885259 Ry

     total magnetization       =     6.00 Bohr mag/cell
     absolute magnetization    =     6.66 Bohr mag/cell

     iteration #  2     ecut=    70.00 Ry     beta= 0.70
     Davidson diagonalization with overlap
     ethr =  4.71E-03,  avg # of iterations =  4.5

     negative rho (up, down):  2.336E-04 2.696E-02

     total cpu time spent up to now is      349.7 secs

     total energy              =    -856.63900514 Ry
     Harris-Foulkes estimate   =    -860.38177471 Ry
     estimated scf accuracy    <       7.25641691 Ry

     total magnetization       =     5.96 Bohr mag/cell
     absolute magnetization    =     6.50 Bohr mag/cell

     iteration #  3     ecut=    70.00 Ry     beta= 0.70
     Davidson diagonalization with overlap
     ethr =  3.39E-03,  avg # of iterations =  6.0

     negative rho (up, down):  6.189E-04 5.141E-02

     total cpu time spent up to now is      501.1 secs

     total energy              =    -855.71670147 Ry
     Harris-Foulkes estimate   =    -863.67109473 Ry
     estimated scf accuracy    <      39.84632970 Ry

     total magnetization       =     0.00 Bohr mag/cell
     absolute magnetization    =     1.15 Bohr mag/cell

     iteration #  4     ecut=    70.00 Ry     beta= 0.70
     Davidson diagonalization with overlap
     ethr =  3.39E-03,  avg # of iterations =  4.0

     negative rho (up, down):  2.577E-04 3.901E-02

     total cpu time spent up to now is      619.2 secs

     total energy              =    -859.12603947 Ry
     Harris-Foulkes estimate   =    -860.62512001 Ry
     estimated scf accuracy    <       5.91782860 Ry

     total magnetization       =     2.00 Bohr mag/cell
     absolute magnetization    =     2.88 Bohr mag/cell

     iteration #  5     ecut=    70.00 Ry     beta= 0.70
     Davidson diagonalization with overlap
     ethr =  2.77E-03,  avg # of iterations =  3.5

     negative rho (up, down):  4.631E-04 5.583E-02

     total cpu time spent up to now is      736.6 secs

     total energy              =    -859.90204557 Ry
     Harris-Foulkes estimate   =    -860.15041391 Ry
     estimated scf accuracy    <       1.31416814 Ry

     total magnetization       =     2.00 Bohr mag/cell
     absolute magnetization    =     2.40 Bohr mag/cell

     iteration #  6     ecut=    70.00 Ry     beta= 0.70
     Davidson diagonalization with overlap
     ethr =  6.14E-04,  avg # of iterations =  3.0

     negative rho (up, down):  1.154E-03 7.030E-02

     total cpu time spent up to now is      845.6 secs

     total energy              =    -860.02471944 Ry
     Harris-Foulkes estimate   =    -860.06629327 Ry
     estimated scf accuracy    <       0.17133979 Ry

     total magnetization       =     2.00 Bohr mag/cell
     absolute magnetization    =     2.40 Bohr mag/cell

     iteration #  7     ecut=    70.00 Ry     beta= 0.70
     Davidson diagonalization with overlap
     ethr =  8.01E-05,  avg # of iterations =  6.0

     negative rho (up, down):  1.401E-03 7.469E-02

     total cpu time spent up to now is      968.7 secs

     total energy              =    -860.03701506 Ry
     Harris-Foulkes estimate   =    -860.06199196 Ry
     estimated scf accuracy    <       0.18706598 Ry

     total magnetization       =     1.89 Bohr mag/cell
     absolute magnetization    =     2.12 Bohr mag/cell

     iteration #  8     ecut=    70.00 Ry     beta= 0.70
     Davidson diagonalization with overlap
     ethr =  8.01E-05,  avg # of iterations =  1.0

     negative rho (up, down):  1.332E-03 7.879E-02

     total cpu time spent up to now is     1076.3 secs

     total energy              =    -860.04885564 Ry
     Harris-Foulkes estimate   =    -860.05506175 Ry
     estimated scf accuracy    <       0.05642384 Ry

     total magnetization       =     2.00 Bohr mag/cell
     absolute magnetization    =     2.30 Bohr mag/cell

     iteration #  9     ecut=    70.00 Ry     beta= 0.70
     Davidson diagonalization with overlap
     ethr =  2.64E-05,  avg # of iterations =  5.0

     negative rho (up, down):  8.464E-04 5.809E-02

     total cpu time spent up to now is     1187.4 secs

     total energy              =    -860.04745057 Ry
     Harris-Foulkes estimate   =    -860.05395188 Ry
     estimated scf accuracy    <       0.06617825 Ry

     total magnetization       =     2.00 Bohr mag/cell
     absolute magnetization    =     2.27 Bohr mag/cell

     iteration # 10     ecut=    70.00 Ry     beta= 0.70
     Davidson diagonalization with overlap
     ethr =  2.64E-05,  avg # of iterations =  1.0

     negative rho (up, down):  8.390E-04 6.329E-02

     total cpu time spent up to now is     1297.0 secs

     total energy              =    -860.05375491 Ry
     Harris-Foulkes estimate   =    -860.05415055 Ry
     estimated scf accuracy    <       0.03265632 Ry

     total magnetization       =     2.00 Bohr mag/cell
     absolute magnetization    =     2.39 Bohr mag/cell

     iteration # 11     ecut=    70.00 Ry     beta= 0.70
     Davidson diagonalization with overlap
     ethr =  1.53E-05,  avg # of iterations =  1.0

     negative rho (up, down):  1.022E-03 8.101E-02

     total cpu time spent up to now is     1404.0 secs

     total energy              =    -860.05470370 Ry
     Harris-Foulkes estimate   =    -860.05438336 Ry
     estimated scf accuracy    <       0.03462847 Ry

     total magnetization       =     2.00 Bohr mag/cell
     absolute magnetization    =     2.39 Bohr mag/cell

     iteration # 12     ecut=    70.00 Ry     beta= 0.70
     Davidson diagonalization with overlap
     ethr =  1.53E-05,  avg # of iterations =  1.0

     negative rho (up, down):  1.021E-03 8.262E-02

     total cpu time spent up to now is     1501.2 secs

     total energy              =    -860.05514071 Ry
     Harris-Foulkes estimate   =    -860.05489457 Ry
     estimated scf accuracy    <       0.03069154 Ry

     total magnetization       =     2.00 Bohr mag/cell
     absolute magnetization    =     2.43 Bohr mag/cell

     iteration # 13     ecut=    70.00 Ry     beta= 0.70
     Davidson diagonalization with overlap
     ethr =  1.43E-05,  avg # of iterations =  1.5

     negative rho (up, down):  1.064E-03 9.916E-02

     total cpu time spent up to now is     1597.9 secs

     total energy              =    -860.05565640 Ry
     Harris-Foulkes estimate   =    -860.05565602 Ry
     estimated scf accuracy    <       0.02772175 Ry

     total magnetization       =     2.00 Bohr mag/cell
     absolute magnetization    =     2.50 Bohr mag/cell

     iteration # 14     ecut=    70.00 Ry     beta= 0.70
     Davidson diagonalization with overlap
     ethr =  1.30E-05,  avg # of iterations =  1.0

     negative rho (up, down):  1.073E-03 1.158E-01

     total cpu time spent up to now is     1693.3 secs

     total energy              =    -860.05410246 Ry
     Harris-Foulkes estimate   =    -860.05569441 Ry
     estimated scf accuracy    <       0.02566688 Ry

     total magnetization       =     2.00 Bohr mag/cell
     absolute magnetization    =     2.52 Bohr mag/cell

     iteration # 15     ecut=    70.00 Ry     beta= 0.70
     Davidson diagonalization with overlap
     ethr =  1.20E-05,  avg # of iterations =  5.5

     negative rho (up, down):  1.038E-03 1.125E-01

     total cpu time spent up to now is     1792.7 secs

     total energy              =    -860.05399396 Ry
     Harris-Foulkes estimate   =    -860.05474334 Ry
     estimated scf accuracy    <       0.02177480 Ry

     total magnetization       =     2.00 Bohr mag/cell
     absolute magnetization    =     2.50 Bohr mag/cell

     iteration # 16     ecut=    70.00 Ry     beta= 0.70
     Davidson diagonalization with overlap
     ethr =  1.02E-05,  avg # of iterations =  2.0

     negative rho (up, down):  9.642E-04 9.123E-02

     total cpu time spent up to now is     1889.9 secs

     total energy              =    -860.05464575 Ry
     Harris-Foulkes estimate   =    -860.05453210 Ry
     estimated scf accuracy    <       0.02038253 Ry

     total magnetization       =     2.00 Bohr mag/cell
     absolute magnetization    =     2.56 Bohr mag/cell

     iteration # 17     ecut=    70.00 Ry     beta= 0.70
     Davidson diagonalization with overlap
     ethr =  9.52E-06,  avg # of iterations =  1.0

     negative rho (up, down):  7.845E-04 7.706E-02

     total cpu time spent up to now is     1985.8 secs

     total energy              =    -860.05461005 Ry
     Harris-Foulkes estimate   =    -860.05473693 Ry
     estimated scf accuracy    <       0.01831766 Ry

     total magnetization       =     2.00 Bohr mag/cell
     absolute magnetization    =     2.62 Bohr mag/cell

     iteration # 18     ecut=    70.00 Ry     beta= 0.70
     Davidson diagonalization with overlap
     ethr =  8.56E-06,  avg # of iterations =  2.0

     negative rho (up, down):  5.609E-04 8.190E-02

     total cpu time spent up to now is     2082.9 secs

     total energy              =    -860.04899793 Ry
     Harris-Foulkes estimate   =    -860.05516721 Ry
     estimated scf accuracy    <       0.01092364 Ry

     total magnetization       =     2.03 Bohr mag/cell
     absolute magnetization    =     2.79 Bohr mag/cell

     iteration # 19     ecut=    70.00 Ry     beta= 0.70
     Davidson diagonalization with overlap
     ethr =  5.10E-06,  avg # of iterations = 11.0

     negative rho (up, down):  1.614E-03 1.154E-01

     total cpu time spent up to now is     2227.3 secs

     total energy              =    -860.04297598 Ry
     Harris-Foulkes estimate   =    -860.06230219 Ry
     estimated scf accuracy    <       0.30742807 Ry

     total magnetization       =     2.00 Bohr mag/cell
     absolute magnetization    =     3.56 Bohr mag/cell

     iteration # 20     ecut=    70.00 Ry     beta= 0.70
     Davidson diagonalization with overlap
     ethr =  5.10E-06,  avg # of iterations =  5.0

     negative rho (up, down):  5.635E-04 6.992E-02

     total cpu time spent up to now is     2352.9 secs

     total energy              =    -860.05615906 Ry
     Harris-Foulkes estimate   =    -860.05565089 Ry
     estimated scf accuracy    <       0.00864691 Ry

     total magnetization       =     1.92 Bohr mag/cell
     absolute magnetization    =     3.05 Bohr mag/cell

     iteration # 21     ecut=    70.00 Ry     beta= 0.70
     Davidson diagonalization with overlap
     ethr =  4.04E-06,  avg # of iterations =  4.5

     negative rho (up, down):  6.109E-04 8.311E-02

     total cpu time spent up to now is     2451.9 secs

     total energy              =    -860.05568496 Ry
     Harris-Foulkes estimate   =    -860.05633679 Ry
     estimated scf accuracy    <       0.01051710 Ry

     total magnetization       =     2.16 Bohr mag/cell
     absolute magnetization    =     2.93 Bohr mag/cell

     iteration # 22     ecut=    70.00 Ry     beta= 0.70
     Davidson diagonalization with overlap
     ethr =  4.04E-06,  avg # of iterations =  2.0

     negative rho (up, down):  6.394E-04 7.534E-02

     total cpu time spent up to now is     2547.8 secs

     total energy              =    -860.05568202 Ry
     Harris-Foulkes estimate   =    -860.05598549 Ry
     estimated scf accuracy    <       0.00925173 Ry

     total magnetization       =     1.90 Bohr mag/cell
     absolute magnetization    =     3.03 Bohr mag/cell

     iteration # 23     ecut=    70.00 Ry     beta= 0.70
     Davidson diagonalization with overlap
     ethr =  4.04E-06,  avg # of iterations =  1.0

     negative rho (up, down):  6.234E-04 7.917E-02

     total cpu time spent up to now is     2643.0 secs

     total energy              =    -860.05456055 Ry
     Harris-Foulkes estimate   =    -860.05568345 Ry
     estimated scf accuracy    <       0.00686430 Ry

     total magnetization       =     2.00 Bohr mag/cell
     absolute magnetization    =     3.05 Bohr mag/cell

     iteration # 24     ecut=    70.00 Ry     beta= 0.70
     Davidson diagonalization with overlap
     ethr =  3.21E-06,  avg # of iterations =  2.0

     negative rho (up, down):  6.158E-04 6.271E-02

     total cpu time spent up to now is     2741.8 secs

     total energy              =    -860.05474494 Ry
     Harris-Foulkes estimate   =    -860.05495370 Ry
     estimated scf accuracy    <       0.00404223 Ry

     total magnetization       =     1.96 Bohr mag/cell
     absolute magnetization    =     3.16 Bohr mag/cell

     iteration # 25     ecut=    70.00 Ry     beta= 0.70
     Davidson diagonalization with overlap
     ethr =  1.89E-06,  avg # of iterations =  2.0

     negative rho (up, down):  6.056E-04 4.142E-02

     total cpu time spent up to now is     2839.1 secs

     total energy              =    -860.05501453 Ry
     Harris-Foulkes estimate   =    -860.05488777 Ry
     estimated scf accuracy    <       0.00321135 Ry

     total magnetization       =     2.00 Bohr mag/cell
     absolute magnetization    =     3.19 Bohr mag/cell

     iteration # 26     ecut=    70.00 Ry     beta= 0.70
     Davidson diagonalization with overlap
     ethr =  1.50E-06,  avg # of iterations =  1.0

     negative rho (up, down):  5.854E-04 2.900E-02

     total cpu time spent up to now is     2934.7 secs

     total energy              =    -860.05531618 Ry
     Harris-Foulkes estimate   =    -860.05504841 Ry
     estimated scf accuracy    <       0.00265057 Ry

     total magnetization       =     2.00 Bohr mag/cell
     absolute magnetization    =     3.20 Bohr mag/cell

     iteration # 27     ecut=    70.00 Ry     beta= 0.70
     Davidson diagonalization with overlap
     ethr =  1.24E-06,  avg # of iterations =  2.0

     negative rho (up, down):  5.963E-04 3.624E-02

     total cpu time spent up to now is     3032.9 secs

     total energy              =    -860.05541925 Ry
     Harris-Foulkes estimate   =    -860.05545674 Ry
     estimated scf accuracy    <       0.00291542 Ry

     total magnetization       =     1.94 Bohr mag/cell
     absolute magnetization    =     3.22 Bohr mag/cell

     iteration # 28     ecut=    70.00 Ry     beta= 0.70
     Davidson diagonalization with overlap
     ethr =  1.24E-06,  avg # of iterations =  1.0

     negative rho (up, down):  6.282E-04 5.379E-02

     total cpu time spent up to now is     3128.2 secs

     total energy              =    -860.05527783 Ry
     Harris-Foulkes estimate   =    -860.05542562 Ry
     estimated scf accuracy    <       0.00515167 Ry

     total magnetization       =     1.86 Bohr mag/cell
     absolute magnetization    =     3.23 Bohr mag/cell

     iteration # 29     ecut=    70.00 Ry     beta= 0.70
     Davidson diagonalization with overlap
     ethr =  1.24E-06,  avg # of iterations =  2.0

     negative rho (up, down):  6.041E-04 4.549E-02

     total cpu time spent up to now is     3226.2 secs

     total energy              =    -860.05545195 Ry
     Harris-Foulkes estimate   =    -860.05539071 Ry
     estimated scf accuracy    <       0.00138568 Ry

     total magnetization       =     2.00 Bohr mag/cell
     absolute magnetization    =     3.28 Bohr mag/cell

     iteration # 30     ecut=    70.00 Ry     beta= 0.70
     Davidson diagonalization with overlap
     ethr =  6.48E-07,  avg # of iterations =  2.0

     negative rho (up, down):  6.151E-04 4.718E-02

     total cpu time spent up to now is     3325.0 secs

     total energy              =    -860.05566807 Ry
     Harris-Foulkes estimate   =    -860.05556407 Ry
     estimated scf accuracy    <       0.00227713 Ry

     total magnetization       =     2.00 Bohr mag/cell
     absolute magnetization    =     3.25 Bohr mag/cell

     iteration # 31     ecut=    70.00 Ry     beta= 0.70
     Davidson diagonalization with overlap
     ethr =  6.48E-07,  avg # of iterations =  2.0

     negative rho (up, down):  6.538E-04 6.319E-02

     total cpu time spent up to now is     3421.3 secs

     total energy              =    -860.05561332 Ry
     Harris-Foulkes estimate   =    -860.05569424 Ry
     estimated scf accuracy    <       0.00370406 Ry

     total magnetization       =     1.83 Bohr mag/cell
     absolute magnetization    =     3.27 Bohr mag/cell

     iteration # 32     ecut=    70.00 Ry     beta= 0.70
     Davidson diagonalization with overlap
     ethr =  6.48E-07,  avg # of iterations =  2.5

     negative rho (up, down):  6.942E-04 6.541E-02

     total cpu time spent up to now is     3523.9 secs

     total energy              =    -860.05574086 Ry
     Harris-Foulkes estimate   =    -860.05578181 Ry
     estimated scf accuracy    <       0.00615975 Ry

     total magnetization       =     1.97 Bohr mag/cell
     absolute magnetization    =     3.20 Bohr mag/cell

     iteration # 33     ecut=    70.00 Ry     beta= 0.70
     Davidson diagonalization with overlap
     ethr =  6.48E-07,  avg # of iterations =  2.0

     negative rho (up, down):  6.932E-04 5.590E-02

     total cpu time spent up to now is     3624.6 secs

     total energy              =    -860.05587791 Ry
     Harris-Foulkes estimate   =    -860.05587819 Ry
     estimated scf accuracy    <       0.00854240 Ry

     total magnetization       =     1.86 Bohr mag/cell
     absolute magnetization    =     3.23 Bohr mag/cell

     iteration # 34     ecut=    70.00 Ry     beta= 0.70
     Davidson diagonalization with overlap
     ethr =  6.48E-07,  avg # of iterations =  1.0

     negative rho (up, down):  6.917E-04 5.474E-02

     total cpu time spent up to now is     3719.9 secs

     total energy              =    -860.05587973 Ry
     Harris-Foulkes estimate   =    -860.05589147 Ry
     estimated scf accuracy    <       0.00854940 Ry

     total magnetization       =     1.88 Bohr mag/cell
     absolute magnetization    =     3.21 Bohr mag/cell

     iteration # 35     ecut=    70.00 Ry     beta= 0.70
     Davidson diagonalization with overlap
     ethr =  6.48E-07,  avg # of iterations =  1.0

     negative rho (up, down):  6.282E-04 4.521E-02

     total cpu time spent up to now is     3815.3 secs

     total energy              =    -860.05534723 Ry
     Harris-Foulkes estimate   =    -860.05588172 Ry
     estimated scf accuracy    <       0.00839188 Ry

     total magnetization       =     1.88 Bohr mag/cell
     absolute magnetization    =     3.21 Bohr mag/cell

     iteration # 36     ecut=    70.00 Ry     beta= 0.70
     Davidson diagonalization with overlap
     ethr =  6.48E-07,  avg # of iterations =  2.5

     negative rho (up, down):  5.728E-04 7.056E-02

     total cpu time spent up to now is     3921.3 secs

     total energy              =    -860.05422415 Ry
     Harris-Foulkes estimate   =    -860.05562089 Ry
     estimated scf accuracy    <       0.00420163 Ry

     total magnetization       =     1.83 Bohr mag/cell
     absolute magnetization    =     3.26 Bohr mag/cell

     iteration # 37     ecut=    70.00 Ry     beta= 0.70
     Davidson diagonalization with overlap
     ethr =  6.48E-07,  avg # of iterations =  4.0

     negative rho (up, down):  5.633E-04 3.994E-02

     total cpu time spent up to now is     4049.9 secs

     total energy              =    -860.05670938 Ry
     Harris-Foulkes estimate   =    -860.05676315 Ry
     estimated scf accuracy    <       0.00196975 Ry

     total magnetization       =     2.00 Bohr mag/cell
     absolute magnetization    =     3.27 Bohr mag/cell

     iteration # 38     ecut=    70.00 Ry     beta= 0.70
     Davidson diagonalization with overlap
     ethr =  6.48E-07,  avg # of iterations =  2.0

     negative rho (up, down):  5.841E-04 6.987E-02

     total cpu time spent up to now is     4147.2 secs

     total energy              =    -860.05689354 Ry
     Harris-Foulkes estimate   =    -860.05678964 Ry
     estimated scf accuracy    <       0.00187393 Ry

     total magnetization       =     2.00 Bohr mag/cell
     absolute magnetization    =     3.27 Bohr mag/cell

     iteration # 39     ecut=    70.00 Ry     beta= 0.70
     Davidson diagonalization with overlap
     ethr =  6.48E-07,  avg # of iterations =  1.5

     negative rho (up, down):  6.108E-04 8.401E-02

     total cpu time spent up to now is     4242.7 secs

     total energy              =    -860.05674193 Ry
     Harris-Foulkes estimate   =    -860.05694198 Ry
     estimated scf accuracy    <       0.00358876 Ry

     total magnetization       =     2.00 Bohr mag/cell
     absolute magnetization    =     3.27 Bohr mag/cell

     iteration # 40     ecut=    70.00 Ry     beta= 0.70
     Davidson diagonalization with overlap
     ethr =  6.48E-07,  avg # of iterations =  2.0

     negative rho (up, down):  5.945E-04 8.880E-02

     total cpu time spent up to now is     4339.7 secs

     total energy              =    -860.05669763 Ry
     Harris-Foulkes estimate   =    -860.05685531 Ry
     estimated scf accuracy    <       0.00192220 Ry

     total magnetization       =     2.00 Bohr mag/cell
     absolute magnetization    =     3.26 Bohr mag/cell

     iteration # 41     ecut=    70.00 Ry     beta= 0.70
     Davidson diagonalization with overlap
     ethr =  6.48E-07,  avg # of iterations =  2.0

     negative rho (up, down):  5.928E-04 8.740E-02

     total cpu time spent up to now is     4438.0 secs

     total energy              =    -860.05675679 Ry
     Harris-Foulkes estimate   =    -860.05676369 Ry
     estimated scf accuracy    <       0.00169357 Ry

     total magnetization       =     2.00 Bohr mag/cell
     absolute magnetization    =     3.25 Bohr mag/cell

     iteration # 42     ecut=    70.00 Ry     beta= 0.70
     Davidson diagonalization with overlap
     ethr =  6.48E-07,  avg # of iterations =  1.0

     negative rho (up, down):  5.900E-04 9.198E-02

     total cpu time spent up to now is     4533.2 secs

     total energy              =    -860.05649375 Ry
     Harris-Foulkes estimate   =    -860.05675972 Ry
     estimated scf accuracy    <       0.00174790 Ry

     total magnetization       =     2.00 Bohr mag/cell
     absolute magnetization    =     3.26 Bohr mag/cell

     iteration # 43     ecut=    70.00 Ry     beta= 0.70
     Davidson diagonalization with overlap
     ethr =  6.48E-07,  avg # of iterations =  2.0

     negative rho (up, down):  5.779E-04 1.095E-01

     total cpu time spent up to now is     4629.5 secs

     total energy              =    -860.05505430 Ry
     Harris-Foulkes estimate   =    -860.05653192 Ry
     estimated scf accuracy    <       0.00152239 Ry

     total magnetization       =     2.00 Bohr mag/cell
     absolute magnetization    =     3.26 Bohr mag/cell

     iteration # 44     ecut=    70.00 Ry     beta= 0.70
     Davidson diagonalization with overlap
     ethr =  6.48E-07,  avg # of iterations =  3.0

     negative rho (up, down):  5.814E-04 9.204E-02

     total cpu time spent up to now is     4741.7 secs

     total energy              =    -860.05512968 Ry
     Harris-Foulkes estimate   =    -860.05577891 Ry
     estimated scf accuracy    <       0.00244790 Ry

     total magnetization       =     2.05 Bohr mag/cell
     absolute magnetization    =     3.31 Bohr mag/cell

     iteration # 45     ecut=    70.00 Ry     beta= 0.70
     Davidson diagonalization with overlap
     ethr =  6.48E-07,  avg # of iterations =  2.0

     negative rho (up, down):  5.744E-04 5.978E-02

     total cpu time spent up to now is     4848.9 secs

     total energy              =    -860.05547872 Ry
     Harris-Foulkes estimate   =    -860.05548650 Ry
     estimated scf accuracy    <       0.00164368 Ry

     total magnetization       =     1.92 Bohr mag/cell
     absolute magnetization    =     3.26 Bohr mag/cell

     iteration # 46     ecut=    70.00 Ry     beta= 0.70
     Davidson diagonalization with overlap
     ethr =  6.48E-07,  avg # of iterations =  2.0

     negative rho (up, down):  5.725E-04 5.787E-02

     total cpu time spent up to now is     4946.1 secs

     total energy              =    -860.05537829 Ry
     Harris-Foulkes estimate   =    -860.05566383 Ry
     estimated scf accuracy    <       0.00233817 Ry

     total magnetization       =     2.09 Bohr mag/cell
     absolute magnetization    =     3.27 Bohr mag/cell

     iteration # 47     ecut=    70.00 Ry     beta= 0.70
     Davidson diagonalization with overlap
     ethr =  6.48E-07,  avg # of iterations =  2.0

     negative rho (up, down):  5.765E-04 4.464E-02

     total cpu time spent up to now is     5048.9 secs

     total energy              =    -860.05547462 Ry
     Harris-Foulkes estimate   =    -860.05566256 Ry
     estimated scf accuracy    <       0.00131021 Ry

     total magnetization       =     1.87 Bohr mag/cell
     absolute magnetization    =     3.22 Bohr mag/cell

     iteration # 48     ecut=    70.00 Ry     beta= 0.70
     Davidson diagonalization with overlap
     ethr =  6.12E-07,  avg # of iterations =  2.0

     negative rho (up, down):  5.720E-04 2.600E-02

     total cpu time spent up to now is     5148.4 secs

     total energy              =    -860.05554801 Ry
     Harris-Foulkes estimate   =    -860.05555344 Ry
     estimated scf accuracy    <       0.00018694 Ry

     total magnetization       =     1.94 Bohr mag/cell
     absolute magnetization    =     3.22 Bohr mag/cell

     iteration # 49     ecut=    70.00 Ry     beta= 0.70
     Davidson diagonalization with overlap
     ethr =  8.74E-08,  avg # of iterations =  2.0

     negative rho (up, down):  5.784E-04 2.326E-02

     total cpu time spent up to now is     5246.2 secs

     total energy              =    -860.05562395 Ry
     Harris-Foulkes estimate   =    -860.05557889 Ry
     estimated scf accuracy    <       0.00089473 Ry

     total magnetization       =     1.78 Bohr mag/cell
     absolute magnetization    =     3.21 Bohr mag/cell

     iteration # 50     ecut=    70.00 Ry     beta= 0.70
     Davidson diagonalization with overlap
     ethr =  8.74E-08,  avg # of iterations =  1.5

     negative rho (up, down):  5.808E-04 2.575E-02

     total cpu time spent up to now is     5342.0 secs

     total energy              =    -860.05560732 Ry
     Harris-Foulkes estimate   =    -860.05563444 Ry
     estimated scf accuracy    <       0.00134917 Ry

     total magnetization       =     1.81 Bohr mag/cell
     absolute magnetization    =     3.17 Bohr mag/cell

     iteration # 51     ecut=    70.00 Ry     beta= 0.70
     Davidson diagonalization with overlap
     ethr =  8.74E-08,  avg # of iterations =  2.5

     negative rho (up, down):  5.820E-04 2.517E-02

     total cpu time spent up to now is     5443.4 secs

     total energy              =    -860.05556131 Ry
     Harris-Foulkes estimate   =    -860.05564135 Ry
     estimated scf accuracy    <       0.00112935 Ry

     total magnetization       =     1.81 Bohr mag/cell
     absolute magnetization    =     3.16 Bohr mag/cell

     iteration # 52     ecut=    70.00 Ry     beta= 0.70
     Davidson diagonalization with overlap
     ethr =  8.74E-08,  avg # of iterations =  2.0

     negative rho (up, down):  5.769E-04 2.266E-02

     total cpu time spent up to now is     5542.2 secs

     total energy              =    -860.05556846 Ry
     Harris-Foulkes estimate   =    -860.05562078 Ry
     estimated scf accuracy    <       0.00295644 Ry

     total magnetization       =     1.98 Bohr mag/cell
     absolute magnetization    =     3.20 Bohr mag/cell

     iteration # 53     ecut=    70.00 Ry     beta= 0.70
     Davidson diagonalization with overlap
     ethr =  8.74E-08,  avg # of iterations =  2.5

     negative rho (up, down):  5.709E-04 1.887E-02

     total cpu time spent up to now is     5651.8 secs

     total energy              =    -860.05570751 Ry
     Harris-Foulkes estimate   =    -860.05567891 Ry
     estimated scf accuracy    <       0.00081518 Ry

     total magnetization       =     1.75 Bohr mag/cell
     absolute magnetization    =     3.16 Bohr mag/cell

     iteration # 54     ecut=    70.00 Ry     beta= 0.70
     Davidson diagonalization with overlap
     ethr =  8.74E-08,  avg # of iterations =  2.0

     negative rho (up, down):  5.677E-04 1.823E-02

     total cpu time spent up to now is     5748.9 secs

     total energy              =    -860.05569407 Ry
     Harris-Foulkes estimate   =    -860.05571306 Ry
     estimated scf accuracy    <       0.00023609 Ry

     total magnetization       =     1.86 Bohr mag/cell
     absolute magnetization    =     3.13 Bohr mag/cell

     iteration # 55     ecut=    70.00 Ry     beta= 0.70
     Davidson diagonalization with overlap
     ethr =  8.74E-08,  avg # of iterations =  2.5

     negative rho (up, down):  5.731E-04 2.268E-02

     total cpu time spent up to now is     5856.7 secs

     total energy              =    -860.05569679 Ry
     Harris-Foulkes estimate   =    -860.05573686 Ry
     estimated scf accuracy    <       0.00027469 Ry

     total magnetization       =     1.82 Bohr mag/cell
     absolute magnetization    =     3.12 Bohr mag/cell

     iteration # 56     ecut=    70.00 Ry     beta= 0.70
     Davidson diagonalization with overlap
     ethr =  8.74E-08,  avg # of iterations =  2.0

     negative rho (up, down):  5.849E-04 3.333E-02

     total cpu time spent up to now is     5953.9 secs

     total energy              =    -860.05563696 Ry
     Harris-Foulkes estimate   =    -860.05570727 Ry
     estimated scf accuracy    <       0.00035597 Ry

     total magnetization       =     1.80 Bohr mag/cell
     absolute magnetization    =     3.14 Bohr mag/cell

     iteration # 57     ecut=    70.00 Ry     beta= 0.70
     Davidson diagonalization with overlap
     ethr =  8.74E-08,  avg # of iterations =  2.0

     negative rho (up, down):  5.755E-04 2.420E-02

     total cpu time spent up to now is     6056.1 secs

     total energy              =    -860.05572498 Ry
     Harris-Foulkes estimate   =    -860.05566183 Ry
     estimated scf accuracy    <       0.00068509 Ry

     total magnetization       =     1.78 Bohr mag/cell
     absolute magnetization    =     3.16 Bohr mag/cell

     iteration # 58     ecut=    70.00 Ry     beta= 0.70
     Davidson diagonalization with overlap
     ethr =  8.74E-08,  avg # of iterations =  2.5

     negative rho (up, down):  5.698E-04 2.183E-02

     total cpu time spent up to now is     6154.2 secs

     total energy              =    -860.05572260 Ry
     Harris-Foulkes estimate   =    -860.05573230 Ry
     estimated scf accuracy    <       0.00010992 Ry

     total magnetization       =     1.92 Bohr mag/cell
     absolute magnetization    =     3.13 Bohr mag/cell

     iteration # 59     ecut=    70.00 Ry     beta= 0.70
     Davidson diagonalization with overlap
     ethr =  5.14E-08,  avg # of iterations =  2.0

     negative rho (up, down):  5.680E-04 1.892E-02

     total cpu time spent up to now is     6253.5 secs

     total energy              =    -860.05574082 Ry
     Harris-Foulkes estimate   =    -860.05573327 Ry
     estimated scf accuracy    <       0.00012675 Ry

     total magnetization       =     1.96 Bohr mag/cell
     absolute magnetization    =     3.13 Bohr mag/cell

     iteration # 60     ecut=    70.00 Ry     beta= 0.70
     Davidson diagonalization with overlap
     ethr =  5.14E-08,  avg # of iterations =  1.0

     negative rho (up, down):  5.689E-04 2.480E-02

     total cpu time spent up to now is     6348.7 secs

     total energy              =    -860.05570098 Ry
     Harris-Foulkes estimate   =    -860.05574167 Ry
     estimated scf accuracy    <       0.00012324 Ry

     total magnetization       =     1.95 Bohr mag/cell
     absolute magnetization    =     3.13 Bohr mag/cell

     iteration # 61     ecut=    70.00 Ry     beta= 0.70
     Davidson diagonalization with overlap
     ethr =  5.14E-08,  avg # of iterations =  2.0

     negative rho (up, down):  5.694E-04 2.168E-02

     total cpu time spent up to now is     6452.9 secs

     total energy              =    -860.05570148 Ry
     Harris-Foulkes estimate   =    -860.05571599 Ry
     estimated scf accuracy    <       0.00010556 Ry

     total magnetization       =     1.93 Bohr mag/cell
     absolute magnetization    =     3.13 Bohr mag/cell

     iteration # 62     ecut=    70.00 Ry     beta= 0.70
     Davidson diagonalization with overlap
     ethr =  4.93E-08,  avg # of iterations =  2.0

     negative rho (up, down):  5.694E-04 1.987E-02

     total cpu time spent up to now is     6553.6 secs

     total energy              =    -860.05569477 Ry
     Harris-Foulkes estimate   =    -860.05570961 Ry
     estimated scf accuracy    <       0.00007207 Ry

     total magnetization       =     1.93 Bohr mag/cell
     absolute magnetization    =     3.13 Bohr mag/cell

     iteration # 63     ecut=    70.00 Ry     beta= 0.70
     Davidson diagonalization with overlap
     ethr =  3.37E-08,  avg # of iterations =  2.0

     negative rho (up, down):  5.666E-04 1.318E-02

     total cpu time spent up to now is     6658.9 secs

     total energy              =    -860.05571163 Ry
     Harris-Foulkes estimate   =    -860.05570666 Ry
     estimated scf accuracy    <       0.00006745 Ry

     total magnetization       =     1.96 Bohr mag/cell
     absolute magnetization    =     3.13 Bohr mag/cell

     iteration # 64     ecut=    70.00 Ry     beta= 0.70
     Davidson diagonalization with overlap
     ethr =  3.15E-08,  avg # of iterations =  1.5

     negative rho (up, down):  5.667E-04 1.546E-02

     total cpu time spent up to now is     6754.2 secs

     total energy              =    -860.05569747 Ry
     Harris-Foulkes estimate   =    -860.05571438 Ry
     estimated scf accuracy    <       0.00006906 Ry

     total magnetization       =     1.94 Bohr mag/cell
     absolute magnetization    =     3.13 Bohr mag/cell

     iteration # 65     ecut=    70.00 Ry     beta= 0.70
     Davidson diagonalization with overlap
     ethr =  3.15E-08,  avg # of iterations =  3.0

     negative rho (up, down):  5.689E-04 1.657E-02

     total cpu time spent up to now is     6860.0 secs

     total energy              =    -860.05570337 Ry
     Harris-Foulkes estimate   =    -860.05571328 Ry
     estimated scf accuracy    <       0.00018998 Ry

     total magnetization       =     1.96 Bohr mag/cell
     absolute magnetization    =     3.12 Bohr mag/cell

     iteration # 66     ecut=    70.00 Ry     beta= 0.70
     Davidson diagonalization with overlap
     ethr =  3.15E-08,  avg # of iterations =  3.0

     negative rho (up, down):  5.696E-04 1.897E-02

     total cpu time spent up to now is     6962.0 secs

     total energy              =    -860.05565180 Ry
     Harris-Foulkes estimate   =    -860.05571150 Ry
     estimated scf accuracy    <       0.00021612 Ry

     total magnetization       =     1.96 Bohr mag/cell
     absolute magnetization    =     3.12 Bohr mag/cell

     iteration # 67     ecut=    70.00 Ry     beta= 0.70
     Davidson diagonalization with overlap
     ethr =  3.15E-08,  avg # of iterations =  3.0

     negative rho (up, down):  5.674E-04 1.679E-02

     total cpu time spent up to now is     7079.7 secs

     total energy              =    -860.05564209 Ry
     Harris-Foulkes estimate   =    -860.05575300 Ry
     estimated scf accuracy    <       0.00042889 Ry

     total magnetization       =     1.98 Bohr mag/cell
     absolute magnetization    =     3.12 Bohr mag/cell

     iteration # 68     ecut=    70.00 Ry     beta= 0.70
     Davidson diagonalization with overlap
     ethr =  3.15E-08,  avg # of iterations =  3.0

     negative rho (up, down):  5.669E-04 1.500E-02

     total cpu time spent up to now is     7198.1 secs

     total energy              =    -860.05570891 Ry
     Harris-Foulkes estimate   =    -860.05571654 Ry
     estimated scf accuracy    <       0.00010706 Ry

     total magnetization       =     1.95 Bohr mag/cell
     absolute magnetization    =     3.12 Bohr mag/cell

     iteration # 69     ecut=    70.00 Ry     beta= 0.70
     Davidson diagonalization with overlap
     ethr =  3.15E-08,  avg # of iterations =  2.0

     negative rho (up, down):  5.682E-04 1.484E-02

     total cpu time spent up to now is     7295.7 secs

     total energy              =    -860.05570623 Ry
     Harris-Foulkes estimate   =    -860.05571298 Ry
     estimated scf accuracy    <       0.00015574 Ry

     total magnetization       =     1.96 Bohr mag/cell
     absolute magnetization    =     3.12 Bohr mag/cell

     iteration # 70     ecut=    70.00 Ry     beta= 0.70
     Davidson diagonalization with overlap
     ethr =  3.15E-08,  avg # of iterations =  2.0

     negative rho (up, down):  5.679E-04 1.676E-02

     total cpu time spent up to now is     7401.7 secs

     total energy              =    -860.05570533 Ry
     Harris-Foulkes estimate   =    -860.05572128 Ry
     estimated scf accuracy    <       0.00010106 Ry

     total magnetization       =     1.95 Bohr mag/cell
     absolute magnetization    =     3.13 Bohr mag/cell

     iteration # 71     ecut=    70.00 Ry     beta= 0.70
     Davidson diagonalization with overlap
     ethr =  3.15E-08,  avg # of iterations =  2.0

     negative rho (up, down):  5.681E-04 1.555E-02

     total cpu time spent up to now is     7505.5 secs

     total energy              =    -860.05570917 Ry
     Harris-Foulkes estimate   =    -860.05571379 Ry
     estimated scf accuracy    <       0.00008296 Ry

     total magnetization       =     1.94 Bohr mag/cell
     absolute magnetization    =     3.13 Bohr mag/cell

     iteration # 72     ecut=    70.00 Ry     beta= 0.70
     Davidson diagonalization with overlap
     ethr =  3.15E-08,  avg # of iterations =  2.0

     negative rho (up, down):  5.665E-04 1.268E-02

     total cpu time spent up to now is     7610.3 secs

     total energy              =    -860.05572718 Ry
     Harris-Foulkes estimate   =    -860.05572106 Ry
     estimated scf accuracy    <       0.00007203 Ry

     total magnetization       =     1.94 Bohr mag/cell
     absolute magnetization    =     3.13 Bohr mag/cell

     iteration # 73     ecut=    70.00 Ry     beta= 0.70
     Davidson diagonalization with overlap
     ethr =  3.15E-08,  avg # of iterations =  2.0

     negative rho (up, down):  5.666E-04 1.491E-02

     total cpu time spent up to now is     7707.4 secs

     total energy              =    -860.05572465 Ry
     Harris-Foulkes estimate   =    -860.05572920 Ry
     estimated scf accuracy    <       0.00008194 Ry

     total magnetization       =     1.96 Bohr mag/cell
     absolute magnetization    =     3.13 Bohr mag/cell

     iteration # 74     ecut=    70.00 Ry     beta= 0.70
     Davidson diagonalization with overlap
     ethr =  3.15E-08,  avg # of iterations =  1.5

     negative rho (up, down):  5.669E-04 1.609E-02

     total cpu time spent up to now is     7802.7 secs

     total energy              =    -860.05572408 Ry
     Harris-Foulkes estimate   =    -860.05572602 Ry
     estimated scf accuracy    <       0.00007640 Ry

     total magnetization       =     1.97 Bohr mag/cell
     absolute magnetization    =     3.13 Bohr mag/cell

     iteration # 75     ecut=    70.00 Ry     beta= 0.70
     Davidson diagonalization with overlap
     ethr =  3.15E-08,  avg # of iterations =  1.0

     negative rho (up, down):  5.669E-04 1.860E-02

     total cpu time spent up to now is     7898.0 secs

     total energy              =    -860.05570678 Ry
     Harris-Foulkes estimate   =    -860.05572615 Ry
     estimated scf accuracy    <       0.00006424 Ry

     total magnetization       =     1.96 Bohr mag/cell
     absolute magnetization    =     3.13 Bohr mag/cell

     iteration # 76     ecut=    70.00 Ry     beta= 0.70
     Davidson diagonalization with overlap
     ethr =  3.00E-08,  avg # of iterations =  2.0

     negative rho (up, down):  5.674E-04 2.005E-02

     total cpu time spent up to now is     7998.8 secs

     total energy              =    -860.05567714 Ry
     Harris-Foulkes estimate   =    -860.05571465 Ry
     estimated scf accuracy    <       0.00007344 Ry

     total magnetization       =     1.96 Bohr mag/cell
     absolute magnetization    =     3.13 Bohr mag/cell

     iteration # 77     ecut=    70.00 Ry     beta= 0.70
     Davidson diagonalization with overlap
     ethr =  3.00E-08,  avg # of iterations =  3.0

     negative rho (up, down):  5.665E-04 1.200E-02

     total cpu time spent up to now is     8113.5 secs

     total energy              =    -860.05568900 Ry
     Harris-Foulkes estimate   =    -860.05571621 Ry
     estimated scf accuracy    <       0.00010009 Ry

     total magnetization       =     1.97 Bohr mag/cell
     absolute magnetization    =     3.13 Bohr mag/cell

     iteration # 78     ecut=    70.00 Ry     beta= 0.70
     Davidson diagonalization with overlap
     ethr =  3.00E-08,  avg # of iterations =  3.0

     negative rho (up, down):  5.665E-04 1.194E-02

     total cpu time spent up to now is     8220.0 secs

     total energy              =    -860.05570062 Ry
     Harris-Foulkes estimate   =    -860.05570846 Ry
     estimated scf accuracy    <       0.00003705 Ry

     total magnetization       =     1.95 Bohr mag/cell
     absolute magnetization    =     3.13 Bohr mag/cell

     iteration # 79     ecut=    70.00 Ry     beta= 0.70
     Davidson diagonalization with overlap
     ethr =  1.73E-08,  avg # of iterations =  2.0

     negative rho (up, down):  5.661E-04 1.046E-02

     total cpu time spent up to now is     8323.8 secs

     total energy              =    -860.05570677 Ry
     Harris-Foulkes estimate   =    -860.05570653 Ry
     estimated scf accuracy    <       0.00000279 Ry

     total magnetization       =     1.95 Bohr mag/cell
     absolute magnetization    =     3.13 Bohr mag/cell

     iteration # 80     ecut=    70.00 Ry     beta= 0.70
     Davidson diagonalization with overlap
     ethr =  1.31E-09,  avg # of iterations =  2.0

     negative rho (up, down):  5.657E-04 1.052E-02

     total cpu time spent up to now is     8421.2 secs

     total energy              =    -860.05570658 Ry
     Harris-Foulkes estimate   =    -860.05570696 Ry
     estimated scf accuracy    <       0.00000134 Ry

     total magnetization       =     1.95 Bohr mag/cell
     absolute magnetization    =     3.13 Bohr mag/cell

     iteration # 81     ecut=    70.00 Ry     beta= 0.70
     Davidson diagonalization with overlap
     ethr =  6.26E-10,  avg # of iterations =  2.0

     negative rho (up, down):  5.656E-04 1.047E-02

     total cpu time spent up to now is     8529.8 secs

     total energy              =    -860.05570730 Ry
     Harris-Foulkes estimate   =    -860.05570704 Ry
     estimated scf accuracy    <       0.00000116 Ry

     total magnetization       =     1.95 Bohr mag/cell
     absolute magnetization    =     3.13 Bohr mag/cell

     iteration # 82     ecut=    70.00 Ry     beta= 0.70
     Davidson diagonalization with overlap
     ethr =  5.44E-10,  avg # of iterations =  2.0

     negative rho (up, down):  5.656E-04 1.052E-02

     total cpu time spent up to now is     8632.0 secs

     total energy              =    -860.05570737 Ry
     Harris-Foulkes estimate   =    -860.05570744 Ry
     estimated scf accuracy    <       0.00000155 Ry

     total magnetization       =     1.95 Bohr mag/cell
     absolute magnetization    =     3.13 Bohr mag/cell

     iteration # 83     ecut=    70.00 Ry     beta= 0.70
     Davidson diagonalization with overlap
     ethr =  5.44E-10,  avg # of iterations =  1.0

     negative rho (up, down):  5.655E-04 1.061E-02

     total cpu time spent up to now is     8727.1 secs

     total energy              =    -860.05570693 Ry
     Harris-Foulkes estimate   =    -860.05570737 Ry
     estimated scf accuracy    <       0.00000151 Ry

     total magnetization       =     1.95 Bohr mag/cell
     absolute magnetization    =     3.13 Bohr mag/cell

     iteration # 84     ecut=    70.00 Ry     beta= 0.70
     Davidson diagonalization with overlap
     ethr =  5.44E-10,  avg # of iterations =  2.0

     negative rho (up, down):  5.655E-04 1.038E-02

     total cpu time spent up to now is     8832.3 secs

     total energy              =    -860.05570769 Ry
     Harris-Foulkes estimate   =    -860.05570715 Ry
     estimated scf accuracy    <       0.00000141 Ry

     total magnetization       =     1.95 Bohr mag/cell
     absolute magnetization    =     3.13 Bohr mag/cell

     iteration # 85     ecut=    70.00 Ry     beta= 0.70
     Davidson diagonalization with overlap
     ethr =  5.44E-10,  avg # of iterations =  3.0

     negative rho (up, down):  5.655E-04 1.057E-02

     total cpu time spent up to now is     8948.7 secs

     total energy              =    -860.05570806 Ry
     Harris-Foulkes estimate   =    -860.05570858 Ry
     estimated scf accuracy    <       0.00000521 Ry

     total magnetization       =     1.95 Bohr mag/cell
     absolute magnetization    =     3.13 Bohr mag/cell

     iteration # 86     ecut=    70.00 Ry     beta= 0.70
     Davidson diagonalization with overlap
     ethr =  5.44E-10,  avg # of iterations =  3.0

     negative rho (up, down):  5.656E-04 1.128E-02

     total cpu time spent up to now is     9055.9 secs

     total energy              =    -860.05570588 Ry
     Harris-Foulkes estimate   =    -860.05570839 Ry
     estimated scf accuracy    <       0.00000257 Ry

     total magnetization       =     1.95 Bohr mag/cell
     absolute magnetization    =     3.13 Bohr mag/cell

     iteration # 87     ecut=    70.00 Ry     beta= 0.70
     Davidson diagonalization with overlap
     ethr =  5.44E-10,  avg # of iterations =  2.5

     negative rho (up, down):  5.656E-04 1.093E-02

     total cpu time spent up to now is     9168.2 secs

     total energy              =    -860.05570590 Ry
     Harris-Foulkes estimate   =    -860.05570683 Ry
     estimated scf accuracy    <       0.00000154 Ry

     total magnetization       =     1.95 Bohr mag/cell
     absolute magnetization    =     3.13 Bohr mag/cell

     iteration # 88     ecut=    70.00 Ry     beta= 0.70
     Davidson diagonalization with overlap
     ethr =  5.44E-10,  avg # of iterations =  3.0

     negative rho (up, down):  5.656E-04 1.062E-02

     total cpu time spent up to now is     9279.8 secs

     total energy              =    -860.05570564 Ry
     Harris-Foulkes estimate   =    -860.05570648 Ry
     estimated scf accuracy    <       0.00000168 Ry

     total magnetization       =     1.95 Bohr mag/cell
     absolute magnetization    =     3.13 Bohr mag/cell

     iteration # 89     ecut=    70.00 Ry     beta= 0.70
     Davidson diagonalization with overlap
     ethr =  5.44E-10,  avg # of iterations =  3.0

     negative rho (up, down):  5.655E-04 1.028E-02

     Magnetic moment per site:
     atom:    1    charge:    0.2100    magn:    0.0000    constr:    0.0000
     atom:    2    charge:    0.2123    magn:    0.0000    constr:    0.0000
     atom:    3    charge:    1.7168    magn:   -0.0122    constr:    0.0000
     atom:    4    charge:    1.7154    magn:    0.0163    constr:    0.0000
     atom:    5    charge:    1.7176    magn:   -0.0089    constr:    0.0000
     atom:    6    charge:    1.7142    magn:    0.0056    constr:    0.0000
     atom:    7    charge:    1.7176    magn:   -0.0089    constr:    0.0000
     atom:    8    charge:    1.7152    magn:    0.0178    constr:    0.0000
     atom:    9    charge:    1.7171    magn:   -0.0127    constr:    0.0000
     atom:   10    charge:    1.7149    magn:    0.0571    constr:    0.0000
     atom:   11    charge:    1.7173    magn:   -0.0163    constr:    0.0000
     atom:   12    charge:    1.7156    magn:    0.0516    constr:    0.0000
     atom:   13    charge:    1.7173    magn:   -0.0163    constr:    0.0000
     atom:   14    charge:    1.7155    magn:    0.0445    constr:    0.0000
     atom:   15    charge:    1.7138    magn:   -0.0127    constr:    0.0000
     atom:   16    charge:    1.7113    magn:    0.0507    constr:    0.0000
     atom:   17    charge:    1.7225    magn:   -0.0129    constr:    0.0000
     atom:   18    charge:    1.7115    magn:    0.0490    constr:    0.0000
     atom:   19    charge:    1.7137    magn:   -0.0120    constr:    0.0000
     atom:   20    charge:    1.7161    magn:    0.0397    constr:    0.0000
     atom:   21    charge:    1.7174    magn:   -0.0163    constr:    0.0000
     atom:   22    charge:    1.7149    magn:    0.0571    constr:    0.0000
     atom:   23    charge:    1.7171    magn:   -0.0127    constr:    0.0000
     atom:   24    charge:    1.7154    magn:    0.0171    constr:    0.0000
     atom:   25    charge:    1.7139    magn:   -0.0126    constr:    0.0000
     atom:   26    charge:    1.7108    magn:    0.0552    constr:    0.0000
     atom:   27    charge:    1.8520    magn:   -0.0199    constr:    0.0000
     atom:   28    charge:   11.1451    magn:    0.4749    constr:    0.0000
     atom:   29    charge:    1.8516    magn:   -0.0196    constr:    0.0000
     atom:   30    charge:    1.7115    magn:    0.0490    constr:    0.0000
     atom:   31    charge:    1.7137    magn:   -0.0120    constr:    0.0000
     atom:   32    charge:    1.7152    magn:    0.0178    constr:    0.0000
     atom:   33    charge:    1.7176    magn:   -0.0089    constr:    0.0000
     atom:   34    charge:    1.7140    magn:    0.0126    constr:    0.0000
     atom:   35    charge:    1.7176    magn:   -0.0090    constr:    0.0000
     atom:   36    charge:    1.7142    magn:    0.0057    constr:    0.0000
     atom:   37    charge:    1.7229    magn:   -0.0140    constr:    0.0000
     atom:   38    charge:    1.7108    magn:    0.0552    constr:    0.0000
     atom:   39    charge:    1.8520    magn:   -0.0199    constr:    0.0000
     atom:   40    charge:    1.7113    magn:    0.0507    constr:    0.0000
     atom:   41    charge:    1.7225    magn:   -0.0129    constr:    0.0000
     atom:   42    charge:    1.7142    magn:    0.0056    constr:    0.0000
     atom:   43    charge:    1.7176    magn:   -0.0089    constr:    0.0000
     atom:   44    charge:    1.7141    magn:    0.0118    constr:    0.0000
     atom:   45    charge:    1.7234    magn:   -0.0086    constr:    0.0000
     atom:   46    charge:    1.7140    magn:    0.0126    constr:    0.0000
     atom:   47    charge:    1.7176    magn:   -0.0090    constr:    0.0000
     atom:   48    charge:    1.7154    magn:    0.0171    constr:    0.0000
     atom:   49    charge:    1.7139    magn:   -0.0126    constr:    0.0000
     atom:   50    charge:    1.7155    magn:    0.0445    constr:    0.0000
     atom:   51    charge:    1.7138    magn:   -0.0127    constr:    0.0000
     atom:   52    charge:    1.7154    magn:    0.0163    constr:    0.0000

     total cpu time spent up to now is     9389.6 secs

     End of self-consistent calculation

 ------ SPIN UP ------------


          k = 0.0000 0.0000 0.0000 ( 87777 PWs)   bands (ev):

   -88.8201 -55.7109 -55.6691 -54.0332 -19.8706 -19.0419 -19.0297 -18.9462
   -18.9181 -18.9142 -18.5809 -17.1695 -17.1615 -17.1608 -17.0943 -17.0902
   -16.7852 -16.3190 -16.3171 -16.2137 -16.1679 -16.1677 -15.4839 -14.2302
   -14.2174 -14.1363 -14.0857 -14.0836 -13.4240 -13.1539 -13.1508 -13.1258
   -12.8506 -12.8499 -12.4378 -11.9359 -11.9347 -11.7423 -11.4995 -11.4979
   -10.6241  -9.8007  -9.7980  -9.5237  -9.4068  -9.4056  -9.3211  -9.2905
    -9.2901  -9.2775  -8.8182  -8.8178  -8.2859  -8.2834  -8.1868  -8.0181
    -7.9243  -7.5340  -7.5315  -7.3406  -7.2320  -7.2230  -7.0782  -7.0781
    -6.9250  -6.9097  -6.9047  -6.8036  -6.6557  -6.6505  -6.6248  -6.6138
    -6.6109  -6.5939  -6.5661  -6.2567  -5.7425  -5.7392  -5.7094  -5.6955
    -5.4762  -5.4741  -5.3314  -5.0778  -4.9695  -4.8299  -4.8025  -4.7986
    -4.5494  -4.5449  -4.4890  -4.3317  -4.3229  -3.9619  -3.9618  -3.8738
    -3.7725  -3.7714  -3.2118  -2.9107  -2.9032  -1.9605  -1.8920  -1.8901
    -1.3400  -1.3166  -1.2034  -0.9022   0.8356   0.8822   0.8839   1.3967
     1.4070   1.5161   2.3277   2.3286   2.5291   2.6806   2.6826   2.7786
     3.2942   3.3025   3.4230   3.6642   3.6665   3.7339   3.7444   3.7448

     occupation numbers 
     1.0000   1.0000   1.0000   1.0000   1.0000   1.0000   1.0000   1.0000
     1.0000   1.0000   1.0000   1.0000   1.0000   1.0000   1.0000   1.0000
     1.0000   1.0000   1.0000   1.0000   1.0000   1.0000   1.0000   1.0000
     1.0000   1.0000   1.0000   1.0000   1.0000   1.0000   1.0000   1.0000
     1.0000   1.0000   1.0000   1.0000   1.0000   1.0000   1.0000   1.0000
     1.0000   1.0000   1.0000   1.0000   1.0000   1.0000   1.0000   1.0000
     1.0000   1.0000   1.0000   1.0000   1.0000   1.0000   1.0000   1.0000
     1.0000   1.0000   1.0000   1.0000   1.0000   1.0000   1.0000   1.0000
     1.0000   1.0000   1.0000   1.0000   1.0000   1.0000   1.0000   1.0000
     1.0000   1.0000   1.0000   1.0000   1.0000   1.0000   1.0000   1.0000
     1.0000   1.0000   1.0000   1.0000   1.0000   1.0000   1.0000   1.0000
     1.0000   1.0000   1.0000   1.0000   1.0000   1.0000   1.0000   1.0000
     1.0000   1.0000   1.0000   1.0000   1.0000   1.0000   1.0000   1.0000
     1.0000   1.0000   1.0000   0.9756   0.0000   0.0000   0.0000   0.0000
     0.0000   0.0000   0.0000   0.0000   0.0000   0.0000   0.0000   0.0000
     0.0000   0.0000   0.0000   0.0000   0.0000   0.0000   0.0000   0.0000

 ------ SPIN DOWN ----------


          k = 0.0000 0.0000 0.0000 ( 87777 PWs)   bands (ev):

   -88.0634 -55.0811 -55.0688 -53.0893 -19.8320 -18.9967 -18.9867 -18.9099
   -18.8952 -18.8911 -18.5268 -17.1378 -17.1322 -17.1289 -17.0442 -17.0413
   -16.7578 -16.2761 -16.2756 -16.1839 -16.1277 -16.1275 -15.4608 -14.1612
   -14.1537 -14.0796 -14.0764 -14.0734 -13.4340 -13.1296 -13.1277 -13.0964
   -12.8327 -12.8321 -12.4086 -11.9009 -11.8990 -11.7218 -11.4782 -11.4779
   -10.6015  -9.7505  -9.7489  -9.4937  -9.3769  -9.3767  -9.3052  -9.2690
    -9.2685  -9.2614  -8.8061  -8.8056  -8.2491  -8.2466  -8.1661  -7.9289
    -7.9084  -7.5208  -7.5179  -7.3076  -7.0706  -7.0677  -7.0306  -7.0300
    -6.8546  -6.8529  -6.8333  -6.7893  -6.6399  -6.6354  -6.6149  -6.6014
    -6.5987  -6.5497  -6.4783  -6.2484  -5.6913  -5.6890  -5.4754  -5.4752
    -5.4335  -5.4320  -5.2233  -5.0646  -4.9609  -4.7595  -4.7183  -4.7176
    -4.4662  -4.4621  -4.4216  -4.2087  -4.2078  -3.8389  -3.8375  -3.7891
    -3.7585  -3.7574  -3.1717  -2.6846  -2.6813  -1.8668  -1.8649  -1.8138
    -0.9322  -0.9209  -0.8232  -0.8053   0.9254   0.9276   0.9785   1.5486
     1.5492   1.6314   2.4863   2.4864   2.5417   2.8097   2.8117   2.8429
     3.4478   3.4479   3.5099   3.6815   3.6823   3.7441   3.7491   3.7495

     occupation numbers 
     1.0000   1.0000   1.0000   1.0000   1.0000   1.0000   1.0000   1.0000
     1.0000   1.0000   1.0000   1.0000   1.0000   1.0000   1.0000   1.0000
     1.0000   1.0000   1.0000   1.0000   1.0000   1.0000   1.0000   1.0000
     1.0000   1.0000   1.0000   1.0000   1.0000   1.0000   1.0000   1.0000
     1.0000   1.0000   1.0000   1.0000   1.0000   1.0000   1.0000   1.0000
     1.0000   1.0000   1.0000   1.0000   1.0000   1.0000   1.0000   1.0000
     1.0000   1.0000   1.0000   1.0000   1.0000   1.0000   1.0000   1.0000
     1.0000   1.0000   1.0000   1.0000   1.0000   1.0000   1.0000   1.0000
     1.0000   1.0000   1.0000   1.0000   1.0000   1.0000   1.0000   1.0000
     1.0000   1.0000   1.0000   1.0000   1.0000   1.0000   1.0000   1.0000
     1.0000   1.0000   1.0000   1.0000   1.0000   1.0000   1.0000   1.0000
     1.0000   1.0000   1.0000   1.0000   1.0000   1.0000   1.0000   1.0000
     1.0000   1.0000   1.0000   1.0000   1.0000   1.0000   1.0000   1.0000
     1.0011   1.0233   0.0000   0.0000   0.0000   0.0000   0.0000   0.0000
     0.0000   0.0000   0.0000   0.0000   0.0000   0.0000   0.0000   0.0000
     0.0000   0.0000   0.0000   0.0000   0.0000   0.0000   0.0000   0.0000

     the Fermi energy is    -0.8905 ev

!    total energy              =    -860.05570611 Ry
     Harris-Foulkes estimate   =    -860.05570623 Ry
     estimated scf accuracy    <       0.00000035 Ry

     The total energy is the sum of the following terms:

     one-electron contribution =   -2784.85500362 Ry
     hartree contribution      =    1436.23422481 Ry
     xc contribution           =    -259.31052583 Ry
     ewald contribution        =     747.87547600 Ry
     smearing contrib. (-TS)   =       0.00012253 Ry

     total magnetization       =     1.95 Bohr mag/cell
     absolute magnetization    =     3.13 Bohr mag/cell

     convergence has been achieved in  89 iterations

     Writing output data file distance-3.5.save/

     init_run     :     76.35s CPU     77.74s WALL (       1 calls)
     electrons    :   9143.32s CPU   9310.83s WALL (       1 calls)

     Called by init_run:
     wfcinit      :     45.73s CPU     46.03s WALL (       1 calls)
     wfcinit:atom :      0.04s CPU      0.09s WALL (       2 calls)
     wfcinit:wfcr :     45.32s CPU     45.52s WALL (       2 calls)
     potinit      :     12.48s CPU     12.90s WALL (       1 calls)
     hinit0       :      8.85s CPU      8.89s WALL (       1 calls)

     Called by electrons:
     c_bands      :   5774.78s CPU   5805.01s WALL (      89 calls)
     sum_band     :   1964.72s CPU   2019.44s WALL (      89 calls)
     v_of_rho     :    666.94s CPU    701.86s WALL (      90 calls)
     v_h          :      7.12s CPU      7.33s WALL (      90 calls)
     v_xc         :    659.82s CPU    694.53s WALL (      90 calls)
     newd         :    685.75s CPU    733.32s WALL (      90 calls)
     mix_rho      :     45.31s CPU     45.83s WALL (      89 calls)

     Called by c_bands:
     init_us_2    :     17.20s CPU     17.25s WALL (     358 calls)
     cegterg      :   5733.98s CPU   5764.09s WALL (     178 calls)

     Called by sum_band:
     sum_band:bec :      0.14s CPU      0.15s WALL (     178 calls)
     addusdens    :   1224.83s CPU   1275.16s WALL (      89 calls)

     Called by *egterg:
     h_psi        :   2979.95s CPU   3000.70s WALL (     610 calls)
     s_psi        :   1001.32s CPU   1001.58s WALL (     610 calls)
     g_psi        :      2.97s CPU      2.98s WALL (     430 calls)
     cdiaghg      :     41.45s CPU     41.47s WALL (     608 calls)
     cegterg:over :    705.20s CPU    705.45s WALL (     430 calls)
     cegterg:upda :    414.68s CPU    417.17s WALL (     430 calls)
     cegterg:last :    310.32s CPU    310.40s WALL (     178 calls)

     Called by h_psi:
     h_psi:pot    :   2976.52s CPU   2993.50s WALL (     610 calls)
     h_psi:calbec :   1016.37s CPU   1016.72s WALL (     610 calls)
     vloc_psi     :    959.93s CPU    976.38s WALL (     610 calls)
     add_vuspsi   :   1000.21s CPU   1000.40s WALL (     610 calls)

     General routines
     calbec       :   1471.05s CPU   1471.56s WALL (     788 calls)
     fft          :    381.83s CPU    395.73s WALL (    6744 calls)
     ffts         :      6.59s CPU      6.84s WALL (     358 calls)
     fftw         :   1014.11s CPU   1031.44s WALL (  124722 calls)
     interpolate  :     15.90s CPU     16.31s WALL (     180 calls)

     Parallel routines
     fft_scatt_xy :    259.42s CPU    262.43s WALL (  131824 calls)
     fft_scatt_yz :    442.52s CPU    465.07s WALL (  131824 calls)

     PWSCF        :      2h33m CPU      2h36m WALL


   This run was terminated on:   2:46:51  25Aug2022            

=------------------------------------------------------------------------------=
   JOB DONE.
=------------------------------------------------------------------------------=
