
     Program PWSCF v.6.4.1 starts on 28Aug2022 at 13:47:48 

     This program is part of the open-source Quantum ESPRESSO suite
     for quantum simulation of materials; please cite
         "P. Giannozzi et al., J. Phys.:Condens. Matter 21 395502 (2009);
         "P. Giannozzi et al., J. Phys.:Condens. Matter 29 465901 (2017);
          URL http://www.quantum-espresso.org", 
     in publications or presentations arising from this work. More details at
     http://www.quantum-espresso.org/quote

     Parallel version (MPI), running on     6 processors

     MPI processes distributed on     1 nodes
     R & G space division:  proc/nbgrp/npool/nimage =       6
     Reading input from distance-1.8.in

     Current dimensions of program PWSCF are:
     Max number of different atomic species (ntypx) = 10
     Max number of k-points (npk) =  40000
     Max angular momentum in pseudopotentials (lmaxx) =  3

     IMPORTANT: XC functional enforced from input :
     Exchange-correlation      = RVV10 ( 1  4 13  4 3 0)
     Any further DFT definition will be discarded
     Please, verify this is what you really want

               file H.pbe-rrkjus.UPF: wavefunction(s)  1S renormalized

     Subspace diagonalization in iterative solution of the eigenvalue problem:
     a serial algorithm will be used


     Parallelization info
     --------------------
     sticks:   dense  smooth     PW     G-vecs:    dense   smooth      PW
     Min        3051    1746    432               270999   117096   14629
     Max        3053    1747    437               271001   117099   14630
     Sum       18313   10477   2611              1626001   702581   87777



     bravais-lattice index     =            4
     lattice parameter (alat)  =      23.2937  a.u.
     unit-cell volume          =    8879.8548 (a.u.)^3
     number of atoms/cell      =           52
     number of atomic types    =            3
     number of electrons       =       214.00
     number of Kohn-Sham states=          128
     kinetic-energy cutoff     =      70.0000  Ry
     charge density cutoff     =     490.0000  Ry
     convergence threshold     =      1.0E-06
     mixing beta               =       0.7000
     number of iterations used =            8  plain     mixing
     Exchange-correlation      = RVV10 ( 1  4 13  4 3 0)

     celldm(1)=  23.293684  celldm(2)=   0.000000  celldm(3)=   0.811261
     celldm(4)=   0.000000  celldm(5)=   0.000000  celldm(6)=   0.000000

     crystal axes: (cart. coord. in units of alat)
               a(1) = (   1.000000   0.000000   0.000000 )  
               a(2) = (  -0.500000   0.866025   0.000000 )  
               a(3) = (   0.000000   0.000000   0.811261 )  

     reciprocal axes: (cart. coord. in units 2 pi/alat)
               b(1) = (  1.000000  0.577350 -0.000000 )  
               b(2) = (  0.000000  1.154701  0.000000 )  
               b(3) = (  0.000000 -0.000000  1.232649 )  


     PseudoPot. # 1 for H  read from file:
     /home/cristian/Escritorio/Proyecto_Grafeno/pseudopotenciales/H.pbe-rrkjus.UPF
     MD5 check sum: 7cc9d459525c9a0585f487a71c3c9563
     Pseudo is Ultrasoft, Zval =  1.0
     Generated by new atomic code, or converted to UPF format
     Using radial grid of 1061 points,  2 beta functions with: 
                l(1) =   0
                l(2) =   0
     Q(r) pseudized with 0 coefficients 


     PseudoPot. # 2 for C  read from file:
     /home/cristian/Escritorio/Proyecto_Grafeno/pseudopotenciales/C.pbe-n-rrkjus_psl.1.0.0.UPF
     MD5 check sum: 1fdd950c42eb37d8afe3dd2f8d12311e
     Pseudo is Ultrasoft + core correction, Zval =  4.0
     Generated using "atomic" code by A. Dal Corso v.6.3MaX
     Using radial grid of 1073 points,  4 beta functions with: 
                l(1) =   0
                l(2) =   0
                l(3) =   1
                l(4) =   1
     Q(r) pseudized with 0 coefficients 


     PseudoPot. # 3 for Fe read from file:
     /home/cristian/Escritorio/Proyecto_Grafeno/pseudopotenciales/Fe.pbe-spn-rrkjus_psl.1.0.0.UPF
     MD5 check sum: 72ea77fed8e64ab3a2ccf2804dfc1862
     Pseudo is Ultrasoft + core correction, Zval = 16.0
     Generated using "atomic" code by A. Dal Corso v.6.3
     Using radial grid of 1191 points,  6 beta functions with: 
                l(1) =   0
                l(2) =   0
                l(3) =   1
                l(4) =   1
                l(5) =   2
                l(6) =   2
     Q(r) pseudized with 0 coefficients 


     vdW kernel table read from file rVV10_kernel_table
     MD5 check sum: b8e2538accc0c0b3206b45ba4daaba6c

     atomic species   valence    mass     pseudopotential
        H              1.00     1.00794     H ( 1.00)
        C              4.00    12.01070     C ( 1.00)
        Fe            16.00    55.84500     Fe( 1.00)

     Starting magnetic structure 
     atomic species   magnetization
        H            0.500
        C            0.300
        Fe           0.800

      2 Sym. Ops. (no inversion) found


                                    s                        frac. trans.

      isym =  1     identity                                     

 cryst.   s( 1) = (     1          0          0      )
                  (     0          1          0      )
                  (     0          0          1      )

 cart.    s( 1) = (  1.0000000  0.0000000  0.0000000 )
                  (  0.0000000  1.0000000  0.0000000 )
                  (  0.0000000  0.0000000  1.0000000 )


      isym =  2     inv. 180 deg rotation - cryst. axis [1,1,0]  

 cryst.   s( 2) = (     0         -1          0      )
                  (    -1          0          0      )
                  (     0          0          1      )

 cart.    s( 2) = (  0.5000000 -0.8660254  0.0000000 )
                  ( -0.8660254 -0.5000000  0.0000000 )
                  (  0.0000000  0.0000000  1.0000000 )


     point group C_s (m)    
     there are  2 classes
     the character table:

       E     s    
A'     1.00  1.00
A''    1.00 -1.00

     the symmetry operations in each class and the name of the first element:

     E        1
          identity                                               
     s        2
          inv. 180 deg rotation - cryst. axis [1,1,0]            

   Cartesian axes

     site n.     atom                  positions (alat units)
         1           H   tau(   1) = (   0.2000000   0.4618802   0.1460270  )
         2           H   tau(   2) = (   0.2000000   0.4618802   0.2070397  )
         3           C   tau(   3) = (   0.0000000   0.0000000   0.0000000  )
         4           C   tau(   4) = (   0.0000000   0.1154701   0.0000000  )
         5           C   tau(   5) = (  -0.1000000   0.1732051   0.0000000  )
         6           C   tau(   6) = (  -0.1000000   0.2886751   0.0000000  )
         7           C   tau(   7) = (  -0.2000000   0.3464102   0.0000000  )
         8           C   tau(   8) = (  -0.2000000   0.4618802   0.0000000  )
         9           C   tau(   9) = (  -0.3000000   0.5196152   0.0000000  )
        10           C   tau(  10) = (  -0.3000000   0.6350853   0.0000000  )
        11           C   tau(  11) = (  -0.4000000   0.6928203   0.0000000  )
        12           C   tau(  12) = (  -0.4000000   0.8082904   0.0000000  )
        13           C   tau(  13) = (   0.2000000   0.0000000   0.0000000  )
        14           C   tau(  14) = (   0.2000000   0.1154701   0.0000000  )
        15           C   tau(  15) = (   0.1000000   0.1732051   0.0000000  )
        16           C   tau(  16) = (   0.1000000   0.2886751   0.0000000  )
        17           C   tau(  17) = (   0.0000000   0.3464102   0.0000000  )
        18           C   tau(  18) = (   0.0000000   0.4618802   0.0000000  )
        19           C   tau(  19) = (  -0.1000000   0.5196152   0.0000000  )
        20           C   tau(  20) = (  -0.1000000   0.6350853   0.0000000  )
        21           C   tau(  21) = (  -0.2000000   0.6928203   0.0000000  )
        22           C   tau(  22) = (  -0.2000000   0.8082904   0.0000000  )
        23           C   tau(  23) = (   0.4000000   0.0000000   0.0000000  )
        24           C   tau(  24) = (   0.4000000   0.1154701   0.0000000  )
        25           C   tau(  25) = (   0.3000000   0.1732051   0.0000000  )
        26           C   tau(  26) = (   0.3000000   0.2886751   0.0000000  )
        27           C   tau(  27) = (   0.2000000   0.3464102   0.0000000  )
        28           Fe  tau(  28) = (   0.2000000   0.4618802   0.0000000  )
        29           C   tau(  29) = (   0.1000000   0.5196152   0.0000000  )
        30           C   tau(  30) = (   0.1000000   0.6350853   0.0000000  )
        31           C   tau(  31) = (   0.0000000   0.6928203   0.0000000  )
        32           C   tau(  32) = (   0.0000000   0.8082904   0.0000000  )
        33           C   tau(  33) = (   0.6000000   0.0000000   0.0000000  )
        34           C   tau(  34) = (   0.6000000   0.1154701   0.0000000  )
        35           C   tau(  35) = (   0.5000000   0.1732051   0.0000000  )
        36           C   tau(  36) = (   0.5000000   0.2886751   0.0000000  )
        37           C   tau(  37) = (   0.4000000   0.3464102   0.0000000  )
        38           C   tau(  38) = (   0.4000000   0.4618802   0.0000000  )
        39           C   tau(  39) = (   0.3000000   0.5196152   0.0000000  )
        40           C   tau(  40) = (   0.3000000   0.6350853   0.0000000  )
        41           C   tau(  41) = (   0.2000000   0.6928203   0.0000000  )
        42           C   tau(  42) = (   0.2000000   0.8082904   0.0000000  )
        43           C   tau(  43) = (   0.8000000   0.0000000   0.0000000  )
        44           C   tau(  44) = (   0.8000000   0.1154701   0.0000000  )
        45           C   tau(  45) = (   0.7000000   0.1732051   0.0000000  )
        46           C   tau(  46) = (   0.7000000   0.2886751   0.0000000  )
        47           C   tau(  47) = (   0.6000000   0.3464102   0.0000000  )
        48           C   tau(  48) = (   0.6000000   0.4618802   0.0000000  )
        49           C   tau(  49) = (   0.5000000   0.5196152   0.0000000  )
        50           C   tau(  50) = (   0.5000000   0.6350853   0.0000000  )
        51           C   tau(  51) = (   0.4000000   0.6928203   0.0000000  )
        52           C   tau(  52) = (   0.4000000   0.8082904   0.0000000  )

   Crystallographic axes

     site n.     atom                  positions (cryst. coord.)
         1           H   tau(   1) = (  0.4666667  0.5333333  0.1800000  )
         2           H   tau(   2) = (  0.4666667  0.5333333  0.2552072  )
         3           C   tau(   3) = (  0.0000000  0.0000000  0.0000000  )
         4           C   tau(   4) = (  0.0666667  0.1333333  0.0000000  )
         5           C   tau(   5) = (  0.0000000  0.2000000  0.0000000  )
         6           C   tau(   6) = (  0.0666667  0.3333333  0.0000000  )
         7           C   tau(   7) = (  0.0000000  0.4000000  0.0000000  )
         8           C   tau(   8) = (  0.0666667  0.5333333  0.0000000  )
         9           C   tau(   9) = (  0.0000000  0.6000000  0.0000000  )
        10           C   tau(  10) = (  0.0666667  0.7333333  0.0000000  )
        11           C   tau(  11) = (  0.0000000  0.8000000  0.0000000  )
        12           C   tau(  12) = (  0.0666667  0.9333333  0.0000000  )
        13           C   tau(  13) = (  0.2000000  0.0000000  0.0000000  )
        14           C   tau(  14) = (  0.2666667  0.1333333  0.0000000  )
        15           C   tau(  15) = (  0.2000000  0.2000000  0.0000000  )
        16           C   tau(  16) = (  0.2666667  0.3333333  0.0000000  )
        17           C   tau(  17) = (  0.2000000  0.4000000  0.0000000  )
        18           C   tau(  18) = (  0.2666667  0.5333333  0.0000000  )
        19           C   tau(  19) = (  0.2000000  0.6000000  0.0000000  )
        20           C   tau(  20) = (  0.2666667  0.7333333  0.0000000  )
        21           C   tau(  21) = (  0.2000000  0.8000000  0.0000000  )
        22           C   tau(  22) = (  0.2666667  0.9333333  0.0000000  )
        23           C   tau(  23) = (  0.4000000  0.0000000  0.0000000  )
        24           C   tau(  24) = (  0.4666667  0.1333333  0.0000000  )
        25           C   tau(  25) = (  0.4000000  0.2000000  0.0000000  )
        26           C   tau(  26) = (  0.4666667  0.3333333  0.0000000  )
        27           C   tau(  27) = (  0.4000000  0.4000000  0.0000000  )
        28           Fe  tau(  28) = (  0.4666667  0.5333333  0.0000000  )
        29           C   tau(  29) = (  0.4000000  0.6000000  0.0000000  )
        30           C   tau(  30) = (  0.4666667  0.7333333  0.0000000  )
        31           C   tau(  31) = (  0.4000000  0.8000000  0.0000000  )
        32           C   tau(  32) = (  0.4666667  0.9333333  0.0000000  )
        33           C   tau(  33) = (  0.6000000  0.0000000  0.0000000  )
        34           C   tau(  34) = (  0.6666667  0.1333333  0.0000000  )
        35           C   tau(  35) = (  0.6000000  0.2000000  0.0000000  )
        36           C   tau(  36) = (  0.6666667  0.3333333  0.0000000  )
        37           C   tau(  37) = (  0.6000000  0.4000000  0.0000000  )
        38           C   tau(  38) = (  0.6666667  0.5333333  0.0000000  )
        39           C   tau(  39) = (  0.6000000  0.6000000  0.0000000  )
        40           C   tau(  40) = (  0.6666667  0.7333333  0.0000000  )
        41           C   tau(  41) = (  0.6000000  0.8000000  0.0000000  )
        42           C   tau(  42) = (  0.6666667  0.9333333  0.0000000  )
        43           C   tau(  43) = (  0.8000000  0.0000000  0.0000000  )
        44           C   tau(  44) = (  0.8666667  0.1333333  0.0000000  )
        45           C   tau(  45) = (  0.8000000  0.2000000  0.0000000  )
        46           C   tau(  46) = (  0.8666667  0.3333333  0.0000000  )
        47           C   tau(  47) = (  0.8000000  0.4000000  0.0000000  )
        48           C   tau(  48) = (  0.8666667  0.5333333  0.0000000  )
        49           C   tau(  49) = (  0.8000000  0.6000000  0.0000000  )
        50           C   tau(  50) = (  0.8666667  0.7333333  0.0000000  )
        51           C   tau(  51) = (  0.8000000  0.8000000  0.0000000  )
        52           C   tau(  52) = (  0.8666667  0.9333333  0.0000000  )

     number of k points=     1  Marzari-Vanderbilt smearing, width (Ry)=  0.0010
                       cart. coord. in units 2pi/alat
        k(    1) = (   0.0000000   0.0000000   0.0000000), wk =   1.0000000

                       cryst. coord.
        k(    1) = (   0.0000000   0.0000000   0.0000000), wk =   1.0000000

     Dense  grid:  1626001 G-vectors     FFT dimensions: ( 180, 180, 135)

     Smooth grid:   702581 G-vectors     FFT dimensions: ( 125, 125, 108)

     Dynamical RAM for                 wfc:      28.59 MB

     Dynamical RAM for     wfc (w. buffer):      85.76 MB

     Dynamical RAM for           str. fact:      12.41 MB

     Dynamical RAM for           local pot:       0.00 MB

     Dynamical RAM for          nlocal pot:      92.46 MB

     Dynamical RAM for                qrad:      19.73 MB

     Dynamical RAM for          rho,v,vnew:      58.92 MB

     Dynamical RAM for               rhoin:      19.64 MB

     Dynamical RAM for            rho*nmix:     132.32 MB

     Dynamical RAM for           G-vectors:      16.40 MB

     Dynamical RAM for          h,s,v(r/c):      12.00 MB

     Dynamical RAM for          <psi|beta>:       0.81 MB

     Dynamical RAM for                 psi:     114.35 MB

     Dynamical RAM for                hpsi:     114.35 MB

     Dynamical RAM for                spsi:     114.35 MB

     Dynamical RAM for      wfcinit/wfcrot:      93.90 MB

     Dynamical RAM for           addusdens:     975.89 MB

     Estimated static dynamical RAM per process >     488.30 MB

     Estimated max dynamical RAM per process >       1.43 GB

     Estimated total dynamical RAM >       8.58 GB
     Generating pointlists ...
     new r_m :   0.0252 (alat units)  0.5862 (a.u.) for type    1
     new r_m :   0.0476 (alat units)  1.1095 (a.u.) for type    2
     new r_m :   0.0476 (alat units)  1.1095 (a.u.) for type    3

     Check: negative core charge=   -0.000002

     Initial potential from superposition of free atoms

     starting charge  213.80512, renormalised to  214.00000

     negative rho (up, down):  6.617E-05 1.320E-02


---------------------------------------------------------------------------------
Carrying out rVV10 run using the following parameters:
Nqs =      20    Nr_points =    1024   r_max =   100.000
b_value =  6.30000    beta =  0.00901
     q_mesh =  0.00010000  0.00030000  0.00058939  0.00100810
               0.00161396  0.00249058  0.00375900  0.00559430
               0.00824984  0.01209221  0.01765183  0.02569619
               0.03733578  0.05417739  0.07854596  0.11380545
               0.16482331  0.23864234  0.34545298  0.50000000

Gradients computed in Reciprocal space

---------------------------------------------------------------------------------


     Starting wfcs are  208 randomized atomic wfcs

     total cpu time spent up to now is       77.1 secs

     Self-consistent Calculation

     iteration #  1     ecut=    70.00 Ry     beta= 0.70
     Davidson diagonalization with overlap
     ethr =  1.00E-02,  avg # of iterations =  3.0

     negative rho (up, down):  1.684E-04 1.711E-02

     total cpu time spent up to now is      200.4 secs

     total energy              =    -856.30573345 Ry
     Harris-Foulkes estimate   =    -858.72308031 Ry
     estimated scf accuracy    <      11.78188758 Ry

     total magnetization       =     6.00 Bohr mag/cell
     absolute magnetization    =     6.69 Bohr mag/cell

     iteration #  2     ecut=    70.00 Ry     beta= 0.70
     Davidson diagonalization with overlap
     ethr =  5.51E-03,  avg # of iterations =  6.0

     negative rho (up, down):  5.675E-04 5.524E-02

     total cpu time spent up to now is      310.8 secs

     total energy              =    -844.24960205 Ry
     Harris-Foulkes estimate   =    -865.21525432 Ry
     estimated scf accuracy    <      90.65349619 Ry

     total magnetization       =     6.00 Bohr mag/cell
     absolute magnetization    =     6.15 Bohr mag/cell

     iteration #  3     ecut=    70.00 Ry     beta= 0.70
     Davidson diagonalization with overlap
     ethr =  5.51E-03,  avg # of iterations =  4.5

     negative rho (up, down):  4.947E-04 6.531E-02

     total cpu time spent up to now is      461.2 secs

     total energy              =    -857.76424912 Ry
     Harris-Foulkes estimate   =    -862.73594157 Ry
     estimated scf accuracy    <      32.54029567 Ry

     total magnetization       =     2.00 Bohr mag/cell
     absolute magnetization    =     2.44 Bohr mag/cell

     iteration #  4     ecut=    70.00 Ry     beta= 0.70
     Davidson diagonalization with overlap
     ethr =  5.51E-03,  avg # of iterations =  2.5

     negative rho (up, down):  3.391E-04 6.269E-02

     total cpu time spent up to now is      554.5 secs

     total energy              =    -859.53297698 Ry
     Harris-Foulkes estimate   =    -860.33073605 Ry
     estimated scf accuracy    <       2.18596706 Ry

     total magnetization       =     2.00 Bohr mag/cell
     absolute magnetization    =     2.73 Bohr mag/cell

     iteration #  5     ecut=    70.00 Ry     beta= 0.70
     Davidson diagonalization with overlap
     ethr =  1.02E-03,  avg # of iterations =  5.0

     negative rho (up, down):  5.999E-04 9.972E-02

     total cpu time spent up to now is      663.3 secs

     total energy              =    -859.78111871 Ry
     Harris-Foulkes estimate   =    -860.29617225 Ry
     estimated scf accuracy    <       2.43068088 Ry

     total magnetization       =     0.00 Bohr mag/cell
     absolute magnetization    =     1.01 Bohr mag/cell

     iteration #  6     ecut=    70.00 Ry     beta= 0.70
     Davidson diagonalization with overlap
     ethr =  1.02E-03,  avg # of iterations =  3.0

     negative rho (up, down):  9.137E-04 1.869E-01

     total cpu time spent up to now is      755.0 secs

     total energy              =    -860.08246295 Ry
     Harris-Foulkes estimate   =    -860.10455640 Ry
     estimated scf accuracy    <       0.33830799 Ry

     total magnetization       =     2.00 Bohr mag/cell
     absolute magnetization    =     2.56 Bohr mag/cell

     iteration #  7     ecut=    70.00 Ry     beta= 0.70
     Davidson diagonalization with overlap
     ethr =  1.58E-04,  avg # of iterations =  3.0

     negative rho (up, down):  9.307E-03 3.475E-01

     total cpu time spent up to now is      857.4 secs

     total energy              =    -859.92996475 Ry
     Harris-Foulkes estimate   =    -860.17693595 Ry
     estimated scf accuracy    <       1.31592636 Ry

     total magnetization       =     2.00 Bohr mag/cell
     absolute magnetization    =     3.62 Bohr mag/cell

     iteration #  8     ecut=    70.00 Ry     beta= 0.70
     Davidson diagonalization with overlap
     ethr =  1.58E-04,  avg # of iterations =  2.5

     negative rho (up, down):  4.294E-03 3.014E-01

     total cpu time spent up to now is      958.6 secs

     total energy              =    -860.01334987 Ry
     Harris-Foulkes estimate   =    -860.07132171 Ry
     estimated scf accuracy    <       0.27030126 Ry

     total magnetization       =     2.00 Bohr mag/cell
     absolute magnetization    =     2.53 Bohr mag/cell

     iteration #  9     ecut=    70.00 Ry     beta= 0.70
     Davidson diagonalization with overlap
     ethr =  1.26E-04,  avg # of iterations =  2.0

     negative rho (up, down):  3.703E-03 2.637E-01

     total cpu time spent up to now is     1049.9 secs

     total energy              =    -860.02623265 Ry
     Harris-Foulkes estimate   =    -860.04899762 Ry
     estimated scf accuracy    <       0.09657388 Ry

     total magnetization       =     2.00 Bohr mag/cell
     absolute magnetization    =     2.40 Bohr mag/cell

     iteration # 10     ecut=    70.00 Ry     beta= 0.70
     Davidson diagonalization with overlap
     ethr =  4.51E-05,  avg # of iterations =  5.5

     negative rho (up, down):  3.457E-03 2.295E-01

     total cpu time spent up to now is     1145.3 secs

     total energy              =    -860.02808957 Ry
     Harris-Foulkes estimate   =    -860.05057483 Ry
     estimated scf accuracy    <       0.11328006 Ry

     total magnetization       =     1.98 Bohr mag/cell
     absolute magnetization    =     2.35 Bohr mag/cell

     iteration # 11     ecut=    70.00 Ry     beta= 0.70
     Davidson diagonalization with overlap
     ethr =  4.51E-05,  avg # of iterations =  1.5

     negative rho (up, down):  3.174E-03 2.156E-01

     total cpu time spent up to now is     1233.9 secs

     total energy              =    -860.03229663 Ry
     Harris-Foulkes estimate   =    -860.03588323 Ry
     estimated scf accuracy    <       0.02598580 Ry

     total magnetization       =     2.04 Bohr mag/cell
     absolute magnetization    =     2.38 Bohr mag/cell

     iteration # 12     ecut=    70.00 Ry     beta= 0.70
     Davidson diagonalization with overlap
     ethr =  1.21E-05,  avg # of iterations =  5.0

     negative rho (up, down):  2.904E-03 2.107E-01

     total cpu time spent up to now is     1325.5 secs

     total energy              =    -860.03069710 Ry
     Harris-Foulkes estimate   =    -860.03361993 Ry
     estimated scf accuracy    <       0.02060852 Ry

     total magnetization       =     2.00 Bohr mag/cell
     absolute magnetization    =     2.35 Bohr mag/cell

     iteration # 13     ecut=    70.00 Ry     beta= 0.70
     Davidson diagonalization with overlap
     ethr =  9.63E-06,  avg # of iterations =  1.5

     negative rho (up, down):  2.705E-03 2.039E-01

     total cpu time spent up to now is     1414.7 secs

     total energy              =    -860.02890893 Ry
     Harris-Foulkes estimate   =    -860.03118130 Ry
     estimated scf accuracy    <       0.01538548 Ry

     total magnetization       =     2.00 Bohr mag/cell
     absolute magnetization    =     2.34 Bohr mag/cell

     iteration # 14     ecut=    70.00 Ry     beta= 0.70
     Davidson diagonalization with overlap
     ethr =  7.19E-06,  avg # of iterations =  1.5

     negative rho (up, down):  2.468E-03 2.130E-01

     total cpu time spent up to now is     1503.6 secs

     total energy              =    -860.02288955 Ry
     Harris-Foulkes estimate   =    -860.02922672 Ry
     estimated scf accuracy    <       0.01300188 Ry

     total magnetization       =     2.00 Bohr mag/cell
     absolute magnetization    =     2.34 Bohr mag/cell

     iteration # 15     ecut=    70.00 Ry     beta= 0.70
     Davidson diagonalization with overlap
     ethr =  6.08E-06,  avg # of iterations =  2.0

     negative rho (up, down):  2.627E-03 1.466E-01

     total cpu time spent up to now is     1600.6 secs

     total energy              =    -860.02609303 Ry
     Harris-Foulkes estimate   =    -860.02453715 Ry
     estimated scf accuracy    <       0.00798922 Ry

     total magnetization       =     2.01 Bohr mag/cell
     absolute magnetization    =     2.33 Bohr mag/cell

     iteration # 16     ecut=    70.00 Ry     beta= 0.70
     Davidson diagonalization with overlap
     ethr =  3.73E-06,  avg # of iterations =  7.0

     negative rho (up, down):  1.018E-03 2.426E-01

     total cpu time spent up to now is     1695.0 secs

     total energy              =    -859.99833904 Ry
     Harris-Foulkes estimate   =    -860.02624679 Ry
     estimated scf accuracy    <       0.00912077 Ry

     total magnetization       =     2.02 Bohr mag/cell
     absolute magnetization    =     2.34 Bohr mag/cell

     iteration # 17     ecut=    70.00 Ry     beta= 0.70
     Davidson diagonalization with overlap
     ethr =  3.73E-06,  avg # of iterations =  5.5

     negative rho (up, down):  1.219E-03 6.212E-02

     total cpu time spent up to now is     1814.1 secs

     total energy              =    -860.02073667 Ry
     Harris-Foulkes estimate   =    -860.02254616 Ry
     estimated scf accuracy    <       0.00591254 Ry

     total magnetization       =     2.00 Bohr mag/cell
     absolute magnetization    =     2.37 Bohr mag/cell

     iteration # 18     ecut=    70.00 Ry     beta= 0.70
     Davidson diagonalization with overlap
     ethr =  2.76E-06,  avg # of iterations =  5.5

     negative rho (up, down):  1.074E-03 3.666E-02

     total cpu time spent up to now is     1917.8 secs

     total energy              =    -860.02199089 Ry
     Harris-Foulkes estimate   =    -860.02211579 Ry
     estimated scf accuracy    <       0.00522673 Ry

     total magnetization       =     2.04 Bohr mag/cell
     absolute magnetization    =     2.38 Bohr mag/cell

     iteration # 19     ecut=    70.00 Ry     beta= 0.70
     Davidson diagonalization with overlap
     ethr =  2.44E-06,  avg # of iterations =  3.5

     negative rho (up, down):  8.834E-04 6.024E-02

     total cpu time spent up to now is     2008.5 secs

     total energy              =    -860.02219895 Ry
     Harris-Foulkes estimate   =    -860.02224112 Ry
     estimated scf accuracy    <       0.00286410 Ry

     total magnetization       =     2.17 Bohr mag/cell
     absolute magnetization    =     2.45 Bohr mag/cell

     iteration # 20     ecut=    70.00 Ry     beta= 0.70
     Davidson diagonalization with overlap
     ethr =  1.34E-06,  avg # of iterations =  2.0

     negative rho (up, down):  6.672E-04 6.595E-02

     total cpu time spent up to now is     2099.6 secs

     total energy              =    -860.02304606 Ry
     Harris-Foulkes estimate   =    -860.02257984 Ry
     estimated scf accuracy    <       0.00192151 Ry

     total magnetization       =     2.00 Bohr mag/cell
     absolute magnetization    =     2.32 Bohr mag/cell

     iteration # 21     ecut=    70.00 Ry     beta= 0.70
     Davidson diagonalization with overlap
     ethr =  8.98E-07,  avg # of iterations =  2.0

     negative rho (up, down):  7.673E-04 5.987E-02

     total cpu time spent up to now is     2199.7 secs

     total energy              =    -860.02366386 Ry
     Harris-Foulkes estimate   =    -860.02348052 Ry
     estimated scf accuracy    <       0.00315385 Ry

     total magnetization       =     2.00 Bohr mag/cell
     absolute magnetization    =     2.32 Bohr mag/cell

     iteration # 22     ecut=    70.00 Ry     beta= 0.70
     Davidson diagonalization with overlap
     ethr =  8.98E-07,  avg # of iterations =  2.0

     negative rho (up, down):  8.467E-04 7.118E-02

     total cpu time spent up to now is     2289.8 secs

     total energy              =    -860.02366364 Ry
     Harris-Foulkes estimate   =    -860.02373640 Ry
     estimated scf accuracy    <       0.00326238 Ry

     total magnetization       =     2.00 Bohr mag/cell
     absolute magnetization    =     2.32 Bohr mag/cell

     iteration # 23     ecut=    70.00 Ry     beta= 0.70
     Davidson diagonalization with overlap
     ethr =  8.98E-07,  avg # of iterations =  1.0

     negative rho (up, down):  1.430E-03 7.227E-02

     total cpu time spent up to now is     2377.8 secs

     total energy              =    -860.02168634 Ry
     Harris-Foulkes estimate   =    -860.02367473 Ry
     estimated scf accuracy    <       0.00317280 Ry

     total magnetization       =     2.00 Bohr mag/cell
     absolute magnetization    =     2.32 Bohr mag/cell

     iteration # 24     ecut=    70.00 Ry     beta= 0.70
     Davidson diagonalization with overlap
     ethr =  8.98E-07,  avg # of iterations =  2.5

     negative rho (up, down):  8.043E-04 8.089E-02

     total cpu time spent up to now is     2480.4 secs

     total energy              =    -860.02247357 Ry
     Harris-Foulkes estimate   =    -860.02262390 Ry
     estimated scf accuracy    <       0.00404927 Ry

     total magnetization       =     2.00 Bohr mag/cell
     absolute magnetization    =     2.34 Bohr mag/cell

     iteration # 25     ecut=    70.00 Ry     beta= 0.70
     Davidson diagonalization with overlap
     ethr =  8.98E-07,  avg # of iterations =  2.5

     negative rho (up, down):  7.519E-04 6.065E-02

     total cpu time spent up to now is     2581.8 secs

     total energy              =    -860.02346145 Ry
     Harris-Foulkes estimate   =    -860.02313645 Ry
     estimated scf accuracy    <       0.00212493 Ry

     total magnetization       =     2.01 Bohr mag/cell
     absolute magnetization    =     2.33 Bohr mag/cell

     iteration # 26     ecut=    70.00 Ry     beta= 0.70
     Davidson diagonalization with overlap
     ethr =  8.98E-07,  avg # of iterations =  2.0

     negative rho (up, down):  8.329E-04 7.834E-02

     total cpu time spent up to now is     2681.0 secs

     total energy              =    -860.02387958 Ry
     Harris-Foulkes estimate   =    -860.02399531 Ry
     estimated scf accuracy    <       0.00206229 Ry

     total magnetization       =     2.00 Bohr mag/cell
     absolute magnetization    =     2.34 Bohr mag/cell

     iteration # 27     ecut=    70.00 Ry     beta= 0.70
     Davidson diagonalization with overlap
     ethr =  8.98E-07,  avg # of iterations =  2.0

     negative rho (up, down):  9.877E-04 8.544E-02

     total cpu time spent up to now is     2769.3 secs

     total energy              =    -860.02312964 Ry
     Harris-Foulkes estimate   =    -860.02390875 Ry
     estimated scf accuracy    <       0.00206882 Ry

     total magnetization       =     2.00 Bohr mag/cell
     absolute magnetization    =     2.34 Bohr mag/cell

     iteration # 28     ecut=    70.00 Ry     beta= 0.70
     Davidson diagonalization with overlap
     ethr =  8.98E-07,  avg # of iterations =  2.0

     negative rho (up, down):  8.207E-04 8.562E-02

     total cpu time spent up to now is     2861.0 secs

     total energy              =    -860.02313260 Ry
     Harris-Foulkes estimate   =    -860.02326698 Ry
     estimated scf accuracy    <       0.00194780 Ry

     total magnetization       =     2.01 Bohr mag/cell
     absolute magnetization    =     2.33 Bohr mag/cell

     iteration # 29     ecut=    70.00 Ry     beta= 0.70
     Davidson diagonalization with overlap
     ethr =  8.98E-07,  avg # of iterations =  2.0

     negative rho (up, down):  8.484E-04 7.254E-02

     total cpu time spent up to now is     2957.8 secs

     total energy              =    -860.02254292 Ry
     Harris-Foulkes estimate   =    -860.02367223 Ry
     estimated scf accuracy    <       0.01274874 Ry

     total magnetization       =     2.11 Bohr mag/cell
     absolute magnetization    =     2.37 Bohr mag/cell

     iteration # 30     ecut=    70.00 Ry     beta= 0.70
     Davidson diagonalization with overlap
     ethr =  8.98E-07,  avg # of iterations =  2.0

     negative rho (up, down):  9.185E-04 5.788E-02

     total cpu time spent up to now is     3058.9 secs

     total energy              =    -860.02390524 Ry
     Harris-Foulkes estimate   =    -860.02377474 Ry
     estimated scf accuracy    <       0.00235069 Ry

     total magnetization       =     2.00 Bohr mag/cell
     absolute magnetization    =     2.32 Bohr mag/cell

     iteration # 31     ecut=    70.00 Ry     beta= 0.70
     Davidson diagonalization with overlap
     ethr =  8.98E-07,  avg # of iterations =  2.0

     negative rho (up, down):  9.106E-04 8.391E-02

     total cpu time spent up to now is     3152.2 secs

     total energy              =    -860.02370464 Ry
     Harris-Foulkes estimate   =    -860.02407449 Ry
     estimated scf accuracy    <       0.00359785 Ry

     total magnetization       =     2.00 Bohr mag/cell
     absolute magnetization    =     2.32 Bohr mag/cell

     iteration # 32     ecut=    70.00 Ry     beta= 0.70
     Davidson diagonalization with overlap
     ethr =  8.98E-07,  avg # of iterations =  2.0

     negative rho (up, down):  6.618E-04 1.211E-01

     total cpu time spent up to now is     3241.6 secs

     total energy              =    -860.02208284 Ry
     Harris-Foulkes estimate   =    -860.02375296 Ry
     estimated scf accuracy    <       0.00316042 Ry

     total magnetization       =     2.00 Bohr mag/cell
     absolute magnetization    =     2.32 Bohr mag/cell

     iteration # 33     ecut=    70.00 Ry     beta= 0.70
     Davidson diagonalization with overlap
     ethr =  8.98E-07,  avg # of iterations =  3.0

     negative rho (up, down):  7.575E-04 5.830E-02

     total cpu time spent up to now is     3350.1 secs

     total energy              =    -860.02329705 Ry
     Harris-Foulkes estimate   =    -860.02396984 Ry
     estimated scf accuracy    <       0.00470169 Ry

     total magnetization       =     2.00 Bohr mag/cell
     absolute magnetization    =     2.32 Bohr mag/cell

     iteration # 34     ecut=    70.00 Ry     beta= 0.70
     Davidson diagonalization with overlap
     ethr =  8.98E-07,  avg # of iterations =  3.0

     negative rho (up, down):  6.855E-04 5.448E-02

     total cpu time spent up to now is     3444.8 secs

     total energy              =    -860.02379281 Ry
     Harris-Foulkes estimate   =    -860.02381103 Ry
     estimated scf accuracy    <       0.00191292 Ry

     total magnetization       =     2.03 Bohr mag/cell
     absolute magnetization    =     2.33 Bohr mag/cell

     iteration # 35     ecut=    70.00 Ry     beta= 0.70
     Davidson diagonalization with overlap
     ethr =  8.94E-07,  avg # of iterations =  2.0

     negative rho (up, down):  7.870E-04 5.652E-02

     total cpu time spent up to now is     3542.3 secs

     total energy              =    -860.02381370 Ry
     Harris-Foulkes estimate   =    -860.02411762 Ry
     estimated scf accuracy    <       0.00123487 Ry

     total magnetization       =     2.02 Bohr mag/cell
     absolute magnetization    =     2.33 Bohr mag/cell

     iteration # 36     ecut=    70.00 Ry     beta= 0.70
     Davidson diagonalization with overlap
     ethr =  5.77E-07,  avg # of iterations =  3.0

     negative rho (up, down):  7.227E-04 3.756E-02

     total cpu time spent up to now is     3644.0 secs

     total energy              =    -860.02440129 Ry
     Harris-Foulkes estimate   =    -860.02459200 Ry
     estimated scf accuracy    <       0.00132368 Ry

     total magnetization       =     2.01 Bohr mag/cell
     absolute magnetization    =     2.32 Bohr mag/cell

     iteration # 37     ecut=    70.00 Ry     beta= 0.70
     Davidson diagonalization with overlap
     ethr =  5.77E-07,  avg # of iterations =  2.0

     negative rho (up, down):  6.562E-04 2.775E-02

     total cpu time spent up to now is     3740.3 secs

     total energy              =    -860.02456826 Ry
     Harris-Foulkes estimate   =    -860.02463243 Ry
     estimated scf accuracy    <       0.00046615 Ry

     total magnetization       =     2.02 Bohr mag/cell
     absolute magnetization    =     2.34 Bohr mag/cell

     iteration # 38     ecut=    70.00 Ry     beta= 0.70
     Davidson diagonalization with overlap
     ethr =  2.18E-07,  avg # of iterations =  2.0

     negative rho (up, down):  6.434E-04 2.400E-02

     total cpu time spent up to now is     3837.9 secs

     total energy              =    -860.02464833 Ry
     Harris-Foulkes estimate   =    -860.02464791 Ry
     estimated scf accuracy    <       0.00010710 Ry

     total magnetization       =     2.02 Bohr mag/cell
     absolute magnetization    =     2.34 Bohr mag/cell

     iteration # 39     ecut=    70.00 Ry     beta= 0.70
     Davidson diagonalization with overlap
     ethr =  5.00E-08,  avg # of iterations =  2.0

     negative rho (up, down):  6.411E-04 2.697E-02

     total cpu time spent up to now is     3932.3 secs

     total energy              =    -860.02466957 Ry
     Harris-Foulkes estimate   =    -860.02466217 Ry
     estimated scf accuracy    <       0.00008464 Ry

     total magnetization       =     2.03 Bohr mag/cell
     absolute magnetization    =     2.34 Bohr mag/cell

     iteration # 40     ecut=    70.00 Ry     beta= 0.70
     Davidson diagonalization with overlap
     ethr =  3.95E-08,  avg # of iterations =  2.0

     negative rho (up, down):  6.414E-04 2.799E-02

     total cpu time spent up to now is     4022.0 secs

     total energy              =    -860.02467957 Ry
     Harris-Foulkes estimate   =    -860.02467425 Ry
     estimated scf accuracy    <       0.00010062 Ry

     total magnetization       =     2.03 Bohr mag/cell
     absolute magnetization    =     2.35 Bohr mag/cell

     iteration # 41     ecut=    70.00 Ry     beta= 0.70
     Davidson diagonalization with overlap
     ethr =  3.95E-08,  avg # of iterations =  2.0

     negative rho (up, down):  6.405E-04 3.138E-02

     total cpu time spent up to now is     4119.9 secs

     total energy              =    -860.02468970 Ry
     Harris-Foulkes estimate   =    -860.02469707 Ry
     estimated scf accuracy    <       0.00014062 Ry

     total magnetization       =     2.04 Bohr mag/cell
     absolute magnetization    =     2.35 Bohr mag/cell

     iteration # 42     ecut=    70.00 Ry     beta= 0.70
     Davidson diagonalization with overlap
     ethr =  3.95E-08,  avg # of iterations =  2.0

     negative rho (up, down):  6.464E-04 3.326E-02

     total cpu time spent up to now is     4208.4 secs

     total energy              =    -860.02466677 Ry
     Harris-Foulkes estimate   =    -860.02469334 Ry
     estimated scf accuracy    <       0.00016545 Ry

     total magnetization       =     2.04 Bohr mag/cell
     absolute magnetization    =     2.35 Bohr mag/cell

     iteration # 43     ecut=    70.00 Ry     beta= 0.70
     Davidson diagonalization with overlap
     ethr =  3.95E-08,  avg # of iterations =  3.0

     negative rho (up, down):  6.433E-04 3.306E-02

     total cpu time spent up to now is     4311.4 secs

     total energy              =    -860.02469985 Ry
     Harris-Foulkes estimate   =    -860.02470812 Ry
     estimated scf accuracy    <       0.00041741 Ry

     total magnetization       =     2.11 Bohr mag/cell
     absolute magnetization    =     2.41 Bohr mag/cell

     iteration # 44     ecut=    70.00 Ry     beta= 0.70
     Davidson diagonalization with overlap
     ethr =  3.95E-08,  avg # of iterations =  2.5

     negative rho (up, down):  6.463E-04 3.712E-02

     total cpu time spent up to now is     4401.5 secs

     total energy              =    -860.02468394 Ry
     Harris-Foulkes estimate   =    -860.02470888 Ry
     estimated scf accuracy    <       0.00035048 Ry

     total magnetization       =     2.06 Bohr mag/cell
     absolute magnetization    =     2.36 Bohr mag/cell

     iteration # 45     ecut=    70.00 Ry     beta= 0.70
     Davidson diagonalization with overlap
     ethr =  3.95E-08,  avg # of iterations =  2.0

     negative rho (up, down):  6.403E-04 2.970E-02

     total cpu time spent up to now is     4491.0 secs

     total energy              =    -860.02471949 Ry
     Harris-Foulkes estimate   =    -860.02468914 Ry
     estimated scf accuracy    <       0.00022391 Ry

     total magnetization       =     2.04 Bohr mag/cell
     absolute magnetization    =     2.35 Bohr mag/cell

     iteration # 46     ecut=    70.00 Ry     beta= 0.70
     Davidson diagonalization with overlap
     ethr =  3.95E-08,  avg # of iterations =  2.0

     negative rho (up, down):  6.463E-04 3.829E-02

     total cpu time spent up to now is     4587.3 secs

     total energy              =    -860.02472968 Ry
     Harris-Foulkes estimate   =    -860.02474237 Ry
     estimated scf accuracy    <       0.00027962 Ry

     total magnetization       =     2.08 Bohr mag/cell
     absolute magnetization    =     2.39 Bohr mag/cell

     iteration # 47     ecut=    70.00 Ry     beta= 0.70
     Davidson diagonalization with overlap
     ethr =  3.95E-08,  avg # of iterations =  1.0

     negative rho (up, down):  6.554E-04 5.174E-02

     total cpu time spent up to now is     4675.4 secs

     total energy              =    -860.02460946 Ry
     Harris-Foulkes estimate   =    -860.02473043 Ry
     estimated scf accuracy    <       0.00026773 Ry

     total magnetization       =     2.09 Bohr mag/cell
     absolute magnetization    =     2.39 Bohr mag/cell

     iteration # 48     ecut=    70.00 Ry     beta= 0.70
     Davidson diagonalization with overlap
     ethr =  3.95E-08,  avg # of iterations =  2.5

     negative rho (up, down):  6.602E-04 4.715E-02

     total cpu time spent up to now is     4778.2 secs

     total energy              =    -860.02457264 Ry
     Harris-Foulkes estimate   =    -860.02465580 Ry
     estimated scf accuracy    <       0.00028078 Ry

     total magnetization       =     2.07 Bohr mag/cell
     absolute magnetization    =     2.37 Bohr mag/cell

     iteration # 49     ecut=    70.00 Ry     beta= 0.70
     Davidson diagonalization with overlap
     ethr =  3.95E-08,  avg # of iterations =  3.0

     negative rho (up, down):  6.467E-04 3.059E-02

     total cpu time spent up to now is     4881.2 secs

     total energy              =    -860.02462739 Ry
     Harris-Foulkes estimate   =    -860.02461888 Ry
     estimated scf accuracy    <       0.00011813 Ry

     total magnetization       =     2.03 Bohr mag/cell
     absolute magnetization    =     2.35 Bohr mag/cell

     iteration # 50     ecut=    70.00 Ry     beta= 0.70
     Davidson diagonalization with overlap
     ethr =  3.95E-08,  avg # of iterations =  2.0

     negative rho (up, down):  6.446E-04 2.712E-02

     total cpu time spent up to now is     4970.5 secs

     total energy              =    -860.02462925 Ry
     Harris-Foulkes estimate   =    -860.02463290 Ry
     estimated scf accuracy    <       0.00007899 Ry

     total magnetization       =     2.04 Bohr mag/cell
     absolute magnetization    =     2.36 Bohr mag/cell

     iteration # 51     ecut=    70.00 Ry     beta= 0.70
     Davidson diagonalization with overlap
     ethr =  3.69E-08,  avg # of iterations =  2.0

     negative rho (up, down):  6.414E-04 2.459E-02

     total cpu time spent up to now is     5063.5 secs

     total energy              =    -860.02463452 Ry
     Harris-Foulkes estimate   =    -860.02463809 Ry
     estimated scf accuracy    <       0.00007574 Ry

     total magnetization       =     2.05 Bohr mag/cell
     absolute magnetization    =     2.37 Bohr mag/cell

     iteration # 52     ecut=    70.00 Ry     beta= 0.70
     Davidson diagonalization with overlap
     ethr =  3.54E-08,  avg # of iterations =  2.0

     negative rho (up, down):  6.463E-04 2.782E-02

     total cpu time spent up to now is     5157.5 secs

     total energy              =    -860.02463473 Ry
     Harris-Foulkes estimate   =    -860.02464510 Ry
     estimated scf accuracy    <       0.00010455 Ry

     total magnetization       =     2.05 Bohr mag/cell
     absolute magnetization    =     2.36 Bohr mag/cell

     iteration # 53     ecut=    70.00 Ry     beta= 0.70
     Davidson diagonalization with overlap
     ethr =  3.54E-08,  avg # of iterations =  2.0

     negative rho (up, down):  6.487E-04 2.944E-02

     total cpu time spent up to now is     5246.4 secs

     total energy              =    -860.02462713 Ry
     Harris-Foulkes estimate   =    -860.02463783 Ry
     estimated scf accuracy    <       0.00011732 Ry

     total magnetization       =     2.04 Bohr mag/cell
     absolute magnetization    =     2.35 Bohr mag/cell

     iteration # 54     ecut=    70.00 Ry     beta= 0.70
     Davidson diagonalization with overlap
     ethr =  3.54E-08,  avg # of iterations =  1.0

     negative rho (up, down):  6.421E-04 2.497E-02

     total cpu time spent up to now is     5334.5 secs

     total energy              =    -860.02463858 Ry
     Harris-Foulkes estimate   =    -860.02462939 Ry
     estimated scf accuracy    <       0.00007308 Ry

     total magnetization       =     2.04 Bohr mag/cell
     absolute magnetization    =     2.35 Bohr mag/cell

     iteration # 55     ecut=    70.00 Ry     beta= 0.70
     Davidson diagonalization with overlap
     ethr =  3.41E-08,  avg # of iterations =  2.0

     negative rho (up, down):  6.419E-04 2.540E-02

     total cpu time spent up to now is     5430.2 secs

     total energy              =    -860.02464620 Ry
     Harris-Foulkes estimate   =    -860.02464970 Ry
     estimated scf accuracy    <       0.00015199 Ry

     total magnetization       =     2.05 Bohr mag/cell
     absolute magnetization    =     2.36 Bohr mag/cell

     iteration # 56     ecut=    70.00 Ry     beta= 0.70
     Davidson diagonalization with overlap
     ethr =  3.41E-08,  avg # of iterations =  2.0

     negative rho (up, down):  6.419E-04 2.689E-02

     total cpu time spent up to now is     5520.4 secs

     total energy              =    -860.02464116 Ry
     Harris-Foulkes estimate   =    -860.02465163 Ry
     estimated scf accuracy    <       0.00006801 Ry

     total magnetization       =     2.05 Bohr mag/cell
     absolute magnetization    =     2.37 Bohr mag/cell

     iteration # 57     ecut=    70.00 Ry     beta= 0.70
     Davidson diagonalization with overlap
     ethr =  3.18E-08,  avg # of iterations =  2.0

     negative rho (up, down):  6.427E-04 2.892E-02

     total cpu time spent up to now is     5621.8 secs

     total energy              =    -860.02464576 Ry
     Harris-Foulkes estimate   =    -860.02467239 Ry
     estimated scf accuracy    <       0.00006944 Ry

     total magnetization       =     2.04 Bohr mag/cell
     absolute magnetization    =     2.36 Bohr mag/cell

     iteration # 58     ecut=    70.00 Ry     beta= 0.70
     Davidson diagonalization with overlap
     ethr =  3.18E-08,  avg # of iterations =  2.0

     negative rho (up, down):  6.387E-04 2.594E-02

     total cpu time spent up to now is     5715.0 secs

     total energy              =    -860.02465774 Ry
     Harris-Foulkes estimate   =    -860.02465433 Ry
     estimated scf accuracy    <       0.00005046 Ry

     total magnetization       =     2.03 Bohr mag/cell
     absolute magnetization    =     2.35 Bohr mag/cell

     iteration # 59     ecut=    70.00 Ry     beta= 0.70
     Davidson diagonalization with overlap
     ethr =  2.36E-08,  avg # of iterations =  2.0

     negative rho (up, down):  6.419E-04 3.080E-02

     total cpu time spent up to now is     5812.0 secs

     total energy              =    -860.02464461 Ry
     Harris-Foulkes estimate   =    -860.02466853 Ry
     estimated scf accuracy    <       0.00008127 Ry

     total magnetization       =     2.04 Bohr mag/cell
     absolute magnetization    =     2.36 Bohr mag/cell

     iteration # 60     ecut=    70.00 Ry     beta= 0.70
     Davidson diagonalization with overlap
     ethr =  2.36E-08,  avg # of iterations =  2.0

     negative rho (up, down):  6.414E-04 2.818E-02

     total cpu time spent up to now is     5909.7 secs

     total energy              =    -860.02464831 Ry
     Harris-Foulkes estimate   =    -860.02465322 Ry
     estimated scf accuracy    <       0.00008123 Ry

     total magnetization       =     2.03 Bohr mag/cell
     absolute magnetization    =     2.35 Bohr mag/cell

     iteration # 61     ecut=    70.00 Ry     beta= 0.70
     Davidson diagonalization with overlap
     ethr =  2.36E-08,  avg # of iterations =  2.0

     negative rho (up, down):  6.469E-04 3.166E-02

     total cpu time spent up to now is     6001.7 secs

     total energy              =    -860.02463112 Ry
     Harris-Foulkes estimate   =    -860.02465458 Ry
     estimated scf accuracy    <       0.00010335 Ry

     total magnetization       =     2.07 Bohr mag/cell
     absolute magnetization    =     2.38 Bohr mag/cell

     iteration # 62     ecut=    70.00 Ry     beta= 0.70
     Davidson diagonalization with overlap
     ethr =  2.36E-08,  avg # of iterations =  2.0

     negative rho (up, down):  6.438E-04 2.806E-02

     total cpu time spent up to now is     6100.3 secs

     total energy              =    -860.02464326 Ry
     Harris-Foulkes estimate   =    -860.02464279 Ry
     estimated scf accuracy    <       0.00009302 Ry

     total magnetization       =     2.08 Bohr mag/cell
     absolute magnetization    =     2.39 Bohr mag/cell

     iteration # 63     ecut=    70.00 Ry     beta= 0.70
     Davidson diagonalization with overlap
     ethr =  2.36E-08,  avg # of iterations =  2.0

     negative rho (up, down):  6.384E-04 2.204E-02

     total cpu time spent up to now is     6191.8 secs

     total energy              =    -860.02466057 Ry
     Harris-Foulkes estimate   =    -860.02465407 Ry
     estimated scf accuracy    <       0.00021079 Ry

     total magnetization       =     2.08 Bohr mag/cell
     absolute magnetization    =     2.39 Bohr mag/cell

     iteration # 64     ecut=    70.00 Ry     beta= 0.70
     Davidson diagonalization with overlap
     ethr =  2.36E-08,  avg # of iterations =  3.0

     negative rho (up, down):  6.421E-04 2.920E-02

     total cpu time spent up to now is     6296.6 secs

     total energy              =    -860.02468808 Ry
     Harris-Foulkes estimate   =    -860.02469291 Ry
     estimated scf accuracy    <       0.00016385 Ry

     total magnetization       =     2.05 Bohr mag/cell
     absolute magnetization    =     2.37 Bohr mag/cell

     iteration # 65     ecut=    70.00 Ry     beta= 0.70
     Davidson diagonalization with overlap
     ethr =  2.36E-08,  avg # of iterations =  1.0

     negative rho (up, down):  6.434E-04 3.125E-02

     total cpu time spent up to now is     6384.6 secs

     total energy              =    -860.02469489 Ry
     Harris-Foulkes estimate   =    -860.02468868 Ry
     estimated scf accuracy    <       0.00019366 Ry

     total magnetization       =     2.05 Bohr mag/cell
     absolute magnetization    =     2.37 Bohr mag/cell

     iteration # 66     ecut=    70.00 Ry     beta= 0.70
     Davidson diagonalization with overlap
     ethr =  2.36E-08,  avg # of iterations =  2.0

     negative rho (up, down):  6.449E-04 3.394E-02

     total cpu time spent up to now is     6474.1 secs

     total energy              =    -860.02469122 Ry
     Harris-Foulkes estimate   =    -860.02469714 Ry
     estimated scf accuracy    <       0.00021705 Ry

     total magnetization       =     2.07 Bohr mag/cell
     absolute magnetization    =     2.38 Bohr mag/cell

     iteration # 67     ecut=    70.00 Ry     beta= 0.70
     Davidson diagonalization with overlap
     ethr =  2.36E-08,  avg # of iterations =  2.0

     negative rho (up, down):  6.434E-04 3.434E-02

     total cpu time spent up to now is     6562.8 secs

     total energy              =    -860.02468574 Ry
     Harris-Foulkes estimate   =    -860.02469263 Ry
     estimated scf accuracy    <       0.00018256 Ry

     total magnetization       =     2.07 Bohr mag/cell
     absolute magnetization    =     2.38 Bohr mag/cell

     iteration # 68     ecut=    70.00 Ry     beta= 0.70
     Davidson diagonalization with overlap
     ethr =  2.36E-08,  avg # of iterations =  2.0

     negative rho (up, down):  6.427E-04 3.432E-02

     total cpu time spent up to now is     6656.4 secs

     total energy              =    -860.02466171 Ry
     Harris-Foulkes estimate   =    -860.02469101 Ry
     estimated scf accuracy    <       0.00019999 Ry

     total magnetization       =     2.04 Bohr mag/cell
     absolute magnetization    =     2.36 Bohr mag/cell

     iteration # 69     ecut=    70.00 Ry     beta= 0.70
     Davidson diagonalization with overlap
     ethr =  2.36E-08,  avg # of iterations =  2.5

     negative rho (up, down):  6.409E-04 3.394E-02

     total cpu time spent up to now is     6759.0 secs

     total energy              =    -860.02463044 Ry
     Harris-Foulkes estimate   =    -860.02467506 Ry
     estimated scf accuracy    <       0.00021023 Ry

     total magnetization       =     2.03 Bohr mag/cell
     absolute magnetization    =     2.35 Bohr mag/cell

     iteration # 70     ecut=    70.00 Ry     beta= 0.70
     Davidson diagonalization with overlap
     ethr =  2.36E-08,  avg # of iterations =  3.0

     negative rho (up, down):  6.405E-04 2.582E-02

     total cpu time spent up to now is     6866.5 secs

     total energy              =    -860.02465872 Ry
     Harris-Foulkes estimate   =    -860.02465804 Ry
     estimated scf accuracy    <       0.00019259 Ry

     total magnetization       =     2.01 Bohr mag/cell
     absolute magnetization    =     2.32 Bohr mag/cell

     iteration # 71     ecut=    70.00 Ry     beta= 0.70
     Davidson diagonalization with overlap
     ethr =  2.36E-08,  avg # of iterations =  2.0

     negative rho (up, down):  6.408E-04 2.440E-02

     total cpu time spent up to now is     6955.0 secs

     total energy              =    -860.02466033 Ry
     Harris-Foulkes estimate   =    -860.02466038 Ry
     estimated scf accuracy    <       0.00018926 Ry

     total magnetization       =     2.01 Bohr mag/cell
     absolute magnetization    =     2.32 Bohr mag/cell

     iteration # 72     ecut=    70.00 Ry     beta= 0.70
     Davidson diagonalization with overlap
     ethr =  2.36E-08,  avg # of iterations =  1.0

     negative rho (up, down):  6.408E-04 2.481E-02

     total cpu time spent up to now is     7043.0 secs

     total energy              =    -860.02463622 Ry
     Harris-Foulkes estimate   =    -860.02466066 Ry
     estimated scf accuracy    <       0.00016284 Ry

     total magnetization       =     2.00 Bohr mag/cell
     absolute magnetization    =     2.32 Bohr mag/cell

     iteration # 73     ecut=    70.00 Ry     beta= 0.70
     Davidson diagonalization with overlap
     ethr =  2.36E-08,  avg # of iterations =  3.0

     negative rho (up, down):  6.390E-04 2.319E-02

     total cpu time spent up to now is     7152.5 secs

     total energy              =    -860.02465130 Ry
     Harris-Foulkes estimate   =    -860.02466144 Ry
     estimated scf accuracy    <       0.00027908 Ry

     total magnetization       =     2.01 Bohr mag/cell
     absolute magnetization    =     2.31 Bohr mag/cell

     iteration # 74     ecut=    70.00 Ry     beta= 0.70
     Davidson diagonalization with overlap
     ethr =  2.36E-08,  avg # of iterations =  3.0

     negative rho (up, down):  6.382E-04 2.479E-02

     total cpu time spent up to now is     7269.8 secs

     total energy              =    -860.02466069 Ry
     Harris-Foulkes estimate   =    -860.02469434 Ry
     estimated scf accuracy    <       0.00011676 Ry

     total magnetization       =     2.00 Bohr mag/cell
     absolute magnetization    =     2.30 Bohr mag/cell

     iteration # 75     ecut=    70.00 Ry     beta= 0.70
     Davidson diagonalization with overlap
     ethr =  2.36E-08,  avg # of iterations =  2.5

     negative rho (up, down):  6.387E-04 2.343E-02

     total cpu time spent up to now is     7373.8 secs

     total energy              =    -860.02467093 Ry
     Harris-Foulkes estimate   =    -860.02468485 Ry
     estimated scf accuracy    <       0.00022445 Ry

     total magnetization       =     2.00 Bohr mag/cell
     absolute magnetization    =     2.29 Bohr mag/cell

     iteration # 76     ecut=    70.00 Ry     beta= 0.70
     Davidson diagonalization with overlap
     ethr =  2.36E-08,  avg # of iterations =  1.5

     negative rho (up, down):  6.391E-04 2.568E-02

     total cpu time spent up to now is     7461.9 secs

     total energy              =    -860.02466501 Ry
     Harris-Foulkes estimate   =    -860.02467756 Ry
     estimated scf accuracy    <       0.00004172 Ry

     total magnetization       =     2.00 Bohr mag/cell
     absolute magnetization    =     2.29 Bohr mag/cell

     iteration # 77     ecut=    70.00 Ry     beta= 0.70
     Davidson diagonalization with overlap
     ethr =  1.95E-08,  avg # of iterations =  2.5

     negative rho (up, down):  6.385E-04 2.257E-02

     total cpu time spent up to now is     7566.6 secs

     total energy              =    -860.02468142 Ry
     Harris-Foulkes estimate   =    -860.02468157 Ry
     estimated scf accuracy    <       0.00002727 Ry

     total magnetization       =     2.00 Bohr mag/cell
     absolute magnetization    =     2.29 Bohr mag/cell

     iteration # 78     ecut=    70.00 Ry     beta= 0.70
     Davidson diagonalization with overlap
     ethr =  1.27E-08,  avg # of iterations =  2.0

     negative rho (up, down):  6.393E-04 2.518E-02

     total cpu time spent up to now is     7655.9 secs

     total energy              =    -860.02466805 Ry
     Harris-Foulkes estimate   =    -860.02468358 Ry
     estimated scf accuracy    <       0.00002258 Ry

     total magnetization       =     2.00 Bohr mag/cell
     absolute magnetization    =     2.29 Bohr mag/cell

     iteration # 79     ecut=    70.00 Ry     beta= 0.70
     Davidson diagonalization with overlap
     ethr =  1.05E-08,  avg # of iterations =  3.0

     negative rho (up, down):  6.390E-04 2.296E-02

     total cpu time spent up to now is     7762.2 secs

     total energy              =    -860.02467886 Ry
     Harris-Foulkes estimate   =    -860.02467787 Ry
     estimated scf accuracy    <       0.00004745 Ry

     total magnetization       =     2.00 Bohr mag/cell
     absolute magnetization    =     2.30 Bohr mag/cell

     iteration # 80     ecut=    70.00 Ry     beta= 0.70
     Davidson diagonalization with overlap
     ethr =  1.05E-08,  avg # of iterations =  3.0

     negative rho (up, down):  6.394E-04 2.411E-02

     total cpu time spent up to now is     7859.9 secs

     total energy              =    -860.02468514 Ry
     Harris-Foulkes estimate   =    -860.02468508 Ry
     estimated scf accuracy    <       0.00006329 Ry

     total magnetization       =     2.00 Bohr mag/cell
     absolute magnetization    =     2.29 Bohr mag/cell

     iteration # 81     ecut=    70.00 Ry     beta= 0.70
     Davidson diagonalization with overlap
     ethr =  1.05E-08,  avg # of iterations =  2.0

     negative rho (up, down):  6.396E-04 2.552E-02

     total cpu time spent up to now is     7948.6 secs

     total energy              =    -860.02468125 Ry
     Harris-Foulkes estimate   =    -860.02468570 Ry
     estimated scf accuracy    <       0.00005949 Ry

     total magnetization       =     2.00 Bohr mag/cell
     absolute magnetization    =     2.29 Bohr mag/cell

     iteration # 82     ecut=    70.00 Ry     beta= 0.70
     Davidson diagonalization with overlap
     ethr =  1.05E-08,  avg # of iterations =  2.0

     negative rho (up, down):  6.400E-04 2.441E-02

     total cpu time spent up to now is     8041.4 secs

     total energy              =    -860.02468787 Ry
     Harris-Foulkes estimate   =    -860.02468312 Ry
     estimated scf accuracy    <       0.00004954 Ry

     total magnetization       =     2.00 Bohr mag/cell
     absolute magnetization    =     2.29 Bohr mag/cell

     iteration # 83     ecut=    70.00 Ry     beta= 0.70
     Davidson diagonalization with overlap
     ethr =  1.05E-08,  avg # of iterations =  3.0

     negative rho (up, down):  6.407E-04 2.604E-02

     total cpu time spent up to now is     8140.9 secs

     total energy              =    -860.02469404 Ry
     Harris-Foulkes estimate   =    -860.02469295 Ry
     estimated scf accuracy    <       0.00012610 Ry

     total magnetization       =     2.00 Bohr mag/cell
     absolute magnetization    =     2.29 Bohr mag/cell

     iteration # 84     ecut=    70.00 Ry     beta= 0.70
     Davidson diagonalization with overlap
     ethr =  1.05E-08,  avg # of iterations =  1.5

     negative rho (up, down):  6.415E-04 2.811E-02

     total cpu time spent up to now is     8229.5 secs

     total energy              =    -860.02468602 Ry
     Harris-Foulkes estimate   =    -860.02469483 Ry
     estimated scf accuracy    <       0.00012559 Ry

     total magnetization       =     2.00 Bohr mag/cell
     absolute magnetization    =     2.29 Bohr mag/cell

     iteration # 85     ecut=    70.00 Ry     beta= 0.70
     Davidson diagonalization with overlap
     ethr =  1.05E-08,  avg # of iterations =  2.0

     negative rho (up, down):  6.415E-04 2.727E-02

     total cpu time spent up to now is     8319.9 secs

     total energy              =    -860.02468651 Ry
     Harris-Foulkes estimate   =    -860.02468745 Ry
     estimated scf accuracy    <       0.00009335 Ry

     total magnetization       =     2.00 Bohr mag/cell
     absolute magnetization    =     2.29 Bohr mag/cell

     iteration # 86     ecut=    70.00 Ry     beta= 0.70
     Davidson diagonalization with overlap
     ethr =  1.05E-08,  avg # of iterations =  1.0

     negative rho (up, down):  6.415E-04 2.630E-02

     total cpu time spent up to now is     8408.0 secs

     total energy              =    -860.02468672 Ry
     Harris-Foulkes estimate   =    -860.02468886 Ry
     estimated scf accuracy    <       0.00017847 Ry

     total magnetization       =     2.00 Bohr mag/cell
     absolute magnetization    =     2.29 Bohr mag/cell

     iteration # 87     ecut=    70.00 Ry     beta= 0.70
     Davidson diagonalization with overlap
     ethr =  1.05E-08,  avg # of iterations =  2.0

     negative rho (up, down):  6.402E-04 2.672E-02

     total cpu time spent up to now is     8507.9 secs

     total energy              =    -860.02468553 Ry
     Harris-Foulkes estimate   =    -860.02469276 Ry
     estimated scf accuracy    <       0.00007011 Ry

     total magnetization       =     2.00 Bohr mag/cell
     absolute magnetization    =     2.29 Bohr mag/cell

     iteration # 88     ecut=    70.00 Ry     beta= 0.70
     Davidson diagonalization with overlap
     ethr =  1.05E-08,  avg # of iterations =  3.0

     negative rho (up, down):  6.402E-04 2.500E-02

     total cpu time spent up to now is     8612.3 secs

     total energy              =    -860.02469185 Ry
     Harris-Foulkes estimate   =    -860.02469301 Ry
     estimated scf accuracy    <       0.00008905 Ry

     total magnetization       =     2.00 Bohr mag/cell
     absolute magnetization    =     2.29 Bohr mag/cell

     iteration # 89     ecut=    70.00 Ry     beta= 0.70
     Davidson diagonalization with overlap
     ethr =  1.05E-08,  avg # of iterations =  3.0

     negative rho (up, down):  6.400E-04 2.553E-02

     total cpu time spent up to now is     8713.5 secs

     total energy              =    -860.02469839 Ry
     Harris-Foulkes estimate   =    -860.02470050 Ry
     estimated scf accuracy    <       0.00012816 Ry

     total magnetization       =     2.00 Bohr mag/cell
     absolute magnetization    =     2.29 Bohr mag/cell

     iteration # 90     ecut=    70.00 Ry     beta= 0.70
     Davidson diagonalization with overlap
     ethr =  1.05E-08,  avg # of iterations =  2.0

     negative rho (up, down):  6.395E-04 2.677E-02

     total cpu time spent up to now is     8810.2 secs

     total energy              =    -860.02469876 Ry
     Harris-Foulkes estimate   =    -860.02470216 Ry
     estimated scf accuracy    <       0.00008948 Ry

     total magnetization       =     2.00 Bohr mag/cell
     absolute magnetization    =     2.29 Bohr mag/cell

     iteration # 91     ecut=    70.00 Ry     beta= 0.70
     Davidson diagonalization with overlap
     ethr =  1.05E-08,  avg # of iterations =  2.5

     negative rho (up, down):  6.393E-04 2.648E-02

     total cpu time spent up to now is     8910.0 secs

     total energy              =    -860.02470211 Ry
     Harris-Foulkes estimate   =    -860.02470480 Ry
     estimated scf accuracy    <       0.00009590 Ry

     total magnetization       =     2.00 Bohr mag/cell
     absolute magnetization    =     2.28 Bohr mag/cell

     iteration # 92     ecut=    70.00 Ry     beta= 0.70
     Davidson diagonalization with overlap
     ethr =  1.05E-08,  avg # of iterations =  1.5

     negative rho (up, down):  6.393E-04 2.703E-02

     total cpu time spent up to now is     8998.1 secs

     total energy              =    -860.02470347 Ry
     Harris-Foulkes estimate   =    -860.02470388 Ry
     estimated scf accuracy    <       0.00006560 Ry

     total magnetization       =     2.00 Bohr mag/cell
     absolute magnetization    =     2.28 Bohr mag/cell

     iteration # 93     ecut=    70.00 Ry     beta= 0.70
     Davidson diagonalization with overlap
     ethr =  1.05E-08,  avg # of iterations =  2.0

     negative rho (up, down):  6.392E-04 2.776E-02

     total cpu time spent up to now is     9087.8 secs

     total energy              =    -860.02469928 Ry
     Harris-Foulkes estimate   =    -860.02470466 Ry
     estimated scf accuracy    <       0.00005785 Ry

     total magnetization       =     2.00 Bohr mag/cell
     absolute magnetization    =     2.28 Bohr mag/cell

     iteration # 94     ecut=    70.00 Ry     beta= 0.70
     Davidson diagonalization with overlap
     ethr =  1.05E-08,  avg # of iterations =  3.0

     negative rho (up, down):  6.393E-04 2.710E-02

     total cpu time spent up to now is     9192.8 secs

     total energy              =    -860.02469725 Ry
     Harris-Foulkes estimate   =    -860.02470619 Ry
     estimated scf accuracy    <       0.00005509 Ry

     total magnetization       =     2.00 Bohr mag/cell
     absolute magnetization    =     2.28 Bohr mag/cell

     iteration # 95     ecut=    70.00 Ry     beta= 0.70
     Davidson diagonalization with overlap
     ethr =  1.05E-08,  avg # of iterations =  3.0

     negative rho (up, down):  6.395E-04 2.686E-02

     total cpu time spent up to now is     9291.4 secs

     total energy              =    -860.02469866 Ry
     Harris-Foulkes estimate   =    -860.02470616 Ry
     estimated scf accuracy    <       0.00007380 Ry

     total magnetization       =     2.00 Bohr mag/cell
     absolute magnetization    =     2.28 Bohr mag/cell

     iteration # 96     ecut=    70.00 Ry     beta= 0.70
     Davidson diagonalization with overlap
     ethr =  1.05E-08,  avg # of iterations =  2.0

     negative rho (up, down):  6.400E-04 2.977E-02

     total cpu time spent up to now is     9384.2 secs

     total energy              =    -860.02467241 Ry
     Harris-Foulkes estimate   =    -860.02470329 Ry
     estimated scf accuracy    <       0.00004987 Ry

     total magnetization       =     2.00 Bohr mag/cell
     absolute magnetization    =     2.27 Bohr mag/cell

     iteration # 97     ecut=    70.00 Ry     beta= 0.70
     Davidson diagonalization with overlap
     ethr =  1.05E-08,  avg # of iterations =  3.0

     negative rho (up, down):  6.394E-04 2.618E-02

     total cpu time spent up to now is     9508.3 secs

     total energy              =    -860.02469349 Ry
     Harris-Foulkes estimate   =    -860.02471333 Ry
     estimated scf accuracy    <       0.00006156 Ry

     total magnetization       =     2.00 Bohr mag/cell
     absolute magnetization    =     2.26 Bohr mag/cell

     iteration # 98     ecut=    70.00 Ry     beta= 0.70
     Davidson diagonalization with overlap
     ethr =  1.05E-08,  avg # of iterations =  3.0

     negative rho (up, down):  6.403E-04 2.564E-02

     total cpu time spent up to now is     9615.7 secs

     total energy              =    -860.02470090 Ry
     Harris-Foulkes estimate   =    -860.02470548 Ry
     estimated scf accuracy    <       0.00006440 Ry

     total magnetization       =     2.00 Bohr mag/cell
     absolute magnetization    =     2.26 Bohr mag/cell

     iteration # 99     ecut=    70.00 Ry     beta= 0.70
     Davidson diagonalization with overlap
     ethr =  1.05E-08,  avg # of iterations =  3.0

     negative rho (up, down):  6.404E-04 2.371E-02

     total cpu time spent up to now is     9713.3 secs

     total energy              =    -860.02470609 Ry
     Harris-Foulkes estimate   =    -860.02470589 Ry
     estimated scf accuracy    <       0.00008417 Ry

     total magnetization       =     2.00 Bohr mag/cell
     absolute magnetization    =     2.26 Bohr mag/cell

     iteration #100     ecut=    70.00 Ry     beta= 0.70
     Davidson diagonalization with overlap
     ethr =  1.05E-08,  avg # of iterations =  3.0

     negative rho (up, down):  6.402E-04 2.461E-02

     Magnetic moment per site:
     atom:    1    charge:    0.2182    magn:   -0.0033    constr:    0.0000
     atom:    2    charge:    0.2092    magn:    0.0328    constr:    0.0000
     atom:    3    charge:    1.7161    magn:   -0.0027    constr:    0.0000
     atom:    4    charge:    1.7159    magn:    0.0073    constr:    0.0000
     atom:    5    charge:    1.7167    magn:    0.0036    constr:    0.0000
     atom:    6    charge:    1.7149    magn:    0.0006    constr:    0.0000
     atom:    7    charge:    1.7169    magn:    0.0009    constr:    0.0000
     atom:    8    charge:    1.7163    magn:    0.0051    constr:    0.0000
     atom:    9    charge:    1.7155    magn:   -0.0006    constr:    0.0000
     atom:   10    charge:    1.7180    magn:    0.0245    constr:    0.0000
     atom:   11    charge:    1.7154    magn:   -0.0051    constr:    0.0000
     atom:   12    charge:    1.7173    magn:    0.0285    constr:    0.0000
     atom:   13    charge:    1.7154    magn:   -0.0051    constr:    0.0000
     atom:   14    charge:    1.7183    magn:    0.0138    constr:    0.0000
     atom:   15    charge:    1.7123    magn:   -0.0009    constr:    0.0000
     atom:   16    charge:    1.7162    magn:    0.0162    constr:    0.0000
     atom:   17    charge:    1.7200    magn:    0.0084    constr:    0.0000
     atom:   18    charge:    1.7145    magn:    0.0302    constr:    0.0000
     atom:   19    charge:    1.7131    magn:   -0.0049    constr:    0.0000
     atom:   20    charge:    1.7167    magn:    0.0302    constr:    0.0000
     atom:   21    charge:    1.7158    magn:   -0.0074    constr:    0.0000
     atom:   22    charge:    1.7180    magn:    0.0245    constr:    0.0000
     atom:   23    charge:    1.7155    magn:   -0.0006    constr:    0.0000
     atom:   24    charge:    1.7161    magn:    0.0057    constr:    0.0000
     atom:   25    charge:    1.7124    magn:   -0.0023    constr:    0.0000
     atom:   26    charge:    1.7166    magn:    0.0143    constr:    0.0000
     atom:   27    charge:    1.8498    magn:    0.0123    constr:    0.0000
     atom:   28    charge:   11.1692    magn:    0.4705    constr:    0.0000
     atom:   29    charge:    1.8517    magn:    0.0006    constr:    0.0000
     atom:   30    charge:    1.7145    magn:    0.0302    constr:    0.0000
     atom:   31    charge:    1.7131    magn:   -0.0049    constr:    0.0000
     atom:   32    charge:    1.7163    magn:    0.0051    constr:    0.0000
     atom:   33    charge:    1.7169    magn:    0.0009    constr:    0.0000
     atom:   34    charge:    1.7158    magn:    0.0023    constr:    0.0000
     atom:   35    charge:    1.7165    magn:    0.0039    constr:    0.0000
     atom:   36    charge:    1.7152    magn:   -0.0018    constr:    0.0000
     atom:   37    charge:    1.7188    magn:    0.0172    constr:    0.0000
     atom:   38    charge:    1.7166    magn:    0.0143    constr:    0.0000
     atom:   39    charge:    1.8498    magn:    0.0123    constr:    0.0000
     atom:   40    charge:    1.7162    magn:    0.0162    constr:    0.0000
     atom:   41    charge:    1.7200    magn:    0.0084    constr:    0.0000
     atom:   42    charge:    1.7149    magn:    0.0006    constr:    0.0000
     atom:   43    charge:    1.7167    magn:    0.0036    constr:    0.0000
     atom:   44    charge:    1.7158    magn:    0.0016    constr:    0.0000
     atom:   45    charge:    1.7197    magn:    0.0220    constr:    0.0000
     atom:   46    charge:    1.7158    magn:    0.0023    constr:    0.0000
     atom:   47    charge:    1.7165    magn:    0.0039    constr:    0.0000
     atom:   48    charge:    1.7161    magn:    0.0057    constr:    0.0000
     atom:   49    charge:    1.7124    magn:   -0.0023    constr:    0.0000
     atom:   50    charge:    1.7183    magn:    0.0138    constr:    0.0000
     atom:   51    charge:    1.7123    magn:   -0.0009    constr:    0.0000
     atom:   52    charge:    1.7159    magn:    0.0073    constr:    0.0000

     total cpu time spent up to now is     9815.6 secs

     total energy              =    -860.02471291 Ry
     Harris-Foulkes estimate   =    -860.02471322 Ry
     estimated scf accuracy    <       0.00006803 Ry

     total magnetization       =     2.00 Bohr mag/cell
     absolute magnetization    =     2.26 Bohr mag/cell

     iteration #101     ecut=    70.00 Ry     beta= 0.70
     Davidson diagonalization with overlap
     ethr =  1.05E-08,  avg # of iterations =  2.0

     negative rho (up, down):  6.404E-04 2.430E-02

     total cpu time spent up to now is     9905.0 secs

     total energy              =    -860.02471589 Ry
     Harris-Foulkes estimate   =    -860.02471436 Ry
     estimated scf accuracy    <       0.00004741 Ry

     total magnetization       =     2.00 Bohr mag/cell
     absolute magnetization    =     2.26 Bohr mag/cell

     iteration #102     ecut=    70.00 Ry     beta= 0.70
     Davidson diagonalization with overlap
     ethr =  1.05E-08,  avg # of iterations =  2.0

     negative rho (up, down):  6.399E-04 2.620E-02

     total cpu time spent up to now is    10003.6 secs

     total energy              =    -860.02471859 Ry
     Harris-Foulkes estimate   =    -860.02472085 Ry
     estimated scf accuracy    <       0.00007898 Ry

     total magnetization       =     2.00 Bohr mag/cell
     absolute magnetization    =     2.26 Bohr mag/cell

     iteration #103     ecut=    70.00 Ry     beta= 0.70
     Davidson diagonalization with overlap
     ethr =  1.05E-08,  avg # of iterations =  2.0

     negative rho (up, down):  6.401E-04 2.867E-02

     total cpu time spent up to now is    10092.1 secs

     total energy              =    -860.02469620 Ry
     Harris-Foulkes estimate   =    -860.02471957 Ry
     estimated scf accuracy    <       0.00010711 Ry

     total magnetization       =     2.00 Bohr mag/cell
     absolute magnetization    =     2.26 Bohr mag/cell

     iteration #104     ecut=    70.00 Ry     beta= 0.70
     Davidson diagonalization with overlap
     ethr =  1.05E-08,  avg # of iterations =  3.0

     negative rho (up, down):  6.404E-04 2.727E-02

     total cpu time spent up to now is    10209.2 secs

     total energy              =    -860.02469248 Ry
     Harris-Foulkes estimate   =    -860.02471786 Ry
     estimated scf accuracy    <       0.00003912 Ry

     total magnetization       =     2.00 Bohr mag/cell
     absolute magnetization    =     2.25 Bohr mag/cell

     iteration #105     ecut=    70.00 Ry     beta= 0.70
     Davidson diagonalization with overlap
     ethr =  1.05E-08,  avg # of iterations =  3.0

     negative rho (up, down):  6.402E-04 2.584E-02

     total cpu time spent up to now is    10322.3 secs

     total energy              =    -860.02469594 Ry
     Harris-Foulkes estimate   =    -860.02470672 Ry
     estimated scf accuracy    <       0.00006888 Ry

     total magnetization       =     2.00 Bohr mag/cell
     absolute magnetization    =     2.26 Bohr mag/cell

     iteration #106     ecut=    70.00 Ry     beta= 0.70
     Davidson diagonalization with overlap
     ethr =  1.05E-08,  avg # of iterations =  3.0

     negative rho (up, down):  6.410E-04 2.441E-02

     total cpu time spent up to now is    10434.0 secs

     total energy              =    -860.02470149 Ry
     Harris-Foulkes estimate   =    -860.02471017 Ry
     estimated scf accuracy    <       0.00003748 Ry

     total magnetization       =     2.00 Bohr mag/cell
     absolute magnetization    =     2.25 Bohr mag/cell

     iteration #107     ecut=    70.00 Ry     beta= 0.70
     Davidson diagonalization with overlap
     ethr =  1.05E-08,  avg # of iterations =  3.0

     negative rho (up, down):  6.403E-04 2.467E-02

     total cpu time spent up to now is    10557.2 secs

     total energy              =    -860.02471205 Ry
     Harris-Foulkes estimate   =    -860.02473398 Ry
     estimated scf accuracy    <       0.00008959 Ry

     total magnetization       =     2.00 Bohr mag/cell
     absolute magnetization    =     2.24 Bohr mag/cell

     iteration #108     ecut=    70.00 Ry     beta= 0.70
     Davidson diagonalization with overlap
     ethr =  1.05E-08,  avg # of iterations =  2.5

     negative rho (up, down):  6.404E-04 2.644E-02

     total cpu time spent up to now is    10667.1 secs

     total energy              =    -860.02471368 Ry
     Harris-Foulkes estimate   =    -860.02472215 Ry
     estimated scf accuracy    <       0.00002588 Ry

     total magnetization       =     2.00 Bohr mag/cell
     absolute magnetization    =     2.25 Bohr mag/cell

     iteration #109     ecut=    70.00 Ry     beta= 0.70
     Davidson diagonalization with overlap
     ethr =  1.05E-08,  avg # of iterations =  2.0

     negative rho (up, down):  6.405E-04 2.745E-02

     total cpu time spent up to now is    10762.6 secs

     total energy              =    -860.02469625 Ry
     Harris-Foulkes estimate   =    -860.02471690 Ry
     estimated scf accuracy    <       0.00004665 Ry

     total magnetization       =     2.00 Bohr mag/cell
     absolute magnetization    =     2.25 Bohr mag/cell

     iteration #110     ecut=    70.00 Ry     beta= 0.70
     Davidson diagonalization with overlap
     ethr =  1.05E-08,  avg # of iterations =  3.0

     negative rho (up, down):  6.405E-04 2.456E-02

     total cpu time spent up to now is    10865.4 secs

     total energy              =    -860.02470449 Ry
     Harris-Foulkes estimate   =    -860.02470686 Ry
     estimated scf accuracy    <       0.00001535 Ry

     total magnetization       =     2.00 Bohr mag/cell
     absolute magnetization    =     2.25 Bohr mag/cell

[...]

     iteration #175     ecut=    70.00 Ry     beta= 0.70
     Davidson diagonalization with overlap
     ethr =  1.95E-09,  avg # of iterations =  2.0

     negative rho (up, down):  6.410E-04 2.348E-02

     total cpu time spent up to now is    17317.4 secs

     total energy              =    -860.02471760 Ry
     Harris-Foulkes estimate   =    -860.02471792 Ry
     estimated scf accuracy    <       0.00000194 Ry

     total magnetization       =     2.00 Bohr mag/cell
     absolute magnetization    =     2.23 Bohr mag/cell

     iteration #176     ecut=    70.00 Ry     beta= 0.70
     Davidson diagonalization with overlap
     ethr =  9.05E-10,  avg # of iterations =  2.5

     negative rho (up, down):  6.410E-04 2.303E-02

     total cpu time spent up to now is    17418.4 secs

     total energy              =    -860.02471836 Ry
     Harris-Foulkes estimate   =    -860.02471835 Ry
     estimated scf accuracy    <       0.00000545 Ry

     total magnetization       =     2.00 Bohr mag/cell
     absolute magnetization    =     2.23 Bohr mag/cell

     iteration #177     ecut=    70.00 Ry     beta= 0.70
     Davidson diagonalization with overlap
     ethr =  9.05E-10,  avg # of iterations =  2.0

     negative rho (up, down):  6.411E-04 2.299E-02

     total cpu time spent up to now is    17506.5 secs

     total energy              =    -860.02471806 Ry
     Harris-Foulkes estimate   =    -860.02471850 Ry
     estimated scf accuracy    <       0.00000316 Ry

     total magnetization       =     2.00 Bohr mag/cell
     absolute magnetization    =     2.23 Bohr mag/cell

     iteration #178     ecut=    70.00 Ry     beta= 0.70
     Davidson diagonalization with overlap
     ethr =  9.05E-10,  avg # of iterations =  3.0

     negative rho (up, down):  6.411E-04 2.309E-02

     total cpu time spent up to now is    17618.2 secs

     total energy              =    -860.02471788 Ry
     Harris-Foulkes estimate   =    -860.02471899 Ry
     estimated scf accuracy    <       0.00000143 Ry

     total magnetization       =     2.00 Bohr mag/cell
     absolute magnetization    =     2.23 Bohr mag/cell

     iteration #179     ecut=    70.00 Ry     beta= 0.70
     Davidson diagonalization with overlap
     ethr =  6.68E-10,  avg # of iterations =  3.0

     negative rho (up, down):  6.411E-04 2.309E-02

     total cpu time spent up to now is    17731.4 secs

     total energy              =    -860.02471865 Ry
     Harris-Foulkes estimate   =    -860.02471864 Ry
     estimated scf accuracy    <       0.00000368 Ry

     total magnetization       =     2.00 Bohr mag/cell
     absolute magnetization    =     2.23 Bohr mag/cell

     iteration #180     ecut=    70.00 Ry     beta= 0.70
     Davidson diagonalization with overlap
     ethr =  6.68E-10,  avg # of iterations =  1.0

     negative rho (up, down):  6.410E-04 2.313E-02

     total cpu time spent up to now is    17819.9 secs

     total energy              =    -860.02471797 Ry
     Harris-Foulkes estimate   =    -860.02471865 Ry
     estimated scf accuracy    <       0.00000367 Ry

     total magnetization       =     2.00 Bohr mag/cell
     absolute magnetization    =     2.23 Bohr mag/cell

     iteration #181     ecut=    70.00 Ry     beta= 0.70
     Davidson diagonalization with overlap
     ethr =  6.68E-10,  avg # of iterations =  3.0

     negative rho (up, down):  6.410E-04 2.294E-02

     total cpu time spent up to now is    17929.4 secs

     total energy              =    -860.02471775 Ry
     Harris-Foulkes estimate   =    -860.02471930 Ry
     estimated scf accuracy    <       0.00001006 Ry

     total magnetization       =     2.00 Bohr mag/cell
     absolute magnetization    =     2.23 Bohr mag/cell

     iteration #182     ecut=    70.00 Ry     beta= 0.70
     Davidson diagonalization with overlap
     ethr =  6.68E-10,  avg # of iterations =  3.0

     negative rho (up, down):  6.410E-04 2.307E-02

     total cpu time spent up to now is    18036.5 secs

     total energy              =    -860.02471871 Ry
     Harris-Foulkes estimate   =    -860.02471901 Ry
     estimated scf accuracy    <       0.00000162 Ry

     total magnetization       =     2.00 Bohr mag/cell
     absolute magnetization    =     2.23 Bohr mag/cell

     iteration #183     ecut=    70.00 Ry     beta= 0.70
     Davidson diagonalization with overlap
     ethr =  6.68E-10,  avg # of iterations =  2.5

     negative rho (up, down):  6.410E-04 2.310E-02

     total cpu time spent up to now is    18134.9 secs

     total energy              =    -860.02471912 Ry
     Harris-Foulkes estimate   =    -860.02471913 Ry
     estimated scf accuracy    <       0.00000182 Ry

     total magnetization       =     2.00 Bohr mag/cell
     absolute magnetization    =     2.23 Bohr mag/cell

     iteration #184     ecut=    70.00 Ry     beta= 0.70
     Davidson diagonalization with overlap
     ethr =  6.68E-10,  avg # of iterations =  2.0

     negative rho (up, down):  6.410E-04 2.320E-02

     total cpu time spent up to now is    18224.1 secs

     total energy              =    -860.02471874 Ry
     Harris-Foulkes estimate   =    -860.02471917 Ry
     estimated scf accuracy    <       0.00000171 Ry

     total magnetization       =     2.00 Bohr mag/cell
     absolute magnetization    =     2.23 Bohr mag/cell

     iteration #185     ecut=    70.00 Ry     beta= 0.70
     Davidson diagonalization with overlap
     ethr =  6.68E-10,  avg # of iterations =  2.0

     negative rho (up, down):  6.410E-04 2.317E-02

     total cpu time spent up to now is    18320.5 secs

     total energy              =    -860.02471873 Ry
     Harris-Foulkes estimate   =    -860.02471893 Ry
     estimated scf accuracy    <       0.00000152 Ry

     total magnetization       =     2.00 Bohr mag/cell
     absolute magnetization    =     2.23 Bohr mag/cell

     iteration #186     ecut=    70.00 Ry     beta= 0.70
     Davidson diagonalization with overlap
     ethr =  6.68E-10,  avg # of iterations =  2.0

     negative rho (up, down):  6.411E-04 2.311E-02

     total cpu time spent up to now is    18415.8 secs

     total energy              =    -860.02471894 Ry
     Harris-Foulkes estimate   =    -860.02471891 Ry
     estimated scf accuracy    <       0.00000206 Ry

     total magnetization       =     2.00 Bohr mag/cell
     absolute magnetization    =     2.23 Bohr mag/cell

     iteration #187     ecut=    70.00 Ry     beta= 0.70
     Davidson diagonalization with overlap
     ethr =  6.68E-10,  avg # of iterations =  1.0

     negative rho (up, down):  6.411E-04 2.304E-02

     total cpu time spent up to now is    18503.8 secs

     total energy              =    -860.02471887 Ry
     Harris-Foulkes estimate   =    -860.02471895 Ry
     estimated scf accuracy    <       0.00000184 Ry

     total magnetization       =     2.00 Bohr mag/cell
     absolute magnetization    =     2.23 Bohr mag/cell

     iteration #188     ecut=    70.00 Ry     beta= 0.70
     Davidson diagonalization with overlap
     ethr =  6.68E-10,  avg # of iterations =  2.0

     negative rho (up, down):  6.411E-04 2.304E-02

     Magnetic moment per site:
     atom:    1    charge:    0.2182    magn:   -0.0034    constr:    0.0000
     atom:    2    charge:    0.2092    magn:    0.0329    constr:    0.0000
     atom:    3    charge:    1.7161    magn:   -0.0017    constr:    0.0000
     atom:    4    charge:    1.7158    magn:    0.0067    constr:    0.0000
     atom:    5    charge:    1.7166    magn:    0.0055    constr:    0.0000
     atom:    6    charge:    1.7149    magn:    0.0002    constr:    0.0000
     atom:    7    charge:    1.7168    magn:    0.0021    constr:    0.0000
     atom:    8    charge:    1.7165    magn:    0.0031    constr:    0.0000
     atom:    9    charge:    1.7153    magn:    0.0014    constr:    0.0000
     atom:   10    charge:    1.7185    magn:    0.0199    constr:    0.0000
     atom:   11    charge:    1.7152    magn:   -0.0037    constr:    0.0000
     atom:   12    charge:    1.7173    magn:    0.0281    constr:    0.0000
     atom:   13    charge:    1.7152    magn:   -0.0037    constr:    0.0000
     atom:   14    charge:    1.7188    magn:    0.0091    constr:    0.0000
     atom:   15    charge:    1.7121    magn:    0.0006    constr:    0.0000
     atom:   16    charge:    1.7168    magn:    0.0129    constr:    0.0000
     atom:   17    charge:    1.7198    magn:    0.0109    constr:    0.0000
     atom:   18    charge:    1.7143    magn:    0.0317    constr:    0.0000
     atom:   19    charge:    1.7133    magn:   -0.0051    constr:    0.0000
     atom:   20    charge:    1.7163    magn:    0.0331    constr:    0.0000
     atom:   21    charge:    1.7157    magn:   -0.0067    constr:    0.0000
     atom:   22    charge:    1.7185    magn:    0.0199    constr:    0.0000
     atom:   23    charge:    1.7153    magn:    0.0014    constr:    0.0000
     atom:   24    charge:    1.7162    magn:    0.0042    constr:    0.0000
     atom:   25    charge:    1.7122    magn:   -0.0014    constr:    0.0000
     atom:   26    charge:    1.7172    magn:    0.0080    constr:    0.0000
     atom:   27    charge:    1.8490    magn:    0.0159    constr:    0.0000
     atom:   28    charge:   11.1707    magn:    0.4619    constr:    0.0000
     atom:   29    charge:    1.8521    magn:    0.0010    constr:    0.0000
     atom:   30    charge:    1.7143    magn:    0.0317    constr:    0.0000
     atom:   31    charge:    1.7133    magn:   -0.0051    constr:    0.0000
     atom:   32    charge:    1.7165    magn:    0.0031    constr:    0.0000
     atom:   33    charge:    1.7168    magn:    0.0021    constr:    0.0000
     atom:   34    charge:    1.7160    magn:    0.0007    constr:    0.0000
     atom:   35    charge:    1.7163    magn:    0.0060    constr:    0.0000
     atom:   36    charge:    1.7153    magn:   -0.0030    constr:    0.0000
     atom:   37    charge:    1.7179    magn:    0.0231    constr:    0.0000
     atom:   38    charge:    1.7172    magn:    0.0080    constr:    0.0000
     atom:   39    charge:    1.8490    magn:    0.0159    constr:    0.0000
     atom:   40    charge:    1.7168    magn:    0.0129    constr:    0.0000
     atom:   41    charge:    1.7198    magn:    0.0109    constr:    0.0000
     atom:   42    charge:    1.7149    magn:    0.0002    constr:    0.0000
     atom:   43    charge:    1.7166    magn:    0.0055    constr:    0.0000
     atom:   44    charge:    1.7161    magn:    0.0003    constr:    0.0000
     atom:   45    charge:    1.7190    magn:    0.0277    constr:    0.0000
     atom:   46    charge:    1.7160    magn:    0.0007    constr:    0.0000
     atom:   47    charge:    1.7163    magn:    0.0060    constr:    0.0000
     atom:   48    charge:    1.7162    magn:    0.0042    constr:    0.0000
     atom:   49    charge:    1.7122    magn:   -0.0014    constr:    0.0000
     atom:   50    charge:    1.7188    magn:    0.0091    constr:    0.0000
     atom:   51    charge:    1.7121    magn:    0.0006    constr:    0.0000
     atom:   52    charge:    1.7158    magn:    0.0067    constr:    0.0000

     total cpu time spent up to now is    18602.4 secs

     End of self-consistent calculation

 ------ SPIN UP ------------


          k = 0.0000 0.0000 0.0000 ( 87777 PWs)   bands (ev):

   -89.1166 -55.9774 -55.8748 -54.5233 -19.7566 -18.9171 -18.8804 -18.8521
   -18.8490 -18.8187 -18.5556 -17.0827 -17.0723 -17.0467 -17.0066 -16.9884
   -16.6923 -16.2184 -16.2157 -16.1317 -16.0944 -16.0868 -15.4530 -14.1340
   -14.1161 -14.0544 -13.9746 -13.9738 -13.4460 -13.0593 -13.0466 -13.0201
   -12.7829 -12.7827 -12.3143 -11.8651 -11.8601 -11.6645 -11.4268 -11.4255
   -10.5956  -9.7989  -9.7950  -9.4393  -9.2946  -9.2890  -9.1938  -9.1789
    -9.1764  -9.1699  -8.7391  -8.7331  -8.5188  -8.2649  -8.2637  -8.0652
    -7.8258  -7.8002  -7.4262  -7.4241  -7.3366  -7.2636  -7.2324  -7.0297
    -7.0279  -6.8159  -6.8032  -6.7883  -6.7234  -6.5361  -6.5307  -6.5246
    -6.5151  -6.5104  -6.4817  -6.3864  -5.8359  -5.8087  -5.7256  -5.7100
    -5.4969  -5.4044  -5.4016  -4.9527  -4.8948  -4.7187  -4.7161  -4.6835
    -4.5420  -4.5216  -4.3688  -4.2479  -4.2407  -3.8215  -3.8180  -3.7842
    -3.6799  -3.6774  -3.1579  -2.9106  -2.8722  -1.8549  -1.7852  -1.7848
    -1.6446  -1.1909  -1.1209  -1.0029   0.9303   0.9821   0.9870   1.4692
     1.4780   1.5972   2.0747   2.0984   2.5185   2.8035   2.8141   2.8390
     3.3305   3.3368   3.4150   3.6660   3.6724   3.7826   3.7867   3.7957

     occupation numbers 
     1.0000   1.0000   1.0000   1.0000   1.0000   1.0000   1.0000   1.0000
     1.0000   1.0000   1.0000   1.0000   1.0000   1.0000   1.0000   1.0000
     1.0000   1.0000   1.0000   1.0000   1.0000   1.0000   1.0000   1.0000
     1.0000   1.0000   1.0000   1.0000   1.0000   1.0000   1.0000   1.0000
     1.0000   1.0000   1.0000   1.0000   1.0000   1.0000   1.0000   1.0000
     1.0000   1.0000   1.0000   1.0000   1.0000   1.0000   1.0000   1.0000
     1.0000   1.0000   1.0000   1.0000   1.0000   1.0000   1.0000   1.0000
     1.0000   1.0000   1.0000   1.0000   1.0000   1.0000   1.0000   1.0000
     1.0000   1.0000   1.0000   1.0000   1.0000   1.0000   1.0000   1.0000
     1.0000   1.0000   1.0000   1.0000   1.0000   1.0000   1.0000   1.0000
     1.0000   1.0000   1.0000   1.0000   1.0000   1.0000   1.0000   1.0000
     1.0000   1.0000   1.0000   1.0000   1.0000   1.0000   1.0000   1.0000
     1.0000   1.0000   1.0000   1.0000   1.0000   1.0000   1.0000   1.0000
     1.0000   1.0000   1.0000   1.0000   0.0000   0.0000   0.0000   0.0000
     0.0000   0.0000   0.0000   0.0000   0.0000   0.0000   0.0000   0.0000
     0.0000   0.0000   0.0000   0.0000   0.0000   0.0000   0.0000   0.0000

 ------ SPIN DOWN ----------


          k = 0.0000 0.0000 0.0000 ( 87777 PWs)   bands (ev):

   -88.3785 -55.3610 -55.3364 -53.5469 -19.7300 -18.8821 -18.8530 -18.8348
   -18.8331 -18.7924 -18.5059 -17.0538 -17.0440 -17.0331 -16.9700 -16.9582
   -16.6626 -16.1896 -16.1896 -16.1016 -16.0620 -16.0594 -15.4208 -14.0854
   -14.0717 -14.0265 -13.9634 -13.9624 -13.4013 -13.0381 -13.0313 -13.0023
   -12.7674 -12.7610 -12.2912 -11.8336 -11.8303 -11.6391 -11.4063 -11.4057
   -10.5563  -9.7392  -9.7385  -9.4234  -9.2700  -9.2684  -9.1831  -9.1631
    -9.1627  -9.1536  -8.7219  -8.7190  -8.2327  -8.2256  -8.2239  -8.0245
    -7.8139  -7.6895  -7.4139  -7.4109  -7.2756  -7.1075  -7.0934  -6.9783
    -6.9744  -6.7714  -6.7695  -6.7246  -6.7141  -6.5243  -6.5173  -6.5156
    -6.5075  -6.5032  -6.4641  -6.2331  -5.6643  -5.6619  -5.6181  -5.6037
    -5.3714  -5.3659  -5.2779  -4.9414  -4.8894  -4.6718  -4.6439  -4.6356
    -4.4689  -4.4548  -4.2936  -4.1693  -4.1672  -3.7488  -3.7486  -3.7093
    -3.6649  -3.6640  -3.0599  -2.7319  -2.7242  -1.7822  -1.7620  -1.7611
    -0.9554  -0.9273  -0.9168  -0.6165   1.0069   1.0181   1.0199   1.5785
     1.5836   1.7019   2.2838   2.2912   2.5296   2.8835   2.8855   2.9218
     3.4411   3.4437   3.5311   3.6856   3.6912   3.7836   3.7859   3.8007

     occupation numbers 
     1.0000   1.0000   1.0000   1.0000   1.0000   1.0000   1.0000   1.0000
     1.0000   1.0000   1.0000   1.0000   1.0000   1.0000   1.0000   1.0000
     1.0000   1.0000   1.0000   1.0000   1.0000   1.0000   1.0000   1.0000
     1.0000   1.0000   1.0000   1.0000   1.0000   1.0000   1.0000   1.0000
     1.0000   1.0000   1.0000   1.0000   1.0000   1.0000   1.0000   1.0000
     1.0000   1.0000   1.0000   1.0000   1.0000   1.0000   1.0000   1.0000
     1.0000   1.0000   1.0000   1.0000   1.0000   1.0000   1.0000   1.0000
     1.0000   1.0000   1.0000   1.0000   1.0000   1.0000   1.0000   1.0000
     1.0000   1.0000   1.0000   1.0000   1.0000   1.0000   1.0000   1.0000
     1.0000   1.0000   1.0000   1.0000   1.0000   1.0000   1.0000   1.0000
     1.0000   1.0000   1.0000   1.0000   1.0000   1.0000   1.0000   1.0000
     1.0000   1.0000   1.0000   1.0000   1.0000   1.0000   1.0000   1.0000
     1.0000   1.0000   1.0000   1.0000   1.0000   1.0000   1.0000   1.0000
     1.0085   0.7586   0.2329   0.0000   0.0000   0.0000   0.0000   0.0000
     0.0000   0.0000   0.0000   0.0000   0.0000   0.0000   0.0000   0.0000
     0.0000   0.0000   0.0000   0.0000   0.0000   0.0000   0.0000   0.0000

     the Fermi energy is    -0.9206 ev

!    total energy              =    -860.02471888 Ry
     Harris-Foulkes estimate   =    -860.02471920 Ry
     estimated scf accuracy    <       0.00000081 Ry

     The total energy is the sum of the following terms:

     one-electron contribution =   -2821.79045304 Ry
     hartree contribution      =    1455.08669695 Ry
     xc contribution           =    -259.45756505 Ry
     ewald contribution        =     766.13681053 Ry
     smearing contrib. (-TS)   =      -0.00020827 Ry

     total magnetization       =     2.00 Bohr mag/cell
     absolute magnetization    =     2.23 Bohr mag/cell

     convergence has been achieved in 188 iterations

     Writing output data file distance-1.8.save/

     init_run     :     74.72s CPU     76.01s WALL (       1 calls)
     electrons    :  18210.92s CPU  18525.45s WALL (       1 calls)

     Called by init_run:
     wfcinit      :     40.38s CPU     40.64s WALL (       1 calls)
     wfcinit:atom :      0.04s CPU      0.08s WALL (       2 calls)
     wfcinit:wfcr :     39.97s CPU     40.15s WALL (       2 calls)
     potinit      :     14.40s CPU     14.80s WALL (       1 calls)
     hinit0       :     11.75s CPU     11.79s WALL (       1 calls)

     Called by electrons:
     c_bands      :  11724.57s CPU  11782.58s WALL (     188 calls)
     sum_band     :   3740.90s CPU   3843.31s WALL (     188 calls)
     v_of_rho     :   1329.62s CPU   1395.54s WALL (     189 calls)
     v_h          :     13.60s CPU     13.92s WALL (     189 calls)
     v_xc         :   1316.02s CPU   1381.62s WALL (     189 calls)
     newd         :   1299.43s CPU   1386.56s WALL (     189 calls)
     mix_rho      :     88.03s CPU     89.09s WALL (     188 calls)

     Called by c_bands:
     init_us_2    :     32.74s CPU     32.82s WALL (     754 calls)
     cegterg      :  11638.92s CPU  11696.48s WALL (     376 calls)

     Called by sum_band:
     sum_band:bec :      0.30s CPU      0.30s WALL (     376 calls)
     addusdens    :   2305.16s CPU   2399.61s WALL (     188 calls)

     Called by *egterg:
     h_psi        :   6000.72s CPU   6039.24s WALL (    1281 calls)
     s_psi        :   2016.35s CPU   2017.52s WALL (    1281 calls)
     g_psi        :      6.67s CPU      6.70s WALL (     903 calls)
     cdiaghg      :     85.40s CPU     85.44s WALL (    1279 calls)
     cegterg:over :   1466.53s CPU   1467.40s WALL (     903 calls)
     cegterg:upda :    886.02s CPU    891.07s WALL (     903 calls)
     cegterg:last :    614.89s CPU    615.19s WALL (     376 calls)

     Called by h_psi:
     h_psi:pot    :   5993.52s CPU   6024.86s WALL (    1281 calls)
     h_psi:calbec :   2032.08s CPU   2033.19s WALL (    1281 calls)
     vloc_psi     :   1947.51s CPU   1976.86s WALL (    1281 calls)
     add_vuspsi   :   2013.92s CPU   2014.79s WALL (    1281 calls)

     General routines
     calbec       :   2907.76s CPU   2909.31s WALL (    1657 calls)
     fft          :    745.15s CPU    770.73s WALL (   14169 calls)
     ffts         :     13.15s CPU     13.53s WALL (     754 calls)
     fftw         :   2063.38s CPU   2094.78s WALL (  271866 calls)
     interpolate  :     31.00s CPU     31.70s WALL (     378 calls)

     Parallel routines
     fft_scatt_xy :    483.57s CPU    489.08s WALL (  286789 calls)
     fft_scatt_yz :    970.73s CPU   1011.70s WALL (  286789 calls)

     PWSCF        :      5h 4m CPU      5h10m WALL


   This run was terminated on:  18:57:51  28Aug2022            

=------------------------------------------------------------------------------=
   JOB DONE.
=------------------------------------------------------------------------------=
