
     Program PWSCF v.6.4.1 starts on 28Aug2022 at  1:34:52 

     This program is part of the open-source Quantum ESPRESSO suite
     for quantum simulation of materials; please cite
         "P. Giannozzi et al., J. Phys.:Condens. Matter 21 395502 (2009);
         "P. Giannozzi et al., J. Phys.:Condens. Matter 29 465901 (2017);
          URL http://www.quantum-espresso.org", 
     in publications or presentations arising from this work. More details at
     http://www.quantum-espresso.org/quote

     Parallel version (MPI), running on     6 processors

     MPI processes distributed on     1 nodes
     R & G space division:  proc/nbgrp/npool/nimage =       6
     Reading input from distance-2.8.in

     Current dimensions of program PWSCF are:
     Max number of different atomic species (ntypx) = 10
     Max number of k-points (npk) =  40000
     Max angular momentum in pseudopotentials (lmaxx) =  3

     IMPORTANT: XC functional enforced from input :
     Exchange-correlation      = RVV10 ( 1  4 13  4 3 0)
     Any further DFT definition will be discarded
     Please, verify this is what you really want

               file H.pbe-rrkjus.UPF: wavefunction(s)  1S renormalized

     Subspace diagonalization in iterative solution of the eigenvalue problem:
     a serial algorithm will be used


     Parallelization info
     --------------------
     sticks:   dense  smooth     PW     G-vecs:    dense   smooth      PW
     Min        3051    1746    432               270999   117096   14629
     Max        3053    1747    437               271001   117099   14630
     Sum       18313   10477   2611              1626001   702581   87777



     bravais-lattice index     =            4
     lattice parameter (alat)  =      23.2937  a.u.
     unit-cell volume          =    8879.8548 (a.u.)^3
     number of atoms/cell      =           52
     number of atomic types    =            3
     number of electrons       =       214.00
     number of Kohn-Sham states=          128
     kinetic-energy cutoff     =      70.0000  Ry
     charge density cutoff     =     490.0000  Ry
     convergence threshold     =      1.0E-06
     mixing beta               =       0.7000
     number of iterations used =            8  plain     mixing
     Exchange-correlation      = RVV10 ( 1  4 13  4 3 0)

     celldm(1)=  23.293684  celldm(2)=   0.000000  celldm(3)=   0.811261
     celldm(4)=   0.000000  celldm(5)=   0.000000  celldm(6)=   0.000000

     crystal axes: (cart. coord. in units of alat)
               a(1) = (   1.000000   0.000000   0.000000 )  
               a(2) = (  -0.500000   0.866025   0.000000 )  
               a(3) = (   0.000000   0.000000   0.811261 )  

     reciprocal axes: (cart. coord. in units 2 pi/alat)
               b(1) = (  1.000000  0.577350 -0.000000 )  
               b(2) = (  0.000000  1.154701  0.000000 )  
               b(3) = (  0.000000 -0.000000  1.232649 )  


     PseudoPot. # 1 for H  read from file:
     /home/cristian/Escritorio/Proyecto_Grafeno/pseudopotenciales/H.pbe-rrkjus.UPF
     MD5 check sum: 7cc9d459525c9a0585f487a71c3c9563
     Pseudo is Ultrasoft, Zval =  1.0
     Generated by new atomic code, or converted to UPF format
     Using radial grid of 1061 points,  2 beta functions with: 
                l(1) =   0
                l(2) =   0
     Q(r) pseudized with 0 coefficients 


     PseudoPot. # 2 for C  read from file:
     /home/cristian/Escritorio/Proyecto_Grafeno/pseudopotenciales/C.pbe-n-rrkjus_psl.1.0.0.UPF
     MD5 check sum: 1fdd950c42eb37d8afe3dd2f8d12311e
     Pseudo is Ultrasoft + core correction, Zval =  4.0
     Generated using "atomic" code by A. Dal Corso v.6.3MaX
     Using radial grid of 1073 points,  4 beta functions with: 
                l(1) =   0
                l(2) =   0
                l(3) =   1
                l(4) =   1
     Q(r) pseudized with 0 coefficients 


     PseudoPot. # 3 for Fe read from file:
     /home/cristian/Escritorio/Proyecto_Grafeno/pseudopotenciales/Fe.pbe-spn-rrkjus_psl.1.0.0.UPF
     MD5 check sum: 72ea77fed8e64ab3a2ccf2804dfc1862
     Pseudo is Ultrasoft + core correction, Zval = 16.0
     Generated using "atomic" code by A. Dal Corso v.6.3
     Using radial grid of 1191 points,  6 beta functions with: 
                l(1) =   0
                l(2) =   0
                l(3) =   1
                l(4) =   1
                l(5) =   2
                l(6) =   2
     Q(r) pseudized with 0 coefficients 


     vdW kernel table read from file rVV10_kernel_table
     MD5 check sum: b8e2538accc0c0b3206b45ba4daaba6c

     atomic species   valence    mass     pseudopotential
        H              1.00     1.00794     H ( 1.00)
        C              4.00    12.01070     C ( 1.00)
        Fe            16.00    55.84500     Fe( 1.00)

     Starting magnetic structure 
     atomic species   magnetization
        H            0.500
        C            0.300
        Fe           0.800

      2 Sym. Ops. (no inversion) found


                                    s                        frac. trans.

      isym =  1     identity                                     

 cryst.   s( 1) = (     1          0          0      )
                  (     0          1          0      )
                  (     0          0          1      )

 cart.    s( 1) = (  1.0000000  0.0000000  0.0000000 )
                  (  0.0000000  1.0000000  0.0000000 )
                  (  0.0000000  0.0000000  1.0000000 )


      isym =  2     inv. 180 deg rotation - cryst. axis [1,1,0]  

 cryst.   s( 2) = (     0         -1          0      )
                  (    -1          0          0      )
                  (     0          0          1      )

 cart.    s( 2) = (  0.5000000 -0.8660254  0.0000000 )
                  ( -0.8660254 -0.5000000  0.0000000 )
                  (  0.0000000  0.0000000  1.0000000 )


     point group C_s (m)    
     there are  2 classes
     the character table:

       E     s    
A'     1.00  1.00
A''    1.00 -1.00

     the symmetry operations in each class and the name of the first element:

     E        1
          identity                                               
     s        2
          inv. 180 deg rotation - cryst. axis [1,1,0]            

   Cartesian axes

     site n.     atom                  positions (alat units)
         1           H   tau(   1) = (   0.2000000   0.4618802   0.2271531  )
         2           H   tau(   2) = (   0.2000000   0.4618802   0.2881658  )
         3           C   tau(   3) = (   0.0000000   0.0000000   0.0000000  )
         4           C   tau(   4) = (   0.0000000   0.1154701   0.0000000  )
         5           C   tau(   5) = (  -0.1000000   0.1732051   0.0000000  )
         6           C   tau(   6) = (  -0.1000000   0.2886751   0.0000000  )
         7           C   tau(   7) = (  -0.2000000   0.3464102   0.0000000  )
         8           C   tau(   8) = (  -0.2000000   0.4618802   0.0000000  )
         9           C   tau(   9) = (  -0.3000000   0.5196152   0.0000000  )
        10           C   tau(  10) = (  -0.3000000   0.6350853   0.0000000  )
        11           C   tau(  11) = (  -0.4000000   0.6928203   0.0000000  )
        12           C   tau(  12) = (  -0.4000000   0.8082904   0.0000000  )
        13           C   tau(  13) = (   0.2000000   0.0000000   0.0000000  )
        14           C   tau(  14) = (   0.2000000   0.1154701   0.0000000  )
        15           C   tau(  15) = (   0.1000000   0.1732051   0.0000000  )
        16           C   tau(  16) = (   0.1000000   0.2886751   0.0000000  )
        17           C   tau(  17) = (   0.0000000   0.3464102   0.0000000  )
        18           C   tau(  18) = (   0.0000000   0.4618802   0.0000000  )
        19           C   tau(  19) = (  -0.1000000   0.5196152   0.0000000  )
        20           C   tau(  20) = (  -0.1000000   0.6350853   0.0000000  )
        21           C   tau(  21) = (  -0.2000000   0.6928203   0.0000000  )
        22           C   tau(  22) = (  -0.2000000   0.8082904   0.0000000  )
        23           C   tau(  23) = (   0.4000000   0.0000000   0.0000000  )
        24           C   tau(  24) = (   0.4000000   0.1154701   0.0000000  )
        25           C   tau(  25) = (   0.3000000   0.1732051   0.0000000  )
        26           C   tau(  26) = (   0.3000000   0.2886751   0.0000000  )
        27           C   tau(  27) = (   0.2000000   0.3464102   0.0000000  )
        28           Fe  tau(  28) = (   0.2000000   0.4618802   0.0000000  )
        29           C   tau(  29) = (   0.1000000   0.5196152   0.0000000  )
        30           C   tau(  30) = (   0.1000000   0.6350853   0.0000000  )
        31           C   tau(  31) = (   0.0000000   0.6928203   0.0000000  )
        32           C   tau(  32) = (   0.0000000   0.8082904   0.0000000  )
        33           C   tau(  33) = (   0.6000000   0.0000000   0.0000000  )
        34           C   tau(  34) = (   0.6000000   0.1154701   0.0000000  )
        35           C   tau(  35) = (   0.5000000   0.1732051   0.0000000  )
        36           C   tau(  36) = (   0.5000000   0.2886751   0.0000000  )
        37           C   tau(  37) = (   0.4000000   0.3464102   0.0000000  )
        38           C   tau(  38) = (   0.4000000   0.4618802   0.0000000  )
        39           C   tau(  39) = (   0.3000000   0.5196152   0.0000000  )
        40           C   tau(  40) = (   0.3000000   0.6350853   0.0000000  )
        41           C   tau(  41) = (   0.2000000   0.6928203   0.0000000  )
        42           C   tau(  42) = (   0.2000000   0.8082904   0.0000000  )
        43           C   tau(  43) = (   0.8000000   0.0000000   0.0000000  )
        44           C   tau(  44) = (   0.8000000   0.1154701   0.0000000  )
        45           C   tau(  45) = (   0.7000000   0.1732051   0.0000000  )
        46           C   tau(  46) = (   0.7000000   0.2886751   0.0000000  )
        47           C   tau(  47) = (   0.6000000   0.3464102   0.0000000  )
        48           C   tau(  48) = (   0.6000000   0.4618802   0.0000000  )
        49           C   tau(  49) = (   0.5000000   0.5196152   0.0000000  )
        50           C   tau(  50) = (   0.5000000   0.6350853   0.0000000  )
        51           C   tau(  51) = (   0.4000000   0.6928203   0.0000000  )
        52           C   tau(  52) = (   0.4000000   0.8082904   0.0000000  )

   Crystallographic axes

     site n.     atom                  positions (cryst. coord.)
         1           H   tau(   1) = (  0.4666667  0.5333333  0.2800000  )
         2           H   tau(   2) = (  0.4666667  0.5333333  0.3552072  )
         3           C   tau(   3) = (  0.0000000  0.0000000  0.0000000  )
         4           C   tau(   4) = (  0.0666667  0.1333333  0.0000000  )
         5           C   tau(   5) = (  0.0000000  0.2000000  0.0000000  )
         6           C   tau(   6) = (  0.0666667  0.3333333  0.0000000  )
         7           C   tau(   7) = (  0.0000000  0.4000000  0.0000000  )
         8           C   tau(   8) = (  0.0666667  0.5333333  0.0000000  )
         9           C   tau(   9) = (  0.0000000  0.6000000  0.0000000  )
        10           C   tau(  10) = (  0.0666667  0.7333333  0.0000000  )
        11           C   tau(  11) = (  0.0000000  0.8000000  0.0000000  )
        12           C   tau(  12) = (  0.0666667  0.9333333  0.0000000  )
        13           C   tau(  13) = (  0.2000000  0.0000000  0.0000000  )
        14           C   tau(  14) = (  0.2666667  0.1333333  0.0000000  )
        15           C   tau(  15) = (  0.2000000  0.2000000  0.0000000  )
        16           C   tau(  16) = (  0.2666667  0.3333333  0.0000000  )
        17           C   tau(  17) = (  0.2000000  0.4000000  0.0000000  )
        18           C   tau(  18) = (  0.2666667  0.5333333  0.0000000  )
        19           C   tau(  19) = (  0.2000000  0.6000000  0.0000000  )
        20           C   tau(  20) = (  0.2666667  0.7333333  0.0000000  )
        21           C   tau(  21) = (  0.2000000  0.8000000  0.0000000  )
        22           C   tau(  22) = (  0.2666667  0.9333333  0.0000000  )
        23           C   tau(  23) = (  0.4000000  0.0000000  0.0000000  )
        24           C   tau(  24) = (  0.4666667  0.1333333  0.0000000  )
        25           C   tau(  25) = (  0.4000000  0.2000000  0.0000000  )
        26           C   tau(  26) = (  0.4666667  0.3333333  0.0000000  )
        27           C   tau(  27) = (  0.4000000  0.4000000  0.0000000  )
        28           Fe  tau(  28) = (  0.4666667  0.5333333  0.0000000  )
        29           C   tau(  29) = (  0.4000000  0.6000000  0.0000000  )
        30           C   tau(  30) = (  0.4666667  0.7333333  0.0000000  )
        31           C   tau(  31) = (  0.4000000  0.8000000  0.0000000  )
        32           C   tau(  32) = (  0.4666667  0.9333333  0.0000000  )
        33           C   tau(  33) = (  0.6000000  0.0000000  0.0000000  )
        34           C   tau(  34) = (  0.6666667  0.1333333  0.0000000  )
        35           C   tau(  35) = (  0.6000000  0.2000000  0.0000000  )
        36           C   tau(  36) = (  0.6666667  0.3333333  0.0000000  )
        37           C   tau(  37) = (  0.6000000  0.4000000  0.0000000  )
        38           C   tau(  38) = (  0.6666667  0.5333333  0.0000000  )
        39           C   tau(  39) = (  0.6000000  0.6000000  0.0000000  )
        40           C   tau(  40) = (  0.6666667  0.7333333  0.0000000  )
        41           C   tau(  41) = (  0.6000000  0.8000000  0.0000000  )
        42           C   tau(  42) = (  0.6666667  0.9333333  0.0000000  )
        43           C   tau(  43) = (  0.8000000  0.0000000  0.0000000  )
        44           C   tau(  44) = (  0.8666667  0.1333333  0.0000000  )
        45           C   tau(  45) = (  0.8000000  0.2000000  0.0000000  )
        46           C   tau(  46) = (  0.8666667  0.3333333  0.0000000  )
        47           C   tau(  47) = (  0.8000000  0.4000000  0.0000000  )
        48           C   tau(  48) = (  0.8666667  0.5333333  0.0000000  )
        49           C   tau(  49) = (  0.8000000  0.6000000  0.0000000  )
        50           C   tau(  50) = (  0.8666667  0.7333333  0.0000000  )
        51           C   tau(  51) = (  0.8000000  0.8000000  0.0000000  )
        52           C   tau(  52) = (  0.8666667  0.9333333  0.0000000  )

     number of k points=     1  Marzari-Vanderbilt smearing, width (Ry)=  0.0010
                       cart. coord. in units 2pi/alat
        k(    1) = (   0.0000000   0.0000000   0.0000000), wk =   1.0000000

                       cryst. coord.
        k(    1) = (   0.0000000   0.0000000   0.0000000), wk =   1.0000000

     Dense  grid:  1626001 G-vectors     FFT dimensions: ( 180, 180, 135)

     Smooth grid:   702581 G-vectors     FFT dimensions: ( 125, 125, 108)

     Dynamical RAM for                 wfc:      28.59 MB

     Dynamical RAM for     wfc (w. buffer):      85.76 MB

     Dynamical RAM for           str. fact:      12.41 MB

     Dynamical RAM for           local pot:       0.00 MB

     Dynamical RAM for          nlocal pot:      92.46 MB

     Dynamical RAM for                qrad:      19.73 MB

     Dynamical RAM for          rho,v,vnew:      58.92 MB

     Dynamical RAM for               rhoin:      19.64 MB

     Dynamical RAM for            rho*nmix:     132.32 MB

     Dynamical RAM for           G-vectors:      16.40 MB

     Dynamical RAM for          h,s,v(r/c):      12.00 MB

     Dynamical RAM for          <psi|beta>:       0.81 MB

     Dynamical RAM for                 psi:     114.35 MB

     Dynamical RAM for                hpsi:     114.35 MB

     Dynamical RAM for                spsi:     114.35 MB

     Dynamical RAM for      wfcinit/wfcrot:      93.90 MB

     Dynamical RAM for           addusdens:     975.89 MB

     Estimated static dynamical RAM per process >     488.30 MB

     Estimated max dynamical RAM per process >       1.43 GB

     Estimated total dynamical RAM >       8.58 GB
     Generating pointlists ...
     new r_m :   0.0252 (alat units)  0.5862 (a.u.) for type    1
     new r_m :   0.0476 (alat units)  1.1095 (a.u.) for type    2
     new r_m :   0.0476 (alat units)  1.1095 (a.u.) for type    3

     Check: negative core charge=   -0.000002

     Initial potential from superposition of free atoms

     starting charge  213.80512, renormalised to  214.00000

     negative rho (up, down):  5.849E-05 1.073E-02


---------------------------------------------------------------------------------
Carrying out rVV10 run using the following parameters:
Nqs =      20    Nr_points =    1024   r_max =   100.000
b_value =  6.30000    beta =  0.00901
     q_mesh =  0.00010000  0.00030000  0.00058939  0.00100810
               0.00161396  0.00249058  0.00375900  0.00559430
               0.00824984  0.01209221  0.01765183  0.02569619
               0.03733578  0.05417739  0.07854596  0.11380545
               0.16482331  0.23864234  0.34545298  0.50000000

Gradients computed in Reciprocal space

---------------------------------------------------------------------------------


     Starting wfcs are  208 randomized atomic wfcs

     total cpu time spent up to now is       72.4 secs

     Self-consistent Calculation

     iteration #  1     ecut=    70.00 Ry     beta= 0.70
     Davidson diagonalization with overlap
     ethr =  1.00E-02,  avg # of iterations =  2.5

     negative rho (up, down):  1.381E-04 1.411E-02

     total cpu time spent up to now is      198.3 secs

     total energy              =    -857.38103653 Ry
     Harris-Foulkes estimate   =    -858.62745434 Ry
     estimated scf accuracy    <      10.21265118 Ry

     total magnetization       =     6.00 Bohr mag/cell
     absolute magnetization    =     6.64 Bohr mag/cell

     iteration #  2     ecut=    70.00 Ry     beta= 0.70
     Davidson diagonalization with overlap
     ethr =  4.77E-03,  avg # of iterations =  6.5

     negative rho (up, down):  2.867E-04 3.123E-02

     total cpu time spent up to now is      310.2 secs

     total energy              =    -854.87534116 Ry
     Harris-Foulkes estimate   =    -860.71041950 Ry
     estimated scf accuracy    <      12.07671587 Ry

     total magnetization       =     6.00 Bohr mag/cell
     absolute magnetization    =     6.33 Bohr mag/cell

     iteration #  3     ecut=    70.00 Ry     beta= 0.70
     Davidson diagonalization with overlap
     ethr =  4.77E-03,  avg # of iterations =  4.5

     negative rho (up, down):  7.720E-04 6.656E-02

     total cpu time spent up to now is      445.1 secs

     total energy              =    -856.07157545 Ry
     Harris-Foulkes estimate   =    -864.51758746 Ry
     estimated scf accuracy    <      44.48771946 Ry

     total magnetization       =     0.00 Bohr mag/cell
     absolute magnetization    =     1.10 Bohr mag/cell

     iteration #  4     ecut=    70.00 Ry     beta= 0.70
     Davidson diagonalization with overlap
     ethr =  4.77E-03,  avg # of iterations =  4.0

     negative rho (up, down):  2.995E-04 7.018E-02

     total cpu time spent up to now is      542.2 secs

     total energy              =    -859.29339455 Ry
     Harris-Foulkes estimate   =    -860.35433040 Ry
     estimated scf accuracy    <       3.56091302 Ry

     total magnetization       =     2.00 Bohr mag/cell
     absolute magnetization    =     3.06 Bohr mag/cell

     iteration #  5     ecut=    70.00 Ry     beta= 0.70
     Davidson diagonalization with overlap
     ethr =  1.66E-03,  avg # of iterations =  4.0

     negative rho (up, down):  7.215E-04 1.052E-01

     total cpu time spent up to now is      646.6 secs

     total energy              =    -859.92797922 Ry
     Harris-Foulkes estimate   =    -860.23133407 Ry
     estimated scf accuracy    <       1.97000006 Ry

     total magnetization       =     2.00 Bohr mag/cell
     absolute magnetization    =     2.56 Bohr mag/cell

     iteration #  6     ecut=    70.00 Ry     beta= 0.70
     Davidson diagonalization with overlap
     ethr =  9.21E-04,  avg # of iterations =  2.0

     negative rho (up, down):  8.600E-04 1.850E-01

     total cpu time spent up to now is      738.4 secs

     total energy              =    -860.12836456 Ry
     Harris-Foulkes estimate   =    -860.11493810 Ry
     estimated scf accuracy    <       0.42126447 Ry

     total magnetization       =     2.00 Bohr mag/cell
     absolute magnetization    =     2.96 Bohr mag/cell

     iteration #  7     ecut=    70.00 Ry     beta= 0.70
     Davidson diagonalization with overlap
     ethr =  1.97E-04,  avg # of iterations =  3.0

     negative rho (up, down):  2.243E-02 3.521E-01

     total cpu time spent up to now is      843.9 secs

     total energy              =    -859.86531300 Ry
     Harris-Foulkes estimate   =    -860.33508156 Ry
     estimated scf accuracy    <       5.17578863 Ry

     total magnetization       =     2.00 Bohr mag/cell
     absolute magnetization    =     5.42 Bohr mag/cell

     iteration #  8     ecut=    70.00 Ry     beta= 0.70
     Davidson diagonalization with overlap
     ethr =  1.97E-04,  avg # of iterations =  5.5

     negative rho (up, down):  1.290E-02 2.998E-01

     total cpu time spent up to now is      948.6 secs

     total energy              =    -860.04999927 Ry
     Harris-Foulkes estimate   =    -860.15875677 Ry
     estimated scf accuracy    <       0.67202354 Ry

     total magnetization       =     2.00 Bohr mag/cell
     absolute magnetization    =     3.07 Bohr mag/cell

     iteration #  9     ecut=    70.00 Ry     beta= 0.70
     Davidson diagonalization with overlap
     ethr =  1.97E-04,  avg # of iterations =  5.0

     negative rho (up, down):  1.407E-02 2.820E-01

     total cpu time spent up to now is     1044.1 secs

     total energy              =    -860.06701934 Ry
     Harris-Foulkes estimate   =    -860.10647818 Ry
     estimated scf accuracy    <       0.40106455 Ry

     total magnetization       =     2.00 Bohr mag/cell
     absolute magnetization    =     3.14 Bohr mag/cell

     iteration # 10     ecut=    70.00 Ry     beta= 0.70
     Davidson diagonalization with overlap
     ethr =  1.87E-04,  avg # of iterations =  2.0

     negative rho (up, down):  7.850E-03 2.806E-01

     total cpu time spent up to now is     1134.5 secs

     total energy              =    -860.10754310 Ry
     Harris-Foulkes estimate   =    -860.08657912 Ry
     estimated scf accuracy    <       0.33120425 Ry

     total magnetization       =     2.00 Bohr mag/cell
     absolute magnetization    =     3.25 Bohr mag/cell

     iteration # 11     ecut=    70.00 Ry     beta= 0.70
     Davidson diagonalization with overlap
     ethr =  1.55E-04,  avg # of iterations =  1.5

     negative rho (up, down):  1.647E-02 2.738E-01

     total cpu time spent up to now is     1225.4 secs

     total energy              =    -860.06546046 Ry
     Harris-Foulkes estimate   =    -860.11411097 Ry
     estimated scf accuracy    <       0.41333664 Ry

     total magnetization       =     2.00 Bohr mag/cell
     absolute magnetization    =     3.28 Bohr mag/cell

     iteration # 12     ecut=    70.00 Ry     beta= 0.70
     Davidson diagonalization with overlap
     ethr =  1.55E-04,  avg # of iterations =  2.0

     negative rho (up, down):  6.437E-02 1.942E-01

     total cpu time spent up to now is     1316.7 secs

     total energy              =    -860.02715693 Ry
     Harris-Foulkes estimate   =    -860.07667196 Ry
     estimated scf accuracy    <       0.23592765 Ry

     total magnetization       =     2.00 Bohr mag/cell
     absolute magnetization    =     3.01 Bohr mag/cell

     iteration # 13     ecut=    70.00 Ry     beta= 0.70
     Davidson diagonalization with overlap
     ethr =  1.10E-04,  avg # of iterations =  2.0

     negative rho (up, down):  5.870E-02 2.484E-01

     total cpu time spent up to now is     1444.9 secs

     total energy              =    -860.02879727 Ry
     Harris-Foulkes estimate   =    -860.04277805 Ry
     estimated scf accuracy    <       0.40091490 Ry

     total magnetization       =     0.05 Bohr mag/cell
     absolute magnetization    =     3.11 Bohr mag/cell

     iteration # 14     ecut=    70.00 Ry     beta= 0.70
     Davidson diagonalization with overlap
     ethr =  1.10E-04,  avg # of iterations =  1.5

     negative rho (up, down):  5.390E-02 2.346E-01

     total cpu time spent up to now is     1542.6 secs

     total energy              =    -860.02867805 Ry
     Harris-Foulkes estimate   =    -860.03712421 Ry
     estimated scf accuracy    <       0.19800666 Ry

     total magnetization       =     1.84 Bohr mag/cell
     absolute magnetization    =     3.28 Bohr mag/cell

     iteration # 15     ecut=    70.00 Ry     beta= 0.70
     Davidson diagonalization with overlap
     ethr =  9.25E-05,  avg # of iterations =  1.5

     negative rho (up, down):  5.063E-02 1.397E-01

     total cpu time spent up to now is     1635.7 secs

     total energy              =    -860.03545368 Ry
     Harris-Foulkes estimate   =    -860.04062620 Ry
     estimated scf accuracy    <       0.13973042 Ry

     total magnetization       =     1.95 Bohr mag/cell
     absolute magnetization    =     3.02 Bohr mag/cell

     iteration # 16     ecut=    70.00 Ry     beta= 0.70
     Davidson diagonalization with overlap
     ethr =  6.53E-05,  avg # of iterations =  1.5

     negative rho (up, down):  4.772E-02 1.743E-01

     total cpu time spent up to now is     1728.1 secs

     total energy              =    -860.04432693 Ry
     Harris-Foulkes estimate   =    -860.04129879 Ry
     estimated scf accuracy    <       0.13506728 Ry

     total magnetization       =     2.00 Bohr mag/cell
     absolute magnetization    =     3.25 Bohr mag/cell

     iteration # 17     ecut=    70.00 Ry     beta= 0.70
     Davidson diagonalization with overlap
     ethr =  6.31E-05,  avg # of iterations =  6.0

     negative rho (up, down):  5.237E-02 1.326E-01

     total cpu time spent up to now is     1821.8 secs

     total energy              =    -860.04168971 Ry
     Harris-Foulkes estimate   =    -860.05209082 Ry
     estimated scf accuracy    <       0.30371982 Ry

     total magnetization       =     1.85 Bohr mag/cell
     absolute magnetization    =     2.80 Bohr mag/cell

     iteration # 18     ecut=    70.00 Ry     beta= 0.70
     Davidson diagonalization with overlap
     ethr =  6.31E-05,  avg # of iterations =  2.5

     negative rho (up, down):  8.917E-02 2.133E-01

     total cpu time spent up to now is     1918.9 secs

     total energy              =    -860.01641709 Ry
     Harris-Foulkes estimate   =    -860.07733190 Ry
     estimated scf accuracy    <       0.47699980 Ry

     total magnetization       =     2.00 Bohr mag/cell
     absolute magnetization    =     3.41 Bohr mag/cell

     iteration # 19     ecut=    70.00 Ry     beta= 0.70
     Davidson diagonalization with overlap
     ethr =  6.31E-05,  avg # of iterations =  4.0

     negative rho (up, down):  6.330E-02 1.356E-01

     total cpu time spent up to now is     2031.5 secs

     total energy              =    -860.04165351 Ry
     Harris-Foulkes estimate   =    -860.07611574 Ry
     estimated scf accuracy    <       0.55121707 Ry

     total magnetization       =     2.00 Bohr mag/cell
     absolute magnetization    =     3.25 Bohr mag/cell

     iteration # 20     ecut=    70.00 Ry     beta= 0.70
     Davidson diagonalization with overlap
     ethr =  6.31E-05,  avg # of iterations =  2.5

     negative rho (up, down):  1.787E-02 2.676E-01

     total cpu time spent up to now is     2134.4 secs

     total energy              =    -860.19608551 Ry
     Harris-Foulkes estimate   =    -860.08475676 Ry
     estimated scf accuracy    <       0.62909580 Ry

     total magnetization       =     2.07 Bohr mag/cell
     absolute magnetization    =     3.84 Bohr mag/cell

     iteration # 21     ecut=    70.00 Ry     beta= 0.70
     Davidson diagonalization with overlap
     ethr =  6.31E-05,  avg # of iterations =  8.0

     negative rho (up, down):  1.573E-01 3.935E-01

     total cpu time spent up to now is     2256.7 secs

     total energy              =    -859.15051031 Ry
     Harris-Foulkes estimate   =    -860.36213204 Ry
     estimated scf accuracy    <      45.23669870 Ry

     total magnetization       =     2.00 Bohr mag/cell
     absolute magnetization    =    11.08 Bohr mag/cell

     iteration # 22     ecut=    70.00 Ry     beta= 0.70
     Davidson diagonalization with overlap
     ethr =  6.31E-05,  avg # of iterations =  6.0

     negative rho (up, down):  5.007E-02 3.308E-01

     total cpu time spent up to now is     2380.2 secs

     total energy              =    -860.02325891 Ry
     Harris-Foulkes estimate   =    -859.98660806 Ry
     estimated scf accuracy    <       0.37518808 Ry

     total magnetization       =     0.00 Bohr mag/cell
     absolute magnetization    =     3.83 Bohr mag/cell

     iteration # 23     ecut=    70.00 Ry     beta= 0.70
     Davidson diagonalization with overlap
     ethr =  6.31E-05,  avg # of iterations =  3.0

     negative rho (up, down):  1.763E-02 2.713E-01

     total cpu time spent up to now is     2478.4 secs

     total energy              =    -860.04638106 Ry
     Harris-Foulkes estimate   =    -860.04394423 Ry
     estimated scf accuracy    <       0.10313894 Ry

     total magnetization       =     2.02 Bohr mag/cell
     absolute magnetization    =     3.55 Bohr mag/cell

     iteration # 24     ecut=    70.00 Ry     beta= 0.70
     Davidson diagonalization with overlap
     ethr =  4.82E-05,  avg # of iterations =  5.5

     negative rho (up, down):  5.748E-03 2.236E-01

     total cpu time spent up to now is     2579.9 secs

     total energy              =    -860.07658330 Ry
     Harris-Foulkes estimate   =    -860.06581303 Ry
     estimated scf accuracy    <       0.19354966 Ry

     total magnetization       =     2.00 Bohr mag/cell
     absolute magnetization    =     3.38 Bohr mag/cell

     iteration # 25     ecut=    70.00 Ry     beta= 0.70
     Davidson diagonalization with overlap
     ethr =  4.82E-05,  avg # of iterations =  2.5

     negative rho (up, down):  2.918E-03 2.375E-01

     total cpu time spent up to now is     2678.8 secs

     total energy              =    -860.10247815 Ry
     Harris-Foulkes estimate   =    -860.09137986 Ry
     estimated scf accuracy    <       0.10765157 Ry

     total magnetization       =     2.00 Bohr mag/cell
     absolute magnetization    =     3.48 Bohr mag/cell

     iteration # 26     ecut=    70.00 Ry     beta= 0.70
     Davidson diagonalization with overlap
     ethr =  4.82E-05,  avg # of iterations =  2.0

     negative rho (up, down):  4.493E-03 2.539E-01

     total cpu time spent up to now is     2771.2 secs

     total energy              =    -860.09065268 Ry
     Harris-Foulkes estimate   =    -860.10829833 Ry
     estimated scf accuracy    <       0.17993649 Ry

     total magnetization       =     1.35 Bohr mag/cell
     absolute magnetization    =     3.58 Bohr mag/cell

     iteration # 27     ecut=    70.00 Ry     beta= 0.70
     Davidson diagonalization with overlap
     ethr =  4.82E-05,  avg # of iterations =  2.0

     negative rho (up, down):  3.238E-03 2.591E-01

     total cpu time spent up to now is     2866.8 secs

     total energy              =    -860.09142092 Ry
     Harris-Foulkes estimate   =    -860.10096555 Ry
     estimated scf accuracy    <       0.17110537 Ry

     total magnetization       =     0.67 Bohr mag/cell
     absolute magnetization    =     3.57 Bohr mag/cell

     iteration # 28     ecut=    70.00 Ry     beta= 0.70
     Davidson diagonalization with overlap
     ethr =  4.82E-05,  avg # of iterations =  1.5

     negative rho (up, down):  8.663E-03 1.800E-01

     total cpu time spent up to now is     2957.4 secs

     total energy              =    -860.06428293 Ry
     Harris-Foulkes estimate   =    -860.09420693 Ry
     estimated scf accuracy    <       0.16408519 Ry

     total magnetization       =     0.02 Bohr mag/cell
     absolute magnetization    =     3.48 Bohr mag/cell

     iteration # 29     ecut=    70.00 Ry     beta= 0.70
     Davidson diagonalization with overlap
     ethr =  4.82E-05,  avg # of iterations =  3.0

     negative rho (up, down):  2.022E-02 2.221E-01

     total cpu time spent up to now is     3065.8 secs

     total energy              =    -860.04999056 Ry
     Harris-Foulkes estimate   =    -860.10899719 Ry
     estimated scf accuracy    <       0.33474094 Ry

     total magnetization       =     2.00 Bohr mag/cell
     absolute magnetization    =     3.74 Bohr mag/cell

     iteration # 30     ecut=    70.00 Ry     beta= 0.70
     Davidson diagonalization with overlap
     ethr =  4.82E-05,  avg # of iterations =  5.5

     negative rho (up, down):  2.849E-02 2.485E-01

     total cpu time spent up to now is     3170.0 secs

     total energy              =    -860.06619640 Ry
     Harris-Foulkes estimate   =    -860.07756287 Ry
     estimated scf accuracy    <       0.27162118 Ry

     total magnetization       =     2.00 Bohr mag/cell
     absolute magnetization    =     3.74 Bohr mag/cell

     iteration # 31     ecut=    70.00 Ry     beta= 0.70
     Davidson diagonalization with overlap
     ethr =  4.82E-05,  avg # of iterations =  2.5

     negative rho (up, down):  2.871E-02 2.758E-01

     total cpu time spent up to now is     3266.9 secs

     total energy              =    -860.07555762 Ry
     Harris-Foulkes estimate   =    -860.08894975 Ry
     estimated scf accuracy    <       0.63976034 Ry

     total magnetization       =     1.66 Bohr mag/cell
     absolute magnetization    =     4.06 Bohr mag/cell

     iteration # 32     ecut=    70.00 Ry     beta= 0.70
     Davidson diagonalization with overlap
     ethr =  4.82E-05,  avg # of iterations =  3.0

     negative rho (up, down):  2.002E-02 2.533E-01

     total cpu time spent up to now is     3363.3 secs

     total energy              =    -860.05697262 Ry
     Harris-Foulkes estimate   =    -860.08325013 Ry
     estimated scf accuracy    <       0.39018708 Ry

     total magnetization       =     1.98 Bohr mag/cell
     absolute magnetization    =     3.92 Bohr mag/cell

     iteration # 33     ecut=    70.00 Ry     beta= 0.70
     Davidson diagonalization with overlap
     ethr =  4.82E-05,  avg # of iterations =  3.0

     negative rho (up, down):  2.195E-02 2.537E-01

     total cpu time spent up to now is     3463.9 secs

     total energy              =    -860.05720280 Ry
     Harris-Foulkes estimate   =    -860.07978290 Ry
     estimated scf accuracy    <       0.24638257 Ry

     total magnetization       =     1.90 Bohr mag/cell
     absolute magnetization    =     3.80 Bohr mag/cell

     iteration # 34     ecut=    70.00 Ry     beta= 0.70
     Davidson diagonalization with overlap
     ethr =  4.82E-05,  avg # of iterations =  2.5

     negative rho (up, down):  1.531E-02 2.131E-01

     total cpu time spent up to now is     3559.7 secs

     total energy              =    -860.07190409 Ry
     Harris-Foulkes estimate   =    -860.07347895 Ry
     estimated scf accuracy    <       0.14940615 Ry

     total magnetization       =     2.00 Bohr mag/cell
     absolute magnetization    =     3.49 Bohr mag/cell

     iteration # 35     ecut=    70.00 Ry     beta= 0.70
     Davidson diagonalization with overlap
     ethr =  4.82E-05,  avg # of iterations =  3.0

     negative rho (up, down):  1.144E-02 2.415E-01

     total cpu time spent up to now is     3660.4 secs

     total energy              =    -860.11224157 Ry
     Harris-Foulkes estimate   =    -860.10231038 Ry
     estimated scf accuracy    <       0.56724393 Ry

     total magnetization       =     2.00 Bohr mag/cell
     absolute magnetization    =     3.91 Bohr mag/cell

     iteration # 36     ecut=    70.00 Ry     beta= 0.70
     Davidson diagonalization with overlap
     ethr =  4.82E-05,  avg # of iterations =  3.0

     negative rho (up, down):  1.166E-02 2.918E-01

     total cpu time spent up to now is     3764.5 secs

     total energy              =    -859.93897869 Ry
     Harris-Foulkes estimate   =    -860.15199085 Ry
     estimated scf accuracy    <       0.75514310 Ry

     total magnetization       =     2.00 Bohr mag/cell
     absolute magnetization    =     4.34 Bohr mag/cell

     iteration # 37     ecut=    70.00 Ry     beta= 0.70
     Davidson diagonalization with overlap
     ethr =  4.82E-05,  avg # of iterations =  3.5

     negative rho (up, down):  3.149E-02 2.416E-01

     total cpu time spent up to now is     3883.2 secs

     total energy              =    -860.04373006 Ry
     Harris-Foulkes estimate   =    -860.09759519 Ry
     estimated scf accuracy    <       0.39188292 Ry

     total magnetization       =     2.00 Bohr mag/cell
     absolute magnetization    =     3.64 Bohr mag/cell

     iteration # 38     ecut=    70.00 Ry     beta= 0.70
     Davidson diagonalization with overlap
     ethr =  4.82E-05,  avg # of iterations =  3.0

     negative rho (up, down):  3.404E-02 2.176E-01

     total cpu time spent up to now is     3983.1 secs

     total energy              =    -860.05353371 Ry
     Harris-Foulkes estimate   =    -860.05956273 Ry
     estimated scf accuracy    <       0.16656980 Ry

     total magnetization       =     2.00 Bohr mag/cell
     absolute magnetization    =     3.49 Bohr mag/cell

     iteration # 39     ecut=    70.00 Ry     beta= 0.70
     Davidson diagonalization with overlap
     ethr =  4.82E-05,  avg # of iterations =  1.5

     negative rho (up, down):  5.995E-02 9.623E-02

     total cpu time spent up to now is     4074.1 secs

     total energy              =    -860.05002768 Ry
     Harris-Foulkes estimate   =    -860.05823138 Ry
     estimated scf accuracy    <       0.08869009 Ry

     total magnetization       =     2.00 Bohr mag/cell
     absolute magnetization    =     3.42 Bohr mag/cell

     iteration # 40     ecut=    70.00 Ry     beta= 0.70
     Davidson diagonalization with overlap
     ethr =  4.14E-05,  avg # of iterations =  5.0

     negative rho (up, down):  4.277E-02 1.660E-01

     total cpu time spent up to now is     4184.7 secs

     total energy              =    -860.07035638 Ry
     Harris-Foulkes estimate   =    -860.09547771 Ry
     estimated scf accuracy    <       0.56727701 Ry

     total magnetization       =     2.15 Bohr mag/cell
     absolute magnetization    =     3.68 Bohr mag/cell

     iteration # 41     ecut=    70.00 Ry     beta= 0.70
     Davidson diagonalization with overlap
     ethr =  4.14E-05,  avg # of iterations =  2.5

     negative rho (up, down):  1.726E-02 2.804E-01

     total cpu time spent up to now is     4284.0 secs

     total energy              =    -860.08890708 Ry
     Harris-Foulkes estimate   =    -860.09480199 Ry
     estimated scf accuracy    <       0.57455502 Ry

     total magnetization       =     1.91 Bohr mag/cell
     absolute magnetization    =     3.96 Bohr mag/cell

     iteration # 42     ecut=    70.00 Ry     beta= 0.70
     Davidson diagonalization with overlap
     ethr =  4.14E-05,  avg # of iterations =  4.0

     negative rho (up, down):  1.478E-02 2.812E-01

     total cpu time spent up to now is     4386.6 secs

     total energy              =    -860.04327619 Ry
     Harris-Foulkes estimate   =    -860.11369569 Ry
     estimated scf accuracy    <       0.48784260 Ry

     total magnetization       =     0.00 Bohr mag/cell
     absolute magnetization    =     3.62 Bohr mag/cell

     iteration # 43     ecut=    70.00 Ry     beta= 0.70
     Davidson diagonalization with overlap
     ethr =  4.14E-05,  avg # of iterations =  3.0

     negative rho (up, down):  7.582E-03 2.591E-01

     total cpu time spent up to now is     4496.3 secs

     total energy              =    -860.08508453 Ry
     Harris-Foulkes estimate   =    -860.08592366 Ry
     estimated scf accuracy    <       0.14272391 Ry

     total magnetization       =     2.00 Bohr mag/cell
     absolute magnetization    =     3.61 Bohr mag/cell

     iteration # 44     ecut=    70.00 Ry     beta= 0.70
     Davidson diagonalization with overlap
     ethr =  4.14E-05,  avg # of iterations =  3.5

     negative rho (up, down):  3.713E-03 2.527E-01

     total cpu time spent up to now is     4593.6 secs

     total energy              =    -860.09204668 Ry
     Harris-Foulkes estimate   =    -860.09771210 Ry
     estimated scf accuracy    <       0.18778763 Ry

     total magnetization       =     1.84 Bohr mag/cell
     absolute magnetization    =     3.60 Bohr mag/cell

     iteration # 45     ecut=    70.00 Ry     beta= 0.70
     Davidson diagonalization with overlap
     ethr =  4.14E-05,  avg # of iterations =  2.5

     negative rho (up, down):  2.781E-03 2.428E-01

     total cpu time spent up to now is     4686.2 secs

     total energy              =    -860.12293842 Ry
     Harris-Foulkes estimate   =    -860.10307513 Ry
     estimated scf accuracy    <       0.23168912 Ry

     total magnetization       =     2.00 Bohr mag/cell
     absolute magnetization    =     3.55 Bohr mag/cell

     iteration # 46     ecut=    70.00 Ry     beta= 0.70
     Davidson diagonalization with overlap
     ethr =  4.14E-05,  avg # of iterations =  3.0

     negative rho (up, down):  1.349E-02 2.912E-01

     total cpu time spent up to now is     4789.0 secs

     total energy              =    -859.96808009 Ry
     Harris-Foulkes estimate   =    -860.15277496 Ry
     estimated scf accuracy    <       0.47540944 Ry

     total magnetization       =     2.00 Bohr mag/cell
     absolute magnetization    =     4.15 Bohr mag/cell

     iteration # 47     ecut=    70.00 Ry     beta= 0.70
     Davidson diagonalization with overlap
     ethr =  4.14E-05,  avg # of iterations =  3.5

     negative rho (up, down):  7.938E-03 2.686E-01

     total cpu time spent up to now is     4899.2 secs

     total energy              =    -860.07993329 Ry
     Harris-Foulkes estimate   =    -860.07986696 Ry
     estimated scf accuracy    <       0.15140996 Ry

     total magnetization       =     2.13 Bohr mag/cell
     absolute magnetization    =     3.59 Bohr mag/cell

     iteration # 48     ecut=    70.00 Ry     beta= 0.70
     Davidson diagonalization with overlap
     ethr =  4.14E-05,  avg # of iterations =  2.5

     negative rho (up, down):  7.182E-03 2.488E-01

     total cpu time spent up to now is     4992.0 secs

     total energy              =    -860.06857918 Ry
     Harris-Foulkes estimate   =    -860.08183464 Ry
     estimated scf accuracy    <       0.13338552 Ry

     total magnetization       =     1.84 Bohr mag/cell
     absolute magnetization    =     3.53 Bohr mag/cell

     iteration # 49     ecut=    70.00 Ry     beta= 0.70
     Davidson diagonalization with overlap
     ethr =  4.14E-05,  avg # of iterations =  3.5

     negative rho (up, down):  4.718E-03 2.399E-01

     total cpu time spent up to now is     5091.6 secs

     total energy              =    -860.04938907 Ry
     Harris-Foulkes estimate   =    -860.08437621 Ry
     estimated scf accuracy    <       0.17722436 Ry

     total magnetization       =     0.01 Bohr mag/cell
     absolute magnetization    =     3.15 Bohr mag/cell

     iteration # 50     ecut=    70.00 Ry     beta= 0.70
     Davidson diagonalization with overlap
     ethr =  4.14E-05,  avg # of iterations =  4.0

     negative rho (up, down):  3.496E-03 2.224E-01

     total cpu time spent up to now is     5203.1 secs

     total energy              =    -860.05990133 Ry
     Harris-Foulkes estimate   =    -860.10307673 Ry
     estimated scf accuracy    <       0.40722876 Ry

     total magnetization       =     2.00 Bohr mag/cell
     absolute magnetization    =     3.39 Bohr mag/cell

     iteration # 51     ecut=    70.00 Ry     beta= 0.70
     Davidson diagonalization with overlap
     ethr =  4.14E-05,  avg # of iterations =  4.0

     negative rho (up, down):  3.204E-03 2.376E-01

     total cpu time spent up to now is     5304.5 secs

     total energy              =    -860.05281922 Ry
     Harris-Foulkes estimate   =    -860.08899437 Ry
     estimated scf accuracy    <       0.15099992 Ry

     total magnetization       =     2.00 Bohr mag/cell
     absolute magnetization    =     3.39 Bohr mag/cell

     iteration # 52     ecut=    70.00 Ry     beta= 0.70
     Davidson diagonalization with overlap
     ethr =  4.14E-05,  avg # of iterations =  2.5

     negative rho (up, down):  7.411E-03 1.744E-01

     total cpu time spent up to now is     5401.2 secs

     total energy              =    -860.02122718 Ry
     Harris-Foulkes estimate   =    -860.06835341 Ry
     estimated scf accuracy    <       0.10892365 Ry

     total magnetization       =     2.00 Bohr mag/cell
     absolute magnetization    =     3.24 Bohr mag/cell

     iteration # 53     ecut=    70.00 Ry     beta= 0.70
     Davidson diagonalization with overlap
     ethr =  4.14E-05,  avg # of iterations =  2.5

     negative rho (up, down):  7.084E-03 1.010E-01

     total cpu time spent up to now is     5500.7 secs

     total energy              =    -860.04473060 Ry
     Harris-Foulkes estimate   =    -860.05009101 Ry
     estimated scf accuracy    <       0.08579873 Ry

     total magnetization       =     2.10 Bohr mag/cell
     absolute magnetization    =     3.07 Bohr mag/cell

     iteration # 54     ecut=    70.00 Ry     beta= 0.70
     Davidson diagonalization with overlap
     ethr =  4.01E-05,  avg # of iterations =  1.5

     negative rho (up, down):  6.645E-03 5.037E-02

     total cpu time spent up to now is     5591.9 secs

     total energy              =    -860.04637015 Ry
     Harris-Foulkes estimate   =    -860.04876299 Ry
     estimated scf accuracy    <       0.05635243 Ry

     total magnetization       =     1.95 Bohr mag/cell
     absolute magnetization    =     2.97 Bohr mag/cell

     iteration # 55     ecut=    70.00 Ry     beta= 0.70
     Davidson diagonalization with overlap
     ethr =  2.63E-05,  avg # of iterations =  1.0

     negative rho (up, down):  8.339E-03 4.945E-02

     total cpu time spent up to now is     5681.2 secs

     total energy              =    -860.04603091 Ry
     Harris-Foulkes estimate   =    -860.04760938 Ry
     estimated scf accuracy    <       0.05130822 Ry

     total magnetization       =     1.91 Bohr mag/cell
     absolute magnetization    =     2.96 Bohr mag/cell

     iteration # 56     ecut=    70.00 Ry     beta= 0.70
     Davidson diagonalization with overlap
     ethr =  2.40E-05,  avg # of iterations =  2.0

     negative rho (up, down):  8.220E-03 3.689E-02

     total cpu time spent up to now is     5772.1 secs

     total energy              =    -860.04509199 Ry
     Harris-Foulkes estimate   =    -860.04699461 Ry
     estimated scf accuracy    <       0.06180955 Ry

     total magnetization       =     1.98 Bohr mag/cell
     absolute magnetization    =     2.95 Bohr mag/cell

     iteration # 57     ecut=    70.00 Ry     beta= 0.70
     Davidson diagonalization with overlap
     ethr =  2.40E-05,  avg # of iterations =  1.5

     negative rho (up, down):  1.376E-03 9.337E-02

     total cpu time spent up to now is     5864.7 secs

     total energy              =    -860.04552488 Ry
     Harris-Foulkes estimate   =    -860.04760621 Ry
     estimated scf accuracy    <       0.06485667 Ry

     total magnetization       =     1.85 Bohr mag/cell
     absolute magnetization    =     2.95 Bohr mag/cell

     iteration # 58     ecut=    70.00 Ry     beta= 0.70
     Davidson diagonalization with overlap
     ethr =  2.40E-05,  avg # of iterations =  2.5

     negative rho (up, down):  5.527E-03 9.201E-02

     total cpu time spent up to now is     5968.8 secs

     total energy              =    -860.05214254 Ry
     Harris-Foulkes estimate   =    -860.05832644 Ry
     estimated scf accuracy    <       0.02543850 Ry

     total magnetization       =     1.97 Bohr mag/cell
     absolute magnetization    =     3.06 Bohr mag/cell

     iteration # 59     ecut=    70.00 Ry     beta= 0.70
     Davidson diagonalization with overlap
     ethr =  1.19E-05,  avg # of iterations =  3.0

     negative rho (up, down):  4.608E-03 1.441E-01

     total cpu time spent up to now is     6073.6 secs

     total energy              =    -860.06091212 Ry
     Harris-Foulkes estimate   =    -860.06038938 Ry
     estimated scf accuracy    <       0.02027406 Ry

     total magnetization       =     2.00 Bohr mag/cell
     absolute magnetization    =     3.10 Bohr mag/cell

     iteration # 60     ecut=    70.00 Ry     beta= 0.70
     Davidson diagonalization with overlap
     ethr =  9.47E-06,  avg # of iterations =  2.5

     negative rho (up, down):  4.366E-03 1.756E-01

     total cpu time spent up to now is     6164.1 secs

     total energy              =    -860.06081294 Ry
     Harris-Foulkes estimate   =    -860.06158939 Ry
     estimated scf accuracy    <       0.02404815 Ry

     total magnetization       =     1.98 Bohr mag/cell
     absolute magnetization    =     3.13 Bohr mag/cell

     iteration # 61     ecut=    70.00 Ry     beta= 0.70
     Davidson diagonalization with overlap
     ethr =  9.47E-06,  avg # of iterations =  2.0

     negative rho (up, down):  3.067E-03 1.804E-01

     total cpu time spent up to now is     6254.8 secs

     total energy              =    -860.06167975 Ry
     Harris-Foulkes estimate   =    -860.06206046 Ry
     estimated scf accuracy    <       0.04537313 Ry

     total magnetization       =     1.86 Bohr mag/cell
     absolute magnetization    =     3.15 Bohr mag/cell

     iteration # 62     ecut=    70.00 Ry     beta= 0.70
     Davidson diagonalization with overlap
     ethr =  9.47E-06,  avg # of iterations =  2.5

     negative rho (up, down):  1.509E-03 1.737E-01

     total cpu time spent up to now is     6349.6 secs

     total energy              =    -860.07222790 Ry
     Harris-Foulkes estimate   =    -860.06398481 Ry
     estimated scf accuracy    <       0.02577575 Ry

     total magnetization       =     2.00 Bohr mag/cell
     absolute magnetization    =     3.15 Bohr mag/cell

     iteration # 63     ecut=    70.00 Ry     beta= 0.70
     Davidson diagonalization with overlap
     ethr =  9.47E-06,  avg # of iterations =  3.0

     negative rho (up, down):  1.801E-03 2.190E-01

     total cpu time spent up to now is     6452.5 secs

     total energy              =    -860.06297080 Ry
     Harris-Foulkes estimate   =    -860.08007080 Ry
     estimated scf accuracy    <       0.14729665 Ry

     total magnetization       =     1.01 Bohr mag/cell
     absolute magnetization    =     2.73 Bohr mag/cell

     iteration # 64     ecut=    70.00 Ry     beta= 0.70
     Davidson diagonalization with overlap
     ethr =  9.47E-06,  avg # of iterations =  3.0

     negative rho (up, down):  2.673E-03 2.197E-01

     total cpu time spent up to now is     6550.5 secs

     total energy              =    -860.05852828 Ry
     Harris-Foulkes estimate   =    -860.06848562 Ry
     estimated scf accuracy    <       0.02981144 Ry

     total magnetization       =     1.98 Bohr mag/cell
     absolute magnetization    =     3.18 Bohr mag/cell

     iteration # 65     ecut=    70.00 Ry     beta= 0.70
     Davidson diagonalization with overlap
     ethr =  9.47E-06,  avg # of iterations =  2.5

     negative rho (up, down):  2.605E-03 1.924E-01

     total cpu time spent up to now is     6646.9 secs

     total energy              =    -860.06108452 Ry
     Harris-Foulkes estimate   =    -860.06175946 Ry
     estimated scf accuracy    <       0.02820126 Ry

     total magnetization       =     2.00 Bohr mag/cell
     absolute magnetization    =     3.06 Bohr mag/cell

     iteration # 66     ecut=    70.00 Ry     beta= 0.70
     Davidson diagonalization with overlap
     ethr =  9.47E-06,  avg # of iterations =  2.0

     negative rho (up, down):  2.760E-03 1.952E-01

     total cpu time spent up to now is     6741.0 secs

     total energy              =    -860.06009239 Ry
     Harris-Foulkes estimate   =    -860.06379615 Ry
     estimated scf accuracy    <       0.02481004 Ry

     total magnetization       =     2.00 Bohr mag/cell
     absolute magnetization    =     3.06 Bohr mag/cell

     iteration # 67     ecut=    70.00 Ry     beta= 0.70
     Davidson diagonalization with overlap
     ethr =  9.47E-06,  avg # of iterations =  1.5

     negative rho (up, down):  4.466E-03 1.593E-01

     total cpu time spent up to now is     6831.5 secs

     total energy              =    -860.06309817 Ry
     Harris-Foulkes estimate   =    -860.06094639 Ry
     estimated scf accuracy    <       0.01960155 Ry

     total magnetization       =     1.99 Bohr mag/cell
     absolute magnetization    =     3.03 Bohr mag/cell

     iteration # 68     ecut=    70.00 Ry     beta= 0.70
     Davidson diagonalization with overlap
     ethr =  9.16E-06,  avg # of iterations =  2.0

     negative rho (up, down):  4.752E-03 1.783E-01

     total cpu time spent up to now is     6927.2 secs

     total energy              =    -860.06527930 Ry
     Harris-Foulkes estimate   =    -860.06546596 Ry
     estimated scf accuracy    <       0.03737886 Ry

     total magnetization       =     1.99 Bohr mag/cell
     absolute magnetization    =     3.02 Bohr mag/cell

     iteration # 69     ecut=    70.00 Ry     beta= 0.70
     Davidson diagonalization with overlap
     ethr =  9.16E-06,  avg # of iterations =  1.0

     negative rho (up, down):  2.697E-03 2.045E-01

     total cpu time spent up to now is     7016.4 secs

     total energy              =    -860.06154081 Ry
     Harris-Foulkes estimate   =    -860.06540836 Ry
     estimated scf accuracy    <       0.03749561 Ry

     total magnetization       =     1.99 Bohr mag/cell
     absolute magnetization    =     3.02 Bohr mag/cell

     iteration # 70     ecut=    70.00 Ry     beta= 0.70
     Davidson diagonalization with overlap
     ethr =  9.16E-06,  avg # of iterations =  3.0

     negative rho (up, down):  1.914E-03 2.013E-01

     total cpu time spent up to now is     7120.8 secs

     total energy              =    -860.06872460 Ry
     Harris-Foulkes estimate   =    -860.06853925 Ry
     estimated scf accuracy    <       0.04181724 Ry

     total magnetization       =     1.97 Bohr mag/cell
     absolute magnetization    =     3.12 Bohr mag/cell

     iteration # 71     ecut=    70.00 Ry     beta= 0.70
     Davidson diagonalization with overlap
     ethr =  9.16E-06,  avg # of iterations =  2.0

     negative rho (up, down):  2.395E-03 1.855E-01

     total cpu time spent up to now is     7213.8 secs

     total energy              =    -860.06501462 Ry
     Harris-Foulkes estimate   =    -860.06983864 Ry
     estimated scf accuracy    <       0.04139993 Ry

     total magnetization       =     1.95 Bohr mag/cell
     absolute magnetization    =     3.17 Bohr mag/cell

     iteration # 72     ecut=    70.00 Ry     beta= 0.70
     Davidson diagonalization with overlap
     ethr =  9.16E-06,  avg # of iterations =  3.0

     negative rho (up, down):  8.589E-04 2.120E-01

     total cpu time spent up to now is     7315.4 secs

     total energy              =    -860.06641573 Ry
     Harris-Foulkes estimate   =    -860.06958466 Ry
     estimated scf accuracy    <       0.05028031 Ry

     total magnetization       =     2.11 Bohr mag/cell
     absolute magnetization    =     3.21 Bohr mag/cell

     iteration # 73     ecut=    70.00 Ry     beta= 0.70
     Davidson diagonalization with overlap
     ethr =  9.16E-06,  avg # of iterations =  3.5

     negative rho (up, down):  1.149E-03 1.930E-01

     total cpu time spent up to now is     7422.7 secs

     total energy              =    -860.05726964 Ry
     Harris-Foulkes estimate   =    -860.07753148 Ry
     estimated scf accuracy    <       0.32815311 Ry

     total magnetization       =     0.02 Bohr mag/cell
     absolute magnetization    =     2.05 Bohr mag/cell

     iteration # 74     ecut=    70.00 Ry     beta= 0.70
     Davidson diagonalization with overlap
     ethr =  9.16E-06,  avg # of iterations =  3.0

     negative rho (up, down):  2.116E-03 2.256E-01

     total cpu time spent up to now is     7524.1 secs

     total energy              =    -860.05118239 Ry
     Harris-Foulkes estimate   =    -860.07769815 Ry
     estimated scf accuracy    <       0.05587187 Ry

     total magnetization       =     2.17 Bohr mag/cell
     absolute magnetization    =     3.31 Bohr mag/cell

     iteration # 75     ecut=    70.00 Ry     beta= 0.70
     Davidson diagonalization with overlap
     ethr =  9.16E-06,  avg # of iterations =  4.0

     negative rho (up, down):  1.441E-03 2.145E-01

     total cpu time spent up to now is     7639.5 secs

     total energy              =    -860.05066934 Ry
     Harris-Foulkes estimate   =    -860.06382163 Ry
     estimated scf accuracy    <       0.04175788 Ry

     total magnetization       =     1.96 Bohr mag/cell
     absolute magnetization    =     3.05 Bohr mag/cell

     iteration # 76     ecut=    70.00 Ry     beta= 0.70
     Davidson diagonalization with overlap
     ethr =  9.16E-06,  avg # of iterations =  4.0

     negative rho (up, down):  2.493E-03 1.858E-01

     total cpu time spent up to now is     7748.4 secs

     total energy              =    -860.04621648 Ry
     Harris-Foulkes estimate   =    -860.05689374 Ry
     estimated scf accuracy    <       0.01521071 Ry

     total magnetization       =     1.85 Bohr mag/cell
     absolute magnetization    =     3.00 Bohr mag/cell

     iteration # 77     ecut=    70.00 Ry     beta= 0.70
     Davidson diagonalization with overlap
     ethr =  7.11E-06,  avg # of iterations =  4.0

     negative rho (up, down):  1.877E-03 1.454E-01

     total cpu time spent up to now is     7862.7 secs

     total energy              =    -860.05030305 Ry
     Harris-Foulkes estimate   =    -860.05328071 Ry
     estimated scf accuracy    <       0.01312006 Ry

     total magnetization       =     1.98 Bohr mag/cell
     absolute magnetization    =     2.93 Bohr mag/cell

     iteration # 78     ecut=    70.00 Ry     beta= 0.70
     Davidson diagonalization with overlap
     ethr =  6.13E-06,  avg # of iterations =  4.0

     negative rho (up, down):  1.641E-03 1.325E-01

     total cpu time spent up to now is     7958.8 secs

     total energy              =    -860.05127993 Ry
     Harris-Foulkes estimate   =    -860.05248903 Ry
     estimated scf accuracy    <       0.00903266 Ry

     total magnetization       =     1.96 Bohr mag/cell
     absolute magnetization    =     2.93 Bohr mag/cell

     iteration # 79     ecut=    70.00 Ry     beta= 0.70
     Davidson diagonalization with overlap
     ethr =  4.22E-06,  avg # of iterations =  2.0

     negative rho (up, down):  1.142E-03 1.303E-01

     total cpu time spent up to now is     8050.0 secs

     total energy              =    -860.05089110 Ry
     Harris-Foulkes estimate   =    -860.05180709 Ry
     estimated scf accuracy    <       0.00311116 Ry

     total magnetization       =     1.95 Bohr mag/cell
     absolute magnetization    =     2.94 Bohr mag/cell

     iteration # 80     ecut=    70.00 Ry     beta= 0.70
     Davidson diagonalization with overlap
     ethr =  1.45E-06,  avg # of iterations =  2.0

     negative rho (up, down):  7.625E-04 1.036E-01

     total cpu time spent up to now is     8152.5 secs

     total energy              =    -860.05131803 Ry
     Harris-Foulkes estimate   =    -860.05175113 Ry
     estimated scf accuracy    <       0.00297675 Ry

     total magnetization       =     1.92 Bohr mag/cell
     absolute magnetization    =     2.95 Bohr mag/cell

     iteration # 81     ecut=    70.00 Ry     beta= 0.70
     Davidson diagonalization with overlap
     ethr =  1.39E-06,  avg # of iterations =  3.5

     negative rho (up, down):  6.326E-04 8.571E-02

     total cpu time spent up to now is     8261.1 secs

     total energy              =    -860.05246996 Ry
     Harris-Foulkes estimate   =    -860.05289650 Ry
     estimated scf accuracy    <       0.00362093 Ry

     total magnetization       =     1.96 Bohr mag/cell
     absolute magnetization    =     2.99 Bohr mag/cell

     iteration # 82     ecut=    70.00 Ry     beta= 0.70
     Davidson diagonalization with overlap
     ethr =  1.39E-06,  avg # of iterations =  2.0

     negative rho (up, down):  7.156E-04 5.702E-02

     total cpu time spent up to now is     8363.3 secs

     total energy              =    -860.05339956 Ry
     Harris-Foulkes estimate   =    -860.05345054 Ry
     estimated scf accuracy    <       0.00187390 Ry

     total magnetization       =     1.87 Bohr mag/cell
     absolute magnetization    =     3.04 Bohr mag/cell

     iteration # 83     ecut=    70.00 Ry     beta= 0.70
     Davidson diagonalization with overlap
     ethr =  8.76E-07,  avg # of iterations =  2.5

     negative rho (up, down):  1.369E-03 5.263E-02

     total cpu time spent up to now is     8453.4 secs

     total energy              =    -860.05160706 Ry
     Harris-Foulkes estimate   =    -860.05345908 Ry
     estimated scf accuracy    <       0.00314084 Ry

     total magnetization       =     1.85 Bohr mag/cell
     absolute magnetization    =     3.05 Bohr mag/cell

     iteration # 84     ecut=    70.00 Ry     beta= 0.70
     Davidson diagonalization with overlap
     ethr =  8.76E-07,  avg # of iterations =  2.5

     negative rho (up, down):  1.456E-03 4.542E-02

     total cpu time spent up to now is     8554.9 secs

     total energy              =    -860.05180537 Ry
     Harris-Foulkes estimate   =    -860.05214727 Ry
     estimated scf accuracy    <       0.00170676 Ry

     total magnetization       =     1.85 Bohr mag/cell
     absolute magnetization    =     3.02 Bohr mag/cell

     iteration # 85     ecut=    70.00 Ry     beta= 0.70
     Davidson diagonalization with overlap
     ethr =  7.98E-07,  avg # of iterations =  2.0

     negative rho (up, down):  1.415E-03 3.989E-02

     total cpu time spent up to now is     8649.7 secs

     total energy              =    -860.05191189 Ry
     Harris-Foulkes estimate   =    -860.05196008 Ry
     estimated scf accuracy    <       0.00187316 Ry

     total magnetization       =     1.93 Bohr mag/cell
     absolute magnetization    =     3.00 Bohr mag/cell

     iteration # 86     ecut=    70.00 Ry     beta= 0.70
     Davidson diagonalization with overlap
     ethr =  7.98E-07,  avg # of iterations =  2.0

     negative rho (up, down):  2.352E-03 4.578E-02

     total cpu time spent up to now is     8740.6 secs

     total energy              =    -860.05062650 Ry
     Harris-Foulkes estimate   =    -860.05205996 Ry
     estimated scf accuracy    <       0.00306913 Ry

     total magnetization       =     1.93 Bohr mag/cell
     absolute magnetization    =     3.00 Bohr mag/cell

     iteration # 87     ecut=    70.00 Ry     beta= 0.70
     Davidson diagonalization with overlap
     ethr =  7.98E-07,  avg # of iterations =  2.0

     negative rho (up, down):  1.294E-03 4.311E-02

     total cpu time spent up to now is     8841.7 secs

     total energy              =    -860.05160521 Ry
     Harris-Foulkes estimate   =    -860.05112284 Ry
     estimated scf accuracy    <       0.00231409 Ry

     total magnetization       =     1.84 Bohr mag/cell
     absolute magnetization    =     3.04 Bohr mag/cell

     iteration # 88     ecut=    70.00 Ry     beta= 0.70
     Davidson diagonalization with overlap
     ethr =  7.98E-07,  avg # of iterations =  3.0

     negative rho (up, down):  1.763E-03 4.531E-02

     total cpu time spent up to now is     8947.2 secs

     total energy              =    -860.05178567 Ry
     Harris-Foulkes estimate   =    -860.05246001 Ry
     estimated scf accuracy    <       0.00245148 Ry

     total magnetization       =     1.97 Bohr mag/cell
     absolute magnetization    =     3.01 Bohr mag/cell

     iteration # 89     ecut=    70.00 Ry     beta= 0.70
     Davidson diagonalization with overlap
     ethr =  7.98E-07,  avg # of iterations =  2.0

     negative rho (up, down):  1.242E-03 8.692E-02

     total cpu time spent up to now is     9045.4 secs

     total energy              =    -860.05168891 Ry
     Harris-Foulkes estimate   =    -860.05211502 Ry
     estimated scf accuracy    <       0.00230446 Ry

     total magnetization       =     1.98 Bohr mag/cell
     absolute magnetization    =     3.01 Bohr mag/cell

     iteration # 90     ecut=    70.00 Ry     beta= 0.70
     Davidson diagonalization with overlap
     ethr =  7.98E-07,  avg # of iterations =  2.5

     negative rho (up, down):  9.272E-04 7.321E-02

     total cpu time spent up to now is     9146.3 secs

     total energy              =    -860.05206208 Ry
     Harris-Foulkes estimate   =    -860.05206418 Ry
     estimated scf accuracy    <       0.00287822 Ry

     total magnetization       =     1.97 Bohr mag/cell
     absolute magnetization    =     3.00 Bohr mag/cell

     iteration # 91     ecut=    70.00 Ry     beta= 0.70
     Davidson diagonalization with overlap
     ethr =  7.98E-07,  avg # of iterations =  3.0

     negative rho (up, down):  1.109E-03 6.169E-02

     total cpu time spent up to now is     9247.1 secs

     total energy              =    -860.05156935 Ry
     Harris-Foulkes estimate   =    -860.05256867 Ry
     estimated scf accuracy    <       0.00241826 Ry

     total magnetization       =     1.98 Bohr mag/cell
     absolute magnetization    =     3.02 Bohr mag/cell

     iteration # 92     ecut=    70.00 Ry     beta= 0.70
     Davidson diagonalization with overlap
     ethr =  7.98E-07,  avg # of iterations =  3.0

     negative rho (up, down):  9.569E-04 3.375E-02

     total cpu time spent up to now is     9345.6 secs

     total energy              =    -860.05221530 Ry
     Harris-Foulkes estimate   =    -860.05208149 Ry
     estimated scf accuracy    <       0.00215177 Ry

     total magnetization       =     1.93 Bohr mag/cell
     absolute magnetization    =     3.02 Bohr mag/cell

     iteration # 93     ecut=    70.00 Ry     beta= 0.70
     Davidson diagonalization with overlap
     ethr =  7.98E-07,  avg # of iterations =  3.0

     negative rho (up, down):  6.920E-04 3.425E-02

     total cpu time spent up to now is     9446.3 secs

     total energy              =    -860.05278068 Ry
     Harris-Foulkes estimate   =    -860.05255373 Ry
     estimated scf accuracy    <       0.00172273 Ry

     total magnetization       =     1.81 Bohr mag/cell
     absolute magnetization    =     3.03 Bohr mag/cell

     iteration # 94     ecut=    70.00 Ry     beta= 0.70
     Davidson diagonalization with overlap
     ethr =  7.98E-07,  avg # of iterations =  2.0

     negative rho (up, down):  6.921E-04 3.916E-02

     total cpu time spent up to now is     9541.5 secs

     total energy              =    -860.05308894 Ry
     Harris-Foulkes estimate   =    -860.05291967 Ry
     estimated scf accuracy    <       0.00116026 Ry

     total magnetization       =     1.99 Bohr mag/cell
     absolute magnetization    =     3.04 Bohr mag/cell

     iteration # 95     ecut=    70.00 Ry     beta= 0.70
     Davidson diagonalization with overlap
     ethr =  5.42E-07,  avg # of iterations =  2.0

     negative rho (up, down):  1.101E-03 4.708E-02

     total cpu time spent up to now is     9632.4 secs

     total energy              =    -860.05218207 Ry
     Harris-Foulkes estimate   =    -860.05312296 Ry
     estimated scf accuracy    <       0.00114563 Ry

     total magnetization       =     1.99 Bohr mag/cell
     absolute magnetization    =     3.04 Bohr mag/cell

     iteration # 96     ecut=    70.00 Ry     beta= 0.70
     Davidson diagonalization with overlap
     ethr =  5.35E-07,  avg # of iterations =  2.0

     negative rho (up, down):  9.208E-04 4.996E-02

     total cpu time spent up to now is     9729.3 secs

     total energy              =    -860.05224896 Ry
     Harris-Foulkes estimate   =    -860.05242033 Ry
     estimated scf accuracy    <       0.00106871 Ry

     total magnetization       =     1.99 Bohr mag/cell
     absolute magnetization    =     3.03 Bohr mag/cell

     iteration # 97     ecut=    70.00 Ry     beta= 0.70
     Davidson diagonalization with overlap
     ethr =  4.99E-07,  avg # of iterations =  2.5

     negative rho (up, down):  6.955E-04 2.550E-02

     total cpu time spent up to now is     9829.3 secs

     total energy              =    -860.05275516 Ry
     Harris-Foulkes estimate   =    -860.05253402 Ry
     estimated scf accuracy    <       0.00131014 Ry

     total magnetization       =     1.95 Bohr mag/cell
     absolute magnetization    =     3.04 Bohr mag/cell

     iteration # 98     ecut=    70.00 Ry     beta= 0.70
     Davidson diagonalization with overlap
     ethr =  4.99E-07,  avg # of iterations =  2.0

     negative rho (up, down):  7.468E-04 1.626E-02

     total cpu time spent up to now is     9925.2 secs

     total energy              =    -860.05291487 Ry
     Harris-Foulkes estimate   =    -860.05295045 Ry
     estimated scf accuracy    <       0.00107479 Ry

     total magnetization       =     1.95 Bohr mag/cell
     absolute magnetization    =     3.06 Bohr mag/cell

     iteration # 99     ecut=    70.00 Ry     beta= 0.70
     Davidson diagonalization with overlap
     ethr =  4.99E-07,  avg # of iterations =  2.0

     negative rho (up, down):  2.462E-03 2.884E-02

     total cpu time spent up to now is    10018.2 secs

     total energy              =    -860.04987948 Ry
     Harris-Foulkes estimate   =    -860.05301839 Ry
     estimated scf accuracy    <       0.00103662 Ry

     total magnetization       =     1.96 Bohr mag/cell
     absolute magnetization    =     3.05 Bohr mag/cell

     iteration #100     ecut=    70.00 Ry     beta= 0.70
     Davidson diagonalization with overlap
     ethr =  4.84E-07,  avg # of iterations =  3.0

     negative rho (up, down):  9.284E-04 3.235E-02

     Magnetic moment per site:
     atom:    1    charge:    0.2100    magn:   -0.0000    constr:    0.0000
     atom:    2    charge:    0.2129    magn:    0.0006    constr:    0.0000
     atom:    3    charge:    1.7168    magn:   -0.0109    constr:    0.0000
     atom:    4    charge:    1.7154    magn:    0.0147    constr:    0.0000
     atom:    5    charge:    1.7172    magn:   -0.0085    constr:    0.0000
     atom:    6    charge:    1.7141    magn:    0.0054    constr:    0.0000
     atom:    7    charge:    1.7177    magn:   -0.0086    constr:    0.0000
     atom:    8    charge:    1.7146    magn:    0.0174    constr:    0.0000
     atom:    9    charge:    1.7172    magn:   -0.0120    constr:    0.0000
     atom:   10    charge:    1.7147    magn:    0.0555    constr:    0.0000
     atom:   11    charge:    1.7174    magn:   -0.0147    constr:    0.0000
     atom:   12    charge:    1.7161    magn:    0.0461    constr:    0.0000
     atom:   13    charge:    1.7174    magn:   -0.0147    constr:    0.0000
     atom:   14    charge:    1.7153    magn:    0.0430    constr:    0.0000
     atom:   15    charge:    1.7135    magn:   -0.0112    constr:    0.0000
     atom:   16    charge:    1.7112    magn:    0.0467    constr:    0.0000
     atom:   17    charge:    1.7227    magn:   -0.0121    constr:    0.0000
     atom:   18    charge:    1.7111    magn:    0.0441    constr:    0.0000
     atom:   19    charge:    1.7130    magn:   -0.0100    constr:    0.0000
     atom:   20    charge:    1.7153    magn:    0.0348    constr:    0.0000
     atom:   21    charge:    1.7174    magn:   -0.0148    constr:    0.0000
     atom:   22    charge:    1.7147    magn:    0.0555    constr:    0.0000
     atom:   23    charge:    1.7172    magn:   -0.0120    constr:    0.0000
     atom:   24    charge:    1.7155    magn:    0.0161    constr:    0.0000
     atom:   25    charge:    1.7136    magn:   -0.0111    constr:    0.0000
     atom:   26    charge:    1.7111    magn:    0.0546    constr:    0.0000
     atom:   27    charge:    1.8522    magn:   -0.0191    constr:    0.0000
     atom:   28    charge:   11.1438    magn:    0.4760    constr:    0.0000
     atom:   29    charge:    1.8518    magn:   -0.0163    constr:    0.0000
     atom:   30    charge:    1.7111    magn:    0.0441    constr:    0.0000
     atom:   31    charge:    1.7130    magn:   -0.0100    constr:    0.0000
     atom:   32    charge:    1.7146    magn:    0.0174    constr:    0.0000
     atom:   33    charge:    1.7177    magn:   -0.0086    constr:    0.0000
     atom:   34    charge:    1.7143    magn:    0.0126    constr:    0.0000
     atom:   35    charge:    1.7185    magn:   -0.0087    constr:    0.0000
     atom:   36    charge:    1.7152    magn:    0.0056    constr:    0.0000
     atom:   37    charge:    1.7239    magn:   -0.0144    constr:    0.0000
     atom:   38    charge:    1.7111    magn:    0.0546    constr:    0.0000
     atom:   39    charge:    1.8522    magn:   -0.0191    constr:    0.0000
     atom:   40    charge:    1.7112    magn:    0.0467    constr:    0.0000
     atom:   41    charge:    1.7227    magn:   -0.0121    constr:    0.0000
     atom:   42    charge:    1.7141    magn:    0.0054    constr:    0.0000
     atom:   43    charge:    1.7172    magn:   -0.0085    constr:    0.0000
     atom:   44    charge:    1.7137    magn:    0.0112    constr:    0.0000
     atom:   45    charge:    1.7243    magn:   -0.0100    constr:    0.0000
     atom:   46    charge:    1.7143    magn:    0.0126    constr:    0.0000
     atom:   47    charge:    1.7185    magn:   -0.0087    constr:    0.0000
     atom:   48    charge:    1.7155    magn:    0.0161    constr:    0.0000
     atom:   49    charge:    1.7136    magn:   -0.0111    constr:    0.0000
     atom:   50    charge:    1.7153    magn:    0.0430    constr:    0.0000
     atom:   51    charge:    1.7135    magn:   -0.0112    constr:    0.0000
     atom:   52    charge:    1.7154    magn:    0.0147    constr:    0.0000

     total cpu time spent up to now is    10129.1 secs

     total energy              =    -860.05166881 Ry
     Harris-Foulkes estimate   =    -860.05126103 Ry
     estimated scf accuracy    <       0.00176712 Ry

     total magnetization       =     1.97 Bohr mag/cell
     absolute magnetization    =     3.02 Bohr mag/cell

     iteration #101     ecut=    70.00 Ry     beta= 0.70
     Davidson diagonalization with overlap
     ethr =  4.84E-07,  avg # of iterations =  3.0

     negative rho (up, down):  3.664E-03 3.205E-02

     total cpu time spent up to now is    10244.3 secs

     total energy              =    -860.04745520 Ry
     Harris-Foulkes estimate   =    -860.05260600 Ry
     estimated scf accuracy    <       0.00252938 Ry

     total magnetization       =     1.91 Bohr mag/cell
     absolute magnetization    =     3.07 Bohr mag/cell

     iteration #102     ecut=    70.00 Ry     beta= 0.70
     Davidson diagonalization with overlap
     ethr =  4.84E-07,  avg # of iterations =  3.0

     negative rho (up, down):  2.465E-03 2.199E-02

     total cpu time spent up to now is    10364.7 secs

     total energy              =    -860.05079086 Ry
     Harris-Foulkes estimate   =    -860.05037700 Ry
     estimated scf accuracy    <       0.00175855 Ry

     total magnetization       =     1.93 Bohr mag/cell
     absolute magnetization    =     3.03 Bohr mag/cell

     iteration #103     ecut=    70.00 Ry     beta= 0.70
     Davidson diagonalization with overlap
     ethr =  4.84E-07,  avg # of iterations =  2.5

     negative rho (up, down):  1.660E-03 3.885E-02

     total cpu time spent up to now is    10458.5 secs

     total energy              =    -860.05106037 Ry
     Harris-Foulkes estimate   =    -860.05085342 Ry
     estimated scf accuracy    <       0.00221083 Ry

     total magnetization       =     1.86 Bohr mag/cell
     absolute magnetization    =     3.06 Bohr mag/cell

     iteration #104     ecut=    70.00 Ry     beta= 0.70
     Davidson diagonalization with overlap
     ethr =  4.84E-07,  avg # of iterations =  2.5

     negative rho (up, down):  1.707E-03 2.560E-02

     total cpu time spent up to now is    10559.1 secs

     total energy              =    -860.05141914 Ry
     Harris-Foulkes estimate   =    -860.05145675 Ry
     estimated scf accuracy    <       0.00113445 Ry

     total magnetization       =     1.97 Bohr mag/cell
     absolute magnetization    =     3.03 Bohr mag/cell

     iteration #105     ecut=    70.00 Ry     beta= 0.70
     Davidson diagonalization with overlap
     ethr =  4.84E-07,  avg # of iterations =  2.0

     negative rho (up, down):  1.723E-03 3.558E-02

     total cpu time spent up to now is    10655.7 secs

     total energy              =    -860.05155898 Ry
     Harris-Foulkes estimate   =    -860.05155514 Ry
     estimated scf accuracy    <       0.00121568 Ry

     total magnetization       =     1.96 Bohr mag/cell
     absolute magnetization    =     3.03 Bohr mag/cell

     iteration #106     ecut=    70.00 Ry     beta= 0.70
     Davidson diagonalization with overlap
     ethr =  4.84E-07,  avg # of iterations =  1.0

     negative rho (up, down):  2.265E-03 4.422E-02

     total cpu time spent up to now is    10745.1 secs

     total energy              =    -860.05080748 Ry
     Harris-Foulkes estimate   =    -860.05156578 Ry
     estimated scf accuracy    <       0.00115366 Ry

     total magnetization       =     1.95 Bohr mag/cell
     absolute magnetization    =     3.04 Bohr mag/cell

     iteration #107     ecut=    70.00 Ry     beta= 0.70
     Davidson diagonalization with overlap
     ethr =  4.84E-07,  avg # of iterations =  2.0

     negative rho (up, down):  1.839E-03 4.482E-02

     total cpu time spent up to now is    10841.3 secs

     total energy              =    -860.05112983 Ry
     Harris-Foulkes estimate   =    -860.05105724 Ry
     estimated scf accuracy    <       0.00132416 Ry

     total magnetization       =     1.95 Bohr mag/cell
     absolute magnetization    =     3.04 Bohr mag/cell

     iteration #108     ecut=    70.00 Ry     beta= 0.70
     Davidson diagonalization with overlap
     ethr =  4.84E-07,  avg # of iterations =  2.0

     negative rho (up, down):  1.125E-03 3.773E-02

     total cpu time spent up to now is    10941.7 secs

     total energy              =    -860.05146695 Ry
     Harris-Foulkes estimate   =    -860.05138557 Ry
     estimated scf accuracy    <       0.00113979 Ry

     total magnetization       =     1.95 Bohr mag/cell
     absolute magnetization    =     3.05 Bohr mag/cell

     iteration #109     ecut=    70.00 Ry     beta= 0.70
     Davidson diagonalization with overlap
     ethr =  4.84E-07,  avg # of iterations =  2.0

     negative rho (up, down):  1.314E-03 3.266E-02

     total cpu time spent up to now is    11048.0 secs

     total energy              =    -860.05198483 Ry
     Harris-Foulkes estimate   =    -860.05222748 Ry
     estimated scf accuracy    <       0.00112723 Ry

     total magnetization       =     1.97 Bohr mag/cell
     absolute magnetization    =     3.06 Bohr mag/cell

     iteration #110     ecut=    70.00 Ry     beta= 0.70
     Davidson diagonalization with overlap
     ethr =  4.84E-07,  avg # of iterations =  2.0

     negative rho (up, down):  1.430E-03 2.713E-02

     total cpu time spent up to now is    11139.8 secs

     total energy              =    -860.05191718 Ry
     Harris-Foulkes estimate   =    -860.05203458 Ry
     estimated scf accuracy    <       0.00169416 Ry

     total magnetization       =     1.99 Bohr mag/cell
     absolute magnetization    =     3.05 Bohr mag/cell

[...]

     iteration #144     ecut=    70.00 Ry     beta= 0.70
     Davidson diagonalization with overlap
     ethr =  1.07E-07,  avg # of iterations =  3.5

     negative rho (up, down):  6.125E-04 5.222E-02

     total cpu time spent up to now is    14689.5 secs

     total energy              =    -860.05568917 Ry
     Harris-Foulkes estimate   =    -860.05576336 Ry
     estimated scf accuracy    <       0.00026663 Ry

     total magnetization       =     1.94 Bohr mag/cell
     absolute magnetization    =     3.10 Bohr mag/cell

     iteration #145     ecut=    70.00 Ry     beta= 0.70
     Davidson diagonalization with overlap
     ethr =  1.07E-07,  avg # of iterations =  2.0

     negative rho (up, down):  6.038E-04 2.107E-02

     total cpu time spent up to now is    14796.9 secs

     total energy              =    -860.05580958 Ry
     Harris-Foulkes estimate   =    -860.05580517 Ry
     estimated scf accuracy    <       0.00003645 Ry

     total magnetization       =     1.96 Bohr mag/cell
     absolute magnetization    =     3.10 Bohr mag/cell

     iteration #146     ecut=    70.00 Ry     beta= 0.70
     Davidson diagonalization with overlap
     ethr =  1.70E-08,  avg # of iterations =  2.5

     negative rho (up, down):  6.025E-04 1.399E-02

     total cpu time spent up to now is    14905.2 secs

     total energy              =    -860.05582520 Ry
     Harris-Foulkes estimate   =    -860.05582567 Ry
     estimated scf accuracy    <       0.00001911 Ry

     total magnetization       =     1.95 Bohr mag/cell
     absolute magnetization    =     3.10 Bohr mag/cell

     iteration #147     ecut=    70.00 Ry     beta= 0.70
     Davidson diagonalization with overlap
     ethr =  8.93E-09,  avg # of iterations =  2.5

     negative rho (up, down):  6.022E-04 1.215E-02

     total cpu time spent up to now is    15003.8 secs

     total energy              =    -860.05582624 Ry
     Harris-Foulkes estimate   =    -860.05582940 Ry
     estimated scf accuracy    <       0.00002113 Ry

     total magnetization       =     1.95 Bohr mag/cell
     absolute magnetization    =     3.10 Bohr mag/cell

     iteration #148     ecut=    70.00 Ry     beta= 0.70
     Davidson diagonalization with overlap
     ethr =  8.93E-09,  avg # of iterations =  2.0

     negative rho (up, down):  6.018E-04 1.188E-02

     total cpu time spent up to now is    15099.0 secs

     total energy              =    -860.05582940 Ry
     Harris-Foulkes estimate   =    -860.05582915 Ry
     estimated scf accuracy    <       0.00000516 Ry

     total magnetization       =     1.95 Bohr mag/cell
     absolute magnetization    =     3.10 Bohr mag/cell

     iteration #149     ecut=    70.00 Ry     beta= 0.70
     Davidson diagonalization with overlap
     ethr =  2.41E-09,  avg # of iterations =  2.0

     negative rho (up, down):  6.018E-04 1.185E-02

     total cpu time spent up to now is    15189.6 secs

     total energy              =    -860.05583003 Ry
     Harris-Foulkes estimate   =    -860.05582978 Ry
     estimated scf accuracy    <       0.00000567 Ry

     total magnetization       =     1.95 Bohr mag/cell
     absolute magnetization    =     3.10 Bohr mag/cell

     iteration #150     ecut=    70.00 Ry     beta= 0.70
     Davidson diagonalization with overlap
     ethr =  2.41E-09,  avg # of iterations =  2.0

     negative rho (up, down):  6.017E-04 1.212E-02

     total cpu time spent up to now is    15283.7 secs

     total energy              =    -860.05583019 Ry
     Harris-Foulkes estimate   =    -860.05583043 Ry
     estimated scf accuracy    <       0.00000341 Ry

     total magnetization       =     1.95 Bohr mag/cell
     absolute magnetization    =     3.10 Bohr mag/cell

     iteration #151     ecut=    70.00 Ry     beta= 0.70
     Davidson diagonalization with overlap
     ethr =  1.60E-09,  avg # of iterations =  2.0

     negative rho (up, down):  6.018E-04 1.255E-02

     total cpu time spent up to now is    15373.9 secs

     total energy              =    -860.05582888 Ry
     Harris-Foulkes estimate   =    -860.05583032 Ry
     estimated scf accuracy    <       0.00000422 Ry

     total magnetization       =     1.95 Bohr mag/cell
     absolute magnetization    =     3.11 Bohr mag/cell

     iteration #152     ecut=    70.00 Ry     beta= 0.70
     Davidson diagonalization with overlap
     ethr =  1.60E-09,  avg # of iterations =  2.0

     negative rho (up, down):  6.014E-04 1.173E-02

     total cpu time spent up to now is    15473.1 secs

     total energy              =    -860.05583061 Ry
     Harris-Foulkes estimate   =    -860.05582970 Ry
     estimated scf accuracy    <       0.00000432 Ry

     total magnetization       =     1.95 Bohr mag/cell
     absolute magnetization    =     3.11 Bohr mag/cell

     iteration #153     ecut=    70.00 Ry     beta= 0.70
     Davidson diagonalization with overlap
     ethr =  1.60E-09,  avg # of iterations =  3.0

     negative rho (up, down):  6.016E-04 1.254E-02

     total cpu time spent up to now is    15579.8 secs

     total energy              =    -860.05582983 Ry
     Harris-Foulkes estimate   =    -860.05583218 Ry
     estimated scf accuracy    <       0.00001551 Ry

     total magnetization       =     1.95 Bohr mag/cell
     absolute magnetization    =     3.11 Bohr mag/cell

     iteration #154     ecut=    70.00 Ry     beta= 0.70
     Davidson diagonalization with overlap
     ethr =  1.60E-09,  avg # of iterations =  3.0

     negative rho (up, down):  6.017E-04 1.325E-02

     total cpu time spent up to now is    15677.7 secs

     total energy              =    -860.05582675 Ry
     Harris-Foulkes estimate   =    -860.05583046 Ry
     estimated scf accuracy    <       0.00000531 Ry

     total magnetization       =     1.95 Bohr mag/cell
     absolute magnetization    =     3.11 Bohr mag/cell

     iteration #155     ecut=    70.00 Ry     beta= 0.70
     Davidson diagonalization with overlap
     ethr =  1.60E-09,  avg # of iterations =  2.0

     negative rho (up, down):  6.017E-04 1.261E-02

     total cpu time spent up to now is    15780.5 secs

     total energy              =    -860.05582678 Ry
     Harris-Foulkes estimate   =    -860.05582819 Ry
     estimated scf accuracy    <       0.00000367 Ry

     total magnetization       =     1.95 Bohr mag/cell
     absolute magnetization    =     3.11 Bohr mag/cell

     iteration #156     ecut=    70.00 Ry     beta= 0.70
     Davidson diagonalization with overlap
     ethr =  1.60E-09,  avg # of iterations =  2.0

     negative rho (up, down):  6.016E-04 1.172E-02

     total cpu time spent up to now is    15881.7 secs

     total energy              =    -860.05582774 Ry
     Harris-Foulkes estimate   =    -860.05582771 Ry
     estimated scf accuracy    <       0.00000118 Ry

     total magnetization       =     1.94 Bohr mag/cell
     absolute magnetization    =     3.11 Bohr mag/cell

     iteration #157     ecut=    70.00 Ry     beta= 0.70
     Davidson diagonalization with overlap
     ethr =  5.51E-10,  avg # of iterations =  2.5

     negative rho (up, down):  6.015E-04 1.139E-02

     Magnetic moment per site:
     atom:    1    charge:    0.2098    magn:    0.0000    constr:    0.0000
     atom:    2    charge:    0.2130    magn:    0.0004    constr:    0.0000
     atom:    3    charge:    1.7167    magn:   -0.0119    constr:    0.0000
     atom:    4    charge:    1.7155    magn:    0.0157    constr:    0.0000
     atom:    5    charge:    1.7175    magn:   -0.0088    constr:    0.0000
     atom:    6    charge:    1.7142    magn:    0.0055    constr:    0.0000
     atom:    7    charge:    1.7176    magn:   -0.0089    constr:    0.0000
     atom:    8    charge:    1.7152    magn:    0.0177    constr:    0.0000
     atom:    9    charge:    1.7171    magn:   -0.0125    constr:    0.0000
     atom:   10    charge:    1.7149    magn:    0.0565    constr:    0.0000
     atom:   11    charge:    1.7173    magn:   -0.0159    constr:    0.0000
     atom:   12    charge:    1.7159    magn:    0.0493    constr:    0.0000
     atom:   13    charge:    1.7173    magn:   -0.0159    constr:    0.0000
     atom:   14    charge:    1.7156    magn:    0.0440    constr:    0.0000
     atom:   15    charge:    1.7137    magn:   -0.0123    constr:    0.0000
     atom:   16    charge:    1.7116    magn:    0.0490    constr:    0.0000
     atom:   17    charge:    1.7224    magn:   -0.0127    constr:    0.0000
     atom:   18    charge:    1.7118    magn:    0.0470    constr:    0.0000
     atom:   19    charge:    1.7136    magn:   -0.0114    constr:    0.0000
     atom:   20    charge:    1.7163    magn:    0.0377    constr:    0.0000
     atom:   21    charge:    1.7174    magn:   -0.0159    constr:    0.0000
     atom:   22    charge:    1.7149    magn:    0.0565    constr:    0.0000
     atom:   23    charge:    1.7171    magn:   -0.0125    constr:    0.0000
     atom:   24    charge:    1.7154    magn:    0.0168    constr:    0.0000
     atom:   25    charge:    1.7138    magn:   -0.0122    constr:    0.0000
     atom:   26    charge:    1.7109    magn:    0.0551    constr:    0.0000
     atom:   27    charge:    1.8523    magn:   -0.0198    constr:    0.0000
     atom:   28    charge:   11.1465    magn:    0.4817    constr:    0.0000
     atom:   29    charge:    1.8518    magn:   -0.0193    constr:    0.0000
     atom:   30    charge:    1.7118    magn:    0.0470    constr:    0.0000
     atom:   31    charge:    1.7136    magn:   -0.0114    constr:    0.0000
     atom:   32    charge:    1.7152    magn:    0.0177    constr:    0.0000
     atom:   33    charge:    1.7176    magn:   -0.0089    constr:    0.0000
     atom:   34    charge:    1.7140    magn:    0.0126    constr:    0.0000
     atom:   35    charge:    1.7175    magn:   -0.0090    constr:    0.0000
     atom:   36    charge:    1.7142    magn:    0.0057    constr:    0.0000
     atom:   37    charge:    1.7228    magn:   -0.0142    constr:    0.0000
     atom:   38    charge:    1.7109    magn:    0.0551    constr:    0.0000
     atom:   39    charge:    1.8523    magn:   -0.0198    constr:    0.0000
     atom:   40    charge:    1.7116    magn:    0.0490    constr:    0.0000
     atom:   41    charge:    1.7224    magn:   -0.0127    constr:    0.0000
     atom:   42    charge:    1.7142    magn:    0.0055    constr:    0.0000
     atom:   43    charge:    1.7175    magn:   -0.0088    constr:    0.0000
     atom:   44    charge:    1.7141    magn:    0.0115    constr:    0.0000
     atom:   45    charge:    1.7233    magn:   -0.0091    constr:    0.0000
     atom:   46    charge:    1.7140    magn:    0.0126    constr:    0.0000
     atom:   47    charge:    1.7175    magn:   -0.0090    constr:    0.0000
     atom:   48    charge:    1.7154    magn:    0.0168    constr:    0.0000
     atom:   49    charge:    1.7138    magn:   -0.0122    constr:    0.0000
     atom:   50    charge:    1.7156    magn:    0.0440    constr:    0.0000
     atom:   51    charge:    1.7137    magn:   -0.0123    constr:    0.0000
     atom:   52    charge:    1.7155    magn:    0.0157    constr:    0.0000

     total cpu time spent up to now is    15982.6 secs

     End of self-consistent calculation

 ------ SPIN UP ------------


          k = 0.0000 0.0000 0.0000 ( 87777 PWs)   bands (ev):

   -88.8589 -55.7509 -55.6956 -54.0856 -19.8662 -19.0394 -19.0238 -18.9404
   -18.9156 -18.9110 -18.5811 -17.1679 -17.1575 -17.1566 -17.0916 -17.0864
   -16.7813 -16.3162 -16.3135 -16.2095 -16.1656 -16.1656 -15.4845 -14.2302
   -14.2137 -14.1335 -14.0816 -14.0790 -13.4225 -13.1514 -13.1473 -13.1220
   -12.8484 -12.8475 -12.4346 -11.9342 -11.9329 -11.7391 -11.4976 -11.4959
   -10.6247  -9.8040  -9.8003  -9.5225  -9.4033  -9.4017  -9.3163  -9.2859
    -9.2852  -9.2728  -8.8158  -8.8153  -8.2868  -8.2836  -8.1850  -8.0165
    -7.9212  -7.5305  -7.5273  -7.3421  -7.2374  -7.2261  -7.0784  -7.0781
    -6.9231  -6.9066  -6.8996  -6.8018  -6.6523  -6.6513  -6.6457  -6.6208
    -6.6105  -6.6065  -6.5626  -6.1755  -5.7474  -5.7409  -5.7229  -5.7072
    -5.4752  -5.4724  -5.3496  -5.0741  -4.9662  -4.8263  -4.7987  -4.7934
    -4.5547  -4.5487  -4.4800  -4.3310  -4.3195  -3.9569  -3.9566  -3.8679
    -3.7691  -3.7676  -3.2066  -2.9164  -2.9065  -1.9561  -1.8878  -1.8855
    -1.3670  -1.3223  -1.2156  -0.9047   0.8394   0.8858   0.8879   1.3958
     1.4091   1.5186   2.3034   2.3036   2.5307   2.6853   2.6876   2.7829
     3.2909   3.3015   3.4329   3.6737   3.6759   3.7373   3.7477   3.7486

     occupation numbers 
     1.0000   1.0000   1.0000   1.0000   1.0000   1.0000   1.0000   1.0000
     1.0000   1.0000   1.0000   1.0000   1.0000   1.0000   1.0000   1.0000
     1.0000   1.0000   1.0000   1.0000   1.0000   1.0000   1.0000   1.0000
     1.0000   1.0000   1.0000   1.0000   1.0000   1.0000   1.0000   1.0000
     1.0000   1.0000   1.0000   1.0000   1.0000   1.0000   1.0000   1.0000
     1.0000   1.0000   1.0000   1.0000   1.0000   1.0000   1.0000   1.0000
     1.0000   1.0000   1.0000   1.0000   1.0000   1.0000   1.0000   1.0000
     1.0000   1.0000   1.0000   1.0000   1.0000   1.0000   1.0000   1.0000
     1.0000   1.0000   1.0000   1.0000   1.0000   1.0000   1.0000   1.0000
     1.0000   1.0000   1.0000   1.0000   1.0000   1.0000   1.0000   1.0000
     1.0000   1.0000   1.0000   1.0000   1.0000   1.0000   1.0000   1.0000
     1.0000   1.0000   1.0000   1.0000   1.0000   1.0000   1.0000   1.0000
     1.0000   1.0000   1.0000   1.0000   1.0000   1.0000   1.0000   1.0000
     1.0000   1.0000   1.0000   0.9720   0.0000   0.0000   0.0000   0.0000
     0.0000   0.0000   0.0000   0.0000   0.0000   0.0000   0.0000   0.0000
     0.0000   0.0000   0.0000   0.0000   0.0000   0.0000   0.0000   0.0000

 ------ SPIN DOWN ----------


          k = 0.0000 0.0000 0.0000 ( 87777 PWs)   bands (ev):

   -88.0911 -55.1079 -55.0919 -53.1259 -19.8285 -18.9945 -18.9818 -18.9052
   -18.8936 -18.8887 -18.5284 -17.1352 -17.1299 -17.1259 -17.0426 -17.0387
   -16.7545 -16.2740 -16.2733 -16.1808 -16.1265 -16.1261 -15.4617 -14.1617
   -14.1521 -14.0784 -14.0724 -14.0690 -13.4328 -13.1272 -13.1247 -13.0935
   -12.8307 -12.8299 -12.4058 -11.8999 -11.8977 -11.7191 -11.4766 -11.4763
   -10.6019  -9.7531  -9.7508  -9.4931  -9.3738  -9.3737  -9.3006  -9.2649
    -9.2644  -9.2572  -8.8038  -8.8031  -8.2494  -8.2463  -8.1637  -7.9294
    -7.9056  -7.5176  -7.5140  -7.3088  -7.0764  -7.0727  -7.0301  -7.0295
    -6.8524  -6.8499  -6.8307  -6.7878  -6.6367  -6.6309  -6.6111  -6.5986
    -6.5948  -6.5603  -6.5460  -6.1424  -5.6926  -5.6890  -5.4907  -5.4899
    -5.4326  -5.4306  -5.2323  -5.0611  -4.9580  -4.7569  -4.7167  -4.7155
    -4.4715  -4.4660  -4.4144  -4.2089  -4.2077  -3.8372  -3.8355  -3.7865
    -3.7552  -3.7537  -3.1662  -2.6916  -2.6874  -1.8631  -1.8608  -1.8136
    -0.9387  -0.9226  -0.8345  -0.8114   0.9279   0.9306   0.9782   1.5467
     1.5475   1.6316   2.4647   2.4659   2.5415   2.8107   2.8132   2.8450
     3.4428   3.4436   3.5184   3.6907   3.6914   3.7467   3.7517   3.7526

     occupation numbers 
     1.0000   1.0000   1.0000   1.0000   1.0000   1.0000   1.0000   1.0000
     1.0000   1.0000   1.0000   1.0000   1.0000   1.0000   1.0000   1.0000
     1.0000   1.0000   1.0000   1.0000   1.0000   1.0000   1.0000   1.0000
     1.0000   1.0000   1.0000   1.0000   1.0000   1.0000   1.0000   1.0000
     1.0000   1.0000   1.0000   1.0000   1.0000   1.0000   1.0000   1.0000
     1.0000   1.0000   1.0000   1.0000   1.0000   1.0000   1.0000   1.0000
     1.0000   1.0000   1.0000   1.0000   1.0000   1.0000   1.0000   1.0000
     1.0000   1.0000   1.0000   1.0000   1.0000   1.0000   1.0000   1.0000
     1.0000   1.0000   1.0000   1.0000   1.0000   1.0000   1.0000   1.0000
     1.0000   1.0000   1.0000   1.0000   1.0000   1.0000   1.0000   1.0000
     1.0000   1.0000   1.0000   1.0000   1.0000   1.0000   1.0000   1.0000
     1.0000   1.0000   1.0000   1.0000   1.0000   1.0000   1.0000   1.0000
     1.0000   1.0000   1.0000   1.0000   1.0000   1.0000   1.0000   1.0000
     1.0003   1.0277   0.0000   0.0000   0.0000   0.0000   0.0000   0.0000
     0.0000   0.0000   0.0000   0.0000   0.0000   0.0000   0.0000   0.0000
     0.0000   0.0000   0.0000   0.0000   0.0000   0.0000   0.0000   0.0000

     the Fermi energy is    -0.8931 ev

!    total energy              =    -860.05582827 Ry
     Harris-Foulkes estimate   =    -860.05582818 Ry
     estimated scf accuracy    <       0.00000087 Ry

     The total energy is the sum of the following terms:

     one-electron contribution =   -2795.42788666 Ry
     hartree contribution      =    1441.53874218 Ry
     xc contribution           =    -259.32916014 Ry
     ewald contribution        =     753.16234987 Ry
     smearing contrib. (-TS)   =       0.00012648 Ry

     total magnetization       =     1.94 Bohr mag/cell
     absolute magnetization    =     3.11 Bohr mag/cell

     convergence has been achieved in 157 iterations

     Writing output data file distance-2.8.save/

     init_run     :     68.68s CPU     71.25s WALL (       1 calls)
     electrons    :  15637.74s CPU  15910.36s WALL (       1 calls)

     Called by init_run:
     wfcinit      :     40.50s CPU     40.80s WALL (       1 calls)
     wfcinit:atom :      0.07s CPU      0.09s WALL (       2 calls)
     wfcinit:wfcr :     40.11s CPU     40.34s WALL (       2 calls)
     potinit      :     12.96s CPU     14.17s WALL (       1 calls)
     hinit0       :      6.54s CPU      6.64s WALL (       1 calls)

     Called by electrons:
     c_bands      :  10107.24s CPU  10156.83s WALL (     157 calls)
     sum_band     :   3226.62s CPU   3317.27s WALL (     157 calls)
     v_of_rho     :   1111.59s CPU   1168.82s WALL (     158 calls)
     v_h          :     11.67s CPU     12.02s WALL (     158 calls)
     v_xc         :   1099.92s CPU   1156.79s WALL (     158 calls)
     newd         :   1096.43s CPU   1171.73s WALL (     158 calls)
     mix_rho      :     74.62s CPU     75.68s WALL (     157 calls)

     Called by c_bands:
     init_us_2    :     28.21s CPU     28.29s WALL (     630 calls)
     cegterg      :  10033.10s CPU  10082.30s WALL (     314 calls)

     Called by sum_band:
     sum_band:bec :      0.25s CPU      0.25s WALL (     314 calls)
     addusdens    :   1977.70s CPU   2060.60s WALL (     157 calls)

     Called by *egterg:
     h_psi        :   5213.78s CPU   5247.25s WALL (    1166 calls)
     s_psi        :   1779.39s CPU   1780.27s WALL (    1166 calls)
     g_psi        :      5.85s CPU      5.86s WALL (     850 calls)
     cdiaghg      :     83.49s CPU     83.53s WALL (    1164 calls)
     cegterg:over :   1216.22s CPU   1216.90s WALL (     850 calls)
     cegterg:upda :    771.01s CPU    775.23s WALL (     850 calls)
     cegterg:last :    521.32s CPU    521.51s WALL (     314 calls)

     Called by h_psi:
     h_psi:pot    :   5208.18s CPU   5235.21s WALL (    1166 calls)
     h_psi:calbec :   1759.15s CPU   1759.96s WALL (    1166 calls)
     vloc_psi     :   1670.18s CPU   1695.83s WALL (    1166 calls)
     add_vuspsi   :   1778.83s CPU   1779.42s WALL (    1166 calls)

     General routines
     calbec       :   2508.90s CPU   2510.16s WALL (    1480 calls)
     fft          :    623.03s CPU    645.55s WALL (   11844 calls)
     ffts         :     11.58s CPU     11.93s WALL (     630 calls)
     fftw         :   1778.72s CPU   1806.71s WALL (  229606 calls)
     interpolate  :     26.27s CPU     26.89s WALL (     316 calls)

     Parallel routines
     fft_scatt_xy :    431.01s CPU    436.14s WALL (  242080 calls)
     fft_scatt_yz :    805.58s CPU    841.22s WALL (  242080 calls)

     PWSCF        :      4h21m CPU      4h26m WALL


   This run was terminated on:   6: 1:15  28Aug2022            

=------------------------------------------------------------------------------=
   JOB DONE.
=------------------------------------------------------------------------------=
