
     Program PWSCF v.6.4.1 starts on 29Oct2022 at  2:46:33 

     This program is part of the open-source Quantum ESPRESSO suite
     for quantum simulation of materials; please cite
         "P. Giannozzi et al., J. Phys.:Condens. Matter 21 395502 (2009);
         "P. Giannozzi et al., J. Phys.:Condens. Matter 29 465901 (2017);
          URL http://www.quantum-espresso.org", 
     in publications or presentations arising from this work. More details at
     http://www.quantum-espresso.org/quote

     Parallel version (MPI), running on     6 processors

     MPI processes distributed on     1 nodes
     R & G space division:  proc/nbgrp/npool/nimage =       6
     Reading input from v-vcrelax.in

     Current dimensions of program PWSCF are:
     Max number of different atomic species (ntypx) = 10
     Max number of k-points (npk) =  40000
     Max angular momentum in pseudopotentials (lmaxx) =  3
               file H.pbe-rrkjus.UPF: wavefunction(s)  1S renormalized
               file V.pbe-spnl-rrkjus_psl.1.0.0.UPF: wavefunction(s)  3P 3D renormalized

     Subspace diagonalization in iterative solution of the eigenvalue problem:
     a serial algorithm will be used


     Parallelization info
     --------------------
     sticks:   dense  smooth     PW     G-vecs:    dense   smooth      PW
     Min        3051    1746    432               270999   117096   14629
     Max        3053    1747    437               271001   117099   14630
     Sum       18313   10477   2611              1626001   702581   87777



     bravais-lattice index     =            4
     lattice parameter (alat)  =      23.2937  a.u.
     unit-cell volume          =    8879.8548 (a.u.)^3
     number of atoms/cell      =           52
     number of atomic types    =            3
     number of electrons       =       211.00
     number of Kohn-Sham states=          127
     kinetic-energy cutoff     =      70.0000  Ry
     charge density cutoff     =     490.0000  Ry
     convergence threshold     =      1.0E-10
     mixing beta               =       0.3000
     number of iterations used =            4  plain     mixing
     Exchange-correlation      = PBE ( 1  4  3  4 0 0)
     nstep                     =           50


     celldm(1)=  23.293684  celldm(2)=   0.000000  celldm(3)=   0.811261
     celldm(4)=   0.000000  celldm(5)=   0.000000  celldm(6)=   0.000000

     crystal axes: (cart. coord. in units of alat)
               a(1) = (   1.000000   0.000000   0.000000 )  
               a(2) = (  -0.500000   0.866025   0.000000 )  
               a(3) = (   0.000000   0.000000   0.811261 )  

     reciprocal axes: (cart. coord. in units 2 pi/alat)
               b(1) = (  1.000000  0.577350 -0.000000 )  
               b(2) = (  0.000000  1.154701  0.000000 )  
               b(3) = (  0.000000 -0.000000  1.232649 )  


     PseudoPot. # 1 for H  read from file:
     /home/cristian/Escritorio/Proyecto_Grafeno/pseudopotenciales/H.pbe-rrkjus.UPF
     MD5 check sum: 7cc9d459525c9a0585f487a71c3c9563
     Pseudo is Ultrasoft, Zval =  1.0
     Generated by new atomic code, or converted to UPF format
     Using radial grid of 1061 points,  2 beta functions with: 
                l(1) =   0
                l(2) =   0
     Q(r) pseudized with 0 coefficients 


     PseudoPot. # 2 for C  read from file:
     /home/cristian/Escritorio/Proyecto_Grafeno/pseudopotenciales/C.pbe-n-rrkjus_psl.1.0.0.UPF
     MD5 check sum: 1fdd950c42eb37d8afe3dd2f8d12311e
     Pseudo is Ultrasoft + core correction, Zval =  4.0
     Generated using "atomic" code by A. Dal Corso v.6.3MaX
     Using radial grid of 1073 points,  4 beta functions with: 
                l(1) =   0
                l(2) =   0
                l(3) =   1
                l(4) =   1
     Q(r) pseudized with 0 coefficients 


     PseudoPot. # 3 for V  read from file:
     /home/cristian/Escritorio/Proyecto_Grafeno/pseudopotenciales/V.pbe-spnl-rrkjus_psl.1.0.0.UPF
     MD5 check sum: 79b3eb63147daf0b665d9f1bcc691206
     Pseudo is Ultrasoft + core correction, Zval = 13.0
     Generated using "atomic" code by A. Dal Corso v.6.2.2
     Using radial grid of 1181 points,  6 beta functions with: 
                l(1) =   0
                l(2) =   0
                l(3) =   1
                l(4) =   1
                l(5) =   2
                l(6) =   2
     Q(r) pseudized with 0 coefficients 


     atomic species   valence    mass     pseudopotential
        H              1.00     1.00794     H ( 1.00)
        C              4.00    12.01070     C ( 1.00)
        V             13.00    50.94150     V ( 1.00)

     Starting magnetic structure 
     atomic species   magnetization
        H            0.500
        C            0.300
        V            0.800

     No symmetry found


                                    s                        frac. trans.

      isym =  1     identity                                     

 cryst.   s( 1) = (     1          0          0      )
                  (     0          1          0      )
                  (     0          0          1      )

 cart.    s( 1) = (  1.0000000  0.0000000  0.0000000 )
                  (  0.0000000  1.0000000  0.0000000 )
                  (  0.0000000  0.0000000  1.0000000 )


     point group C_1 (1)    
     there are  1 classes
     the character table:

       E    
A      1.00

     the symmetry operations in each class and the name of the first element:

     E        1
          identity                                               

   Cartesian axes

     site n.     atom                  positions (alat units)
         1           H   tau(   1) = (   0.2294668   0.4697758   0.2271531  )
         2           H   tau(   2) = (   0.1705332   0.4539846   0.2271531  )
         3           C   tau(   3) = (   0.0000000   0.0000000   0.0000000  )
         4           C   tau(   4) = (   0.0000000   0.1154701   0.0000000  )
         5           C   tau(   5) = (  -0.1000000   0.1732051   0.0000000  )
         6           C   tau(   6) = (  -0.1000000   0.2886751   0.0000000  )
         7           C   tau(   7) = (  -0.2000000   0.3464102   0.0000000  )
         8           C   tau(   8) = (  -0.2000000   0.4618802   0.0000000  )
         9           C   tau(   9) = (  -0.3000000   0.5196152   0.0000000  )
        10           C   tau(  10) = (  -0.3000000   0.6350853   0.0000000  )
        11           C   tau(  11) = (  -0.4000000   0.6928203   0.0000000  )
        12           C   tau(  12) = (  -0.4000000   0.8082904   0.0000000  )
        13           C   tau(  13) = (   0.2000000   0.0000000   0.0000000  )
        14           C   tau(  14) = (   0.2000000   0.1154701   0.0000000  )
        15           C   tau(  15) = (   0.1000000   0.1732051   0.0000000  )
        16           C   tau(  16) = (   0.1000000   0.2886751   0.0000000  )
        17           C   tau(  17) = (   0.0000000   0.3464102   0.0000000  )
        18           C   tau(  18) = (   0.0000000   0.4618802   0.0000000  )
        19           C   tau(  19) = (  -0.1000000   0.5196152   0.0000000  )
        20           C   tau(  20) = (  -0.1000000   0.6350853   0.0000000  )
        21           C   tau(  21) = (  -0.2000000   0.6928203   0.0000000  )
        22           C   tau(  22) = (  -0.2000000   0.8082904   0.0000000  )
        23           C   tau(  23) = (   0.4000000   0.0000000   0.0000000  )
        24           C   tau(  24) = (   0.4000000   0.1154701   0.0000000  )
        25           C   tau(  25) = (   0.3000000   0.1732051   0.0000000  )
        26           C   tau(  26) = (   0.3000000   0.2886751   0.0000000  )
        27           C   tau(  27) = (   0.2000000   0.3464102   0.0000000  )
        28           V   tau(  28) = (   0.2000000   0.4618802   0.0000000  )
        29           C   tau(  29) = (   0.1000000   0.5196152   0.0000000  )
        30           C   tau(  30) = (   0.1000000   0.6350853   0.0000000  )
        31           C   tau(  31) = (   0.0000000   0.6928203   0.0000000  )
        32           C   tau(  32) = (   0.0000000   0.8082904   0.0000000  )
        33           C   tau(  33) = (   0.6000000   0.0000000   0.0000000  )
        34           C   tau(  34) = (   0.6000000   0.1154701   0.0000000  )
        35           C   tau(  35) = (   0.5000000   0.1732051   0.0000000  )
        36           C   tau(  36) = (   0.5000000   0.2886751   0.0000000  )
        37           C   tau(  37) = (   0.4000000   0.3464102   0.0000000  )
        38           C   tau(  38) = (   0.4000000   0.4618802   0.0000000  )
        39           C   tau(  39) = (   0.3000000   0.5196152   0.0000000  )
        40           C   tau(  40) = (   0.3000000   0.6350853   0.0000000  )
        41           C   tau(  41) = (   0.2000000   0.6928203   0.0000000  )
        42           C   tau(  42) = (   0.2000000   0.8082904   0.0000000  )
        43           C   tau(  43) = (   0.8000000   0.0000000   0.0000000  )
        44           C   tau(  44) = (   0.8000000   0.1154701   0.0000000  )
        45           C   tau(  45) = (   0.7000000   0.1732051   0.0000000  )
        46           C   tau(  46) = (   0.7000000   0.2886751   0.0000000  )
        47           C   tau(  47) = (   0.6000000   0.3464102   0.0000000  )
        48           C   tau(  48) = (   0.6000000   0.4618802   0.0000000  )
        49           C   tau(  49) = (   0.5000000   0.5196152   0.0000000  )
        50           C   tau(  50) = (   0.5000000   0.6350853   0.0000000  )
        51           C   tau(  51) = (   0.4000000   0.6928203   0.0000000  )
        52           C   tau(  52) = (   0.4000000   0.8082904   0.0000000  )

   Crystallographic axes

     site n.     atom                  positions (cryst. coord.)
         1           H   tau(   1) = (  0.5006920  0.5424504  0.2800000  )
         2           H   tau(   2) = (  0.4326413  0.5242163  0.2800000  )
         3           C   tau(   3) = (  0.0000000  0.0000000  0.0000000  )
         4           C   tau(   4) = (  0.0666667  0.1333333  0.0000000  )
         5           C   tau(   5) = (  0.0000000  0.2000000  0.0000000  )
         6           C   tau(   6) = (  0.0666667  0.3333333  0.0000000  )
         7           C   tau(   7) = (  0.0000000  0.4000000  0.0000000  )
         8           C   tau(   8) = (  0.0666667  0.5333333  0.0000000  )
         9           C   tau(   9) = (  0.0000000  0.6000000  0.0000000  )
        10           C   tau(  10) = (  0.0666667  0.7333333  0.0000000  )
        11           C   tau(  11) = (  0.0000000  0.8000000  0.0000000  )
        12           C   tau(  12) = (  0.0666667  0.9333333  0.0000000  )
        13           C   tau(  13) = (  0.2000000  0.0000000  0.0000000  )
        14           C   tau(  14) = (  0.2666667  0.1333333  0.0000000  )
        15           C   tau(  15) = (  0.2000000  0.2000000  0.0000000  )
        16           C   tau(  16) = (  0.2666667  0.3333333  0.0000000  )
        17           C   tau(  17) = (  0.2000000  0.4000000  0.0000000  )
        18           C   tau(  18) = (  0.2666667  0.5333333  0.0000000  )
        19           C   tau(  19) = (  0.2000000  0.6000000  0.0000000  )
        20           C   tau(  20) = (  0.2666667  0.7333333  0.0000000  )
        21           C   tau(  21) = (  0.2000000  0.8000000  0.0000000  )
        22           C   tau(  22) = (  0.2666667  0.9333333  0.0000000  )
        23           C   tau(  23) = (  0.4000000  0.0000000  0.0000000  )
        24           C   tau(  24) = (  0.4666667  0.1333333  0.0000000  )
        25           C   tau(  25) = (  0.4000000  0.2000000  0.0000000  )
        26           C   tau(  26) = (  0.4666667  0.3333333  0.0000000  )
        27           C   tau(  27) = (  0.4000000  0.4000000  0.0000000  )
        28           V   tau(  28) = (  0.4666667  0.5333333  0.0000000  )
        29           C   tau(  29) = (  0.4000000  0.6000000  0.0000000  )
        30           C   tau(  30) = (  0.4666667  0.7333333  0.0000000  )
        31           C   tau(  31) = (  0.4000000  0.8000000  0.0000000  )
        32           C   tau(  32) = (  0.4666667  0.9333333  0.0000000  )
        33           C   tau(  33) = (  0.6000000  0.0000000  0.0000000  )
        34           C   tau(  34) = (  0.6666667  0.1333333  0.0000000  )
        35           C   tau(  35) = (  0.6000000  0.2000000  0.0000000  )
        36           C   tau(  36) = (  0.6666667  0.3333333  0.0000000  )
        37           C   tau(  37) = (  0.6000000  0.4000000  0.0000000  )
        38           C   tau(  38) = (  0.6666667  0.5333333  0.0000000  )
        39           C   tau(  39) = (  0.6000000  0.6000000  0.0000000  )
        40           C   tau(  40) = (  0.6666667  0.7333333  0.0000000  )
        41           C   tau(  41) = (  0.6000000  0.8000000  0.0000000  )
        42           C   tau(  42) = (  0.6666667  0.9333333  0.0000000  )
        43           C   tau(  43) = (  0.8000000  0.0000000  0.0000000  )
        44           C   tau(  44) = (  0.8666667  0.1333333  0.0000000  )
        45           C   tau(  45) = (  0.8000000  0.2000000  0.0000000  )
        46           C   tau(  46) = (  0.8666667  0.3333333  0.0000000  )
        47           C   tau(  47) = (  0.8000000  0.4000000  0.0000000  )
        48           C   tau(  48) = (  0.8666667  0.5333333  0.0000000  )
        49           C   tau(  49) = (  0.8000000  0.6000000  0.0000000  )
        50           C   tau(  50) = (  0.8666667  0.7333333  0.0000000  )
        51           C   tau(  51) = (  0.8000000  0.8000000  0.0000000  )
        52           C   tau(  52) = (  0.8666667  0.9333333  0.0000000  )

     number of k points=     1  Marzari-Vanderbilt smearing, width (Ry)=  0.0010
                       cart. coord. in units 2pi/alat
        k(    1) = (   0.0000000   0.0000000   0.0000000), wk =   1.0000000

                       cryst. coord.
        k(    1) = (   0.0000000   0.0000000   0.0000000), wk =   1.0000000

     Dense  grid:  1626001 G-vectors     FFT dimensions: ( 180, 180, 135)

     Smooth grid:   702581 G-vectors     FFT dimensions: ( 125, 125, 108)

     Dynamical RAM for                 wfc:      28.36 MB

     Dynamical RAM for     wfc (w. buffer):      85.09 MB

     Dynamical RAM for           str. fact:      12.41 MB

     Dynamical RAM for           local pot:       0.00 MB

     Dynamical RAM for          nlocal pot:      92.46 MB

     Dynamical RAM for                qrad:      19.73 MB

     Dynamical RAM for          rho,v,vnew:      58.92 MB

     Dynamical RAM for               rhoin:      19.64 MB

     Dynamical RAM for            rho*nmix:      66.16 MB

     Dynamical RAM for           G-vectors:      16.40 MB

     Dynamical RAM for          h,s,v(r/c):      11.81 MB

     Dynamical RAM for          <psi|beta>:       0.80 MB

     Dynamical RAM for                 psi:     113.46 MB

     Dynamical RAM for                hpsi:     113.46 MB

     Dynamical RAM for                spsi:     113.46 MB

     Dynamical RAM for      wfcinit/wfcrot:      93.90 MB

     Dynamical RAM for           addusdens:     975.89 MB

     Dynamical RAM for          addusforce:    1410.48 MB

     Estimated static dynamical RAM per process >     421.47 MB

     Estimated max dynamical RAM per process >       1.79 GB

     Estimated total dynamical RAM >      10.73 GB
     Generating pointlists ...
     new r_m :   0.0252 (alat units)  0.5862 (a.u.) for type    1
     new r_m :   0.0476 (alat units)  1.1095 (a.u.) for type    2
     new r_m :   0.0476 (alat units)  1.1095 (a.u.) for type    3

     Check: negative core charge=   -0.000002

     Initial potential from superposition of free atoms

     starting charge  210.80465, renormalised to  211.00000

     negative rho (up, down):  1.173E-04 1.537E-02
     Starting wfcs are  208 randomized atomic wfcs

     total cpu time spent up to now is       80.1 secs

     Self-consistent Calculation

     iteration #  1     ecut=    70.00 Ry     beta= 0.30
     Davidson diagonalization with overlap
     ethr =  1.00E-02,  avg # of iterations =  5.0

     negative rho (up, down):  1.448E-04 1.357E-02

     total cpu time spent up to now is      213.9 secs

     total energy              =    -752.89621392 Ry
     Harris-Foulkes estimate   =    -754.86286803 Ry
     estimated scf accuracy    <      11.58852580 Ry

     total magnetization       =     5.00 Bohr mag/cell
     absolute magnetization    =     5.97 Bohr mag/cell

     iteration #  2     ecut=    70.00 Ry     beta= 0.30
     Davidson diagonalization with overlap
     ethr =  5.49E-03,  avg # of iterations =  5.5

     negative rho (up, down):  1.363E-03 7.395E-02

     total cpu time spent up to now is      313.0 secs

     total energy              =    -752.63783336 Ry
     Harris-Foulkes estimate   =    -755.54047594 Ry
     estimated scf accuracy    <      15.23997837 Ry

     total magnetization       =     9.00 Bohr mag/cell
     absolute magnetization    =     9.07 Bohr mag/cell

     iteration #  3     ecut=    70.00 Ry     beta= 0.30
     Davidson diagonalization with overlap
     ethr =  5.49E-03,  avg # of iterations =  3.5

     negative rho (up, down):  4.842E-03 1.088E-01

     total cpu time spent up to now is      410.0 secs

     total energy              =    -754.61535851 Ry
     Harris-Foulkes estimate   =    -754.61948156 Ry
     estimated scf accuracy    <       3.84019118 Ry

     total magnetization       =     5.00 Bohr mag/cell
     absolute magnetization    =     5.60 Bohr mag/cell

     iteration #  4     ecut=    70.00 Ry     beta= 0.30
     Davidson diagonalization with overlap
     ethr =  1.82E-03,  avg # of iterations =  4.5

     negative rho (up, down):  5.425E-03 1.341E-01

     total cpu time spent up to now is      513.6 secs

     total energy              =    -755.25926234 Ry
     Harris-Foulkes estimate   =    -755.13729402 Ry
     estimated scf accuracy    <       0.25965764 Ry

     total magnetization       =     3.00 Bohr mag/cell
     absolute magnetization    =     3.35 Bohr mag/cell

     iteration #  5     ecut=    70.00 Ry     beta= 0.30
     Davidson diagonalization with overlap
     ethr =  1.23E-04,  avg # of iterations = 11.0

     negative rho (up, down):  5.935E-02 8.668E-03

     total cpu time spent up to now is      623.1 secs

     total energy              =    -755.35478433 Ry
     Harris-Foulkes estimate   =    -755.27592861 Ry
     estimated scf accuracy    <       0.11230611 Ry

     total magnetization       =     3.00 Bohr mag/cell
     absolute magnetization    =     3.31 Bohr mag/cell

     iteration #  6     ecut=    70.00 Ry     beta= 0.30
     Davidson diagonalization with overlap
     ethr =  5.32E-05,  avg # of iterations =  3.5

     negative rho (up, down):  3.021E-02 1.412E-02

     total cpu time spent up to now is      724.2 secs

     total energy              =    -755.37991788 Ry
     Harris-Foulkes estimate   =    -755.38734720 Ry
     estimated scf accuracy    <       0.09464961 Ry

     total magnetization       =     1.00 Bohr mag/cell
     absolute magnetization    =     1.63 Bohr mag/cell

     iteration #  7     ecut=    70.00 Ry     beta= 0.30
     Davidson diagonalization with overlap
     ethr =  4.49E-05,  avg # of iterations =  2.0

     negative rho (up, down):  2.480E-02 1.429E-02

     total cpu time spent up to now is      819.2 secs

     total energy              =    -755.38927217 Ry
     Harris-Foulkes estimate   =    -755.38590724 Ry
     estimated scf accuracy    <       0.05208159 Ry

     total magnetization       =     1.00 Bohr mag/cell
     absolute magnetization    =     1.61 Bohr mag/cell

     iteration #  8     ecut=    70.00 Ry     beta= 0.30
     Davidson diagonalization with overlap
     ethr =  2.47E-05,  avg # of iterations = 11.5

     negative rho (up, down):  3.941E-02 1.397E-02

     total cpu time spent up to now is      926.6 secs

     total energy              =    -755.39837701 Ry
     Harris-Foulkes estimate   =    -755.39463636 Ry
     estimated scf accuracy    <       0.03675098 Ry

     total magnetization       =     1.00 Bohr mag/cell
     absolute magnetization    =     1.58 Bohr mag/cell

     iteration #  9     ecut=    70.00 Ry     beta= 0.30
     Davidson diagonalization with overlap
     ethr =  1.74E-05,  avg # of iterations =  3.0

     negative rho (up, down):  3.502E-02 1.433E-02

     total cpu time spent up to now is     1023.3 secs

     total energy              =    -755.40331453 Ry
     Harris-Foulkes estimate   =    -755.40173397 Ry
     estimated scf accuracy    <       0.00439298 Ry

     total magnetization       =     1.00 Bohr mag/cell
     absolute magnetization    =     1.49 Bohr mag/cell

     iteration # 10     ecut=    70.00 Ry     beta= 0.30
     Davidson diagonalization with overlap
     ethr =  2.08E-06,  avg # of iterations =  3.5

     negative rho (up, down):  3.628E-02 1.492E-02

     total cpu time spent up to now is     1122.1 secs

     total energy              =    -755.40471805 Ry
     Harris-Foulkes estimate   =    -755.40384939 Ry
     estimated scf accuracy    <       0.00168014 Ry

     total magnetization       =     1.00 Bohr mag/cell
     absolute magnetization    =     1.47 Bohr mag/cell

     iteration # 11     ecut=    70.00 Ry     beta= 0.30
     Davidson diagonalization with overlap
     ethr =  7.96E-07,  avg # of iterations =  3.5

     negative rho (up, down):  3.056E-02 1.648E-02

     total cpu time spent up to now is     1214.8 secs

     total energy              =    -755.40578292 Ry
     Harris-Foulkes estimate   =    -755.40500974 Ry
     estimated scf accuracy    <       0.00220495 Ry

     total magnetization       =     1.00 Bohr mag/cell
     absolute magnetization    =     1.45 Bohr mag/cell

     iteration # 12     ecut=    70.00 Ry     beta= 0.30
     Davidson diagonalization with overlap
     ethr =  7.96E-07,  avg # of iterations =  3.0

     negative rho (up, down):  3.215E-02 1.624E-02

     total cpu time spent up to now is     1309.1 secs

     total energy              =    -755.40610539 Ry
     Harris-Foulkes estimate   =    -755.40619192 Ry
     estimated scf accuracy    <       0.00584032 Ry

     total magnetization       =     1.00 Bohr mag/cell
     absolute magnetization    =     1.46 Bohr mag/cell

     iteration # 13     ecut=    70.00 Ry     beta= 0.30
     Davidson diagonalization with overlap
     ethr =  7.96E-07,  avg # of iterations =  3.0

     negative rho (up, down):  3.017E-02 1.829E-02

     total cpu time spent up to now is     1405.3 secs

     total energy              =    -755.40668577 Ry
     Harris-Foulkes estimate   =    -755.40639822 Ry
     estimated scf accuracy    <       0.00146792 Ry

     total magnetization       =     1.00 Bohr mag/cell
     absolute magnetization    =     1.44 Bohr mag/cell

     iteration # 14     ecut=    70.00 Ry     beta= 0.30
     Davidson diagonalization with overlap
     ethr =  6.96E-07,  avg # of iterations =  2.0

     negative rho (up, down):  3.046E-02 1.508E-02

     total cpu time spent up to now is     1501.4 secs

     total energy              =    -755.40690699 Ry
     Harris-Foulkes estimate   =    -755.40675036 Ry
     estimated scf accuracy    <       0.00015377 Ry

     total magnetization       =     1.00 Bohr mag/cell
     absolute magnetization    =     1.44 Bohr mag/cell

     iteration # 15     ecut=    70.00 Ry     beta= 0.30
     Davidson diagonalization with overlap
     ethr =  7.29E-08,  avg # of iterations =  3.5

     negative rho (up, down):  3.171E-02 1.007E-02

     total cpu time spent up to now is     1599.9 secs

     total energy              =    -755.40694336 Ry
     Harris-Foulkes estimate   =    -755.40692533 Ry
     estimated scf accuracy    <       0.00005524 Ry

     total magnetization       =     1.00 Bohr mag/cell
     absolute magnetization    =     1.45 Bohr mag/cell

     iteration # 16     ecut=    70.00 Ry     beta= 0.30
     Davidson diagonalization with overlap
     ethr =  2.62E-08,  avg # of iterations =  3.5

     negative rho (up, down):  3.133E-02 8.671E-03

     total cpu time spent up to now is     1709.4 secs

     total energy              =    -755.40705143 Ry
     Harris-Foulkes estimate   =    -755.40696004 Ry
     estimated scf accuracy    <       0.00001724 Ry

     total magnetization       =     1.00 Bohr mag/cell
     absolute magnetization    =     1.46 Bohr mag/cell

     iteration # 17     ecut=    70.00 Ry     beta= 0.30
     Davidson diagonalization with overlap
     ethr =  8.17E-09,  avg # of iterations =  3.5

     negative rho (up, down):  3.089E-02 7.688E-03

     total cpu time spent up to now is     1810.8 secs

     total energy              =    -755.40711666 Ry
     Harris-Foulkes estimate   =    -755.40705550 Ry
     estimated scf accuracy    <       0.00001259 Ry

     total magnetization       =     1.00 Bohr mag/cell
     absolute magnetization    =     1.47 Bohr mag/cell

     iteration # 18     ecut=    70.00 Ry     beta= 0.30
     Davidson diagonalization with overlap
     ethr =  5.97E-09,  avg # of iterations =  3.5

     negative rho (up, down):  3.030E-02 7.725E-03

     total cpu time spent up to now is     1909.0 secs

     total energy              =    -755.40716322 Ry
     Harris-Foulkes estimate   =    -755.40712054 Ry
     estimated scf accuracy    <       0.00005893 Ry

     total magnetization       =     1.00 Bohr mag/cell
     absolute magnetization    =     1.48 Bohr mag/cell

     iteration # 19     ecut=    70.00 Ry     beta= 0.30
     Davidson diagonalization with overlap
     ethr =  5.97E-09,  avg # of iterations =  3.0

     negative rho (up, down):  3.000E-02 7.785E-03

     total cpu time spent up to now is     2005.1 secs

     total energy              =    -755.40719006 Ry
     Harris-Foulkes estimate   =    -755.40716571 Ry
     estimated scf accuracy    <       0.00000677 Ry

     total magnetization       =     1.00 Bohr mag/cell
     absolute magnetization    =     1.48 Bohr mag/cell

     iteration # 20     ecut=    70.00 Ry     beta= 0.30
     Davidson diagonalization with overlap
     ethr =  3.21E-09,  avg # of iterations =  3.0

     negative rho (up, down):  3.008E-02 5.157E-03

     total cpu time spent up to now is     2101.7 secs

     total energy              =    -755.40719583 Ry
     Harris-Foulkes estimate   =    -755.40719201 Ry
     estimated scf accuracy    <       0.00003914 Ry

     total magnetization       =     1.00 Bohr mag/cell
     absolute magnetization    =     1.49 Bohr mag/cell

     iteration # 21     ecut=    70.00 Ry     beta= 0.30
     Davidson diagonalization with overlap
     ethr =  3.21E-09,  avg # of iterations =  3.0

     negative rho (up, down):  3.009E-02 3.331E-03

     total cpu time spent up to now is     2199.2 secs

     total energy              =    -755.40720469 Ry
     Harris-Foulkes estimate   =    -755.40719774 Ry
     estimated scf accuracy    <       0.00000171 Ry

     total magnetization       =     1.00 Bohr mag/cell
     absolute magnetization    =     1.49 Bohr mag/cell

     iteration # 22     ecut=    70.00 Ry     beta= 0.30
     Davidson diagonalization with overlap
     ethr =  8.10E-10,  avg # of iterations =  3.0

     negative rho (up, down):  3.005E-02 2.364E-03

     total cpu time spent up to now is     2304.2 secs

     total energy              =    -755.40721160 Ry
     Harris-Foulkes estimate   =    -755.40720502 Ry
     estimated scf accuracy    <       0.00000081 Ry

     total magnetization       =     1.00 Bohr mag/cell
     absolute magnetization    =     1.50 Bohr mag/cell

     iteration # 23     ecut=    70.00 Ry     beta= 0.30
     Davidson diagonalization with overlap
     ethr =  3.85E-10,  avg # of iterations =  3.0

     negative rho (up, down):  3.003E-02 1.997E-03

     total cpu time spent up to now is     2404.1 secs

     total energy              =    -755.40721612 Ry
     Harris-Foulkes estimate   =    -755.40721173 Ry
     estimated scf accuracy    <       0.00000049 Ry

     total magnetization       =     1.00 Bohr mag/cell
     absolute magnetization    =     1.50 Bohr mag/cell

     iteration # 24     ecut=    70.00 Ry     beta= 0.30
     Davidson diagonalization with overlap
     ethr =  2.30E-10,  avg # of iterations =  3.5

     negative rho (up, down):  2.999E-02 2.018E-03

     total cpu time spent up to now is     2520.8 secs

     total energy              =    -755.40721959 Ry
     Harris-Foulkes estimate   =    -755.40721629 Ry
     estimated scf accuracy    <       0.00000122 Ry

     total magnetization       =     1.00 Bohr mag/cell
     absolute magnetization    =     1.51 Bohr mag/cell

     iteration # 25     ecut=    70.00 Ry     beta= 0.30
     Davidson diagonalization with overlap
     ethr =  2.30E-10,  avg # of iterations =  2.0

     negative rho (up, down):  2.997E-02 2.263E-03

     total cpu time spent up to now is     2616.1 secs

     total energy              =    -755.40722169 Ry
     Harris-Foulkes estimate   =    -755.40721967 Ry
     estimated scf accuracy    <       0.00000040 Ry

     total magnetization       =     1.00 Bohr mag/cell
     absolute magnetization    =     1.51 Bohr mag/cell

     iteration # 26     ecut=    70.00 Ry     beta= 0.30
     Davidson diagonalization with overlap
     ethr =  1.90E-10,  avg # of iterations =  3.0

     negative rho (up, down):  2.996E-02 1.927E-03

     total cpu time spent up to now is     2723.8 secs

     total energy              =    -755.40722237 Ry
     Harris-Foulkes estimate   =    -755.40722184 Ry
     estimated scf accuracy    <       0.00000120 Ry

     total magnetization       =     1.00 Bohr mag/cell
     absolute magnetization    =     1.51 Bohr mag/cell

     iteration # 27     ecut=    70.00 Ry     beta= 0.30
     Davidson diagonalization with overlap
     ethr =  1.90E-10,  avg # of iterations =  2.0

     negative rho (up, down):  2.996E-02 1.992E-03

     total cpu time spent up to now is     2819.5 secs

     total energy              =    -755.40722310 Ry
     Harris-Foulkes estimate   =    -755.40722244 Ry
     estimated scf accuracy    <       0.00000027 Ry

     total magnetization       =     1.00 Bohr mag/cell
     absolute magnetization    =     1.51 Bohr mag/cell

     iteration # 28     ecut=    70.00 Ry     beta= 0.30
     Davidson diagonalization with overlap
     ethr =  1.26E-10,  avg # of iterations =  2.0

     negative rho (up, down):  2.995E-02 1.965E-03

     total cpu time spent up to now is     2911.9 secs

     total energy              =    -755.40722344 Ry
     Harris-Foulkes estimate   =    -755.40722311 Ry
     estimated scf accuracy    <       0.00000018 Ry

     total magnetization       =     1.00 Bohr mag/cell
     absolute magnetization    =     1.51 Bohr mag/cell

     iteration # 29     ecut=    70.00 Ry     beta= 0.30
     Davidson diagonalization with overlap
     ethr =  8.50E-11,  avg # of iterations =  2.0

     negative rho (up, down):  2.994E-02 1.870E-03

     total cpu time spent up to now is     3001.2 secs

     total energy              =    -755.40722368 Ry
     Harris-Foulkes estimate   =    -755.40722345 Ry
     estimated scf accuracy    <       0.00000009 Ry

     total magnetization       =     1.00 Bohr mag/cell
     absolute magnetization    =     1.51 Bohr mag/cell

     iteration # 30     ecut=    70.00 Ry     beta= 0.30
     Davidson diagonalization with overlap
     ethr =  4.26E-11,  avg # of iterations =  3.0

     negative rho (up, down):  2.995E-02 1.873E-03

     total cpu time spent up to now is     3106.5 secs

     total energy              =    -755.40722370 Ry
     Harris-Foulkes estimate   =    -755.40722370 Ry
     estimated scf accuracy    <       0.00000003 Ry

     total magnetization       =     1.00 Bohr mag/cell
     absolute magnetization    =     1.51 Bohr mag/cell

     iteration # 31     ecut=    70.00 Ry     beta= 0.30
     Davidson diagonalization with overlap
     ethr =  1.56E-11,  avg # of iterations =  3.0

     negative rho (up, down):  2.994E-02 1.813E-03

     total cpu time spent up to now is     3201.8 secs

     total energy              =    -755.40722376 Ry
     Harris-Foulkes estimate   =    -755.40722370 Ry
     estimated scf accuracy    <       0.00000009 Ry

     total magnetization       =     1.00 Bohr mag/cell
     absolute magnetization    =     1.51 Bohr mag/cell

     iteration # 32     ecut=    70.00 Ry     beta= 0.30
     Davidson diagonalization with overlap
     ethr =  1.56E-11,  avg # of iterations =  3.5

     negative rho (up, down):  2.994E-02 1.835E-03

     total cpu time spent up to now is     3318.2 secs

     total energy              =    -755.40722376 Ry
     Harris-Foulkes estimate   =    -755.40722378 Ry
     estimated scf accuracy    <       0.00000006 Ry

     total magnetization       =     1.00 Bohr mag/cell
     absolute magnetization    =     1.51 Bohr mag/cell

     iteration # 33     ecut=    70.00 Ry     beta= 0.30
     Davidson diagonalization with overlap
     ethr =  1.56E-11,  avg # of iterations =  3.0

     negative rho (up, down):  2.994E-02 1.810E-03

     total cpu time spent up to now is     3412.0 secs

     total energy              =    -755.40722378 Ry
     Harris-Foulkes estimate   =    -755.40722376 Ry
     estimated scf accuracy    <       0.00000004 Ry

     total magnetization       =     1.00 Bohr mag/cell
     absolute magnetization    =     1.51 Bohr mag/cell

     iteration # 34     ecut=    70.00 Ry     beta= 0.30
     Davidson diagonalization with overlap
     ethr =  1.56E-11,  avg # of iterations =  2.5

     negative rho (up, down):  2.994E-02 1.835E-03

     total cpu time spent up to now is     3504.3 secs

     total energy              =    -755.40722377 Ry
     Harris-Foulkes estimate   =    -755.40722378 Ry
     estimated scf accuracy    <       0.00000002 Ry

     total magnetization       =     1.00 Bohr mag/cell
     absolute magnetization    =     1.51 Bohr mag/cell

     iteration # 35     ecut=    70.00 Ry     beta= 0.30
     Davidson diagonalization with overlap
     ethr =  9.63E-12,  avg # of iterations =  3.5

     negative rho (up, down):  2.994E-02 1.854E-03

     total cpu time spent up to now is     3623.2 secs

     total energy              =    -755.40722378 Ry
     Harris-Foulkes estimate   =    -755.40722378 Ry
     estimated scf accuracy    <          6.4E-09 Ry

     total magnetization       =     1.00 Bohr mag/cell
     absolute magnetization    =     1.51 Bohr mag/cell

     iteration # 36     ecut=    70.00 Ry     beta= 0.30
     Davidson diagonalization with overlap
     ethr =  3.05E-12,  avg # of iterations =  3.5

     negative rho (up, down):  2.994E-02 1.850E-03

     total cpu time spent up to now is     3751.2 secs

     total energy              =    -755.40722379 Ry
     Harris-Foulkes estimate   =    -755.40722379 Ry
     estimated scf accuracy    <          4.2E-09 Ry

     total magnetization       =     1.00 Bohr mag/cell
     absolute magnetization    =     1.51 Bohr mag/cell

     iteration # 37     ecut=    70.00 Ry     beta= 0.30
     Davidson diagonalization with overlap
     ethr =  1.97E-12,  avg # of iterations =  3.0

     negative rho (up, down):  2.994E-02 1.860E-03

     total cpu time spent up to now is     3866.2 secs

     total energy              =    -755.40722378 Ry
     Harris-Foulkes estimate   =    -755.40722379 Ry
     estimated scf accuracy    <          2.9E-09 Ry

     total magnetization       =     1.00 Bohr mag/cell
     absolute magnetization    =     1.51 Bohr mag/cell

     iteration # 38     ecut=    70.00 Ry     beta= 0.30
     Davidson diagonalization with overlap
     ethr =  1.36E-12,  avg # of iterations =  4.0

     negative rho (up, down):  2.994E-02 1.841E-03

     total cpu time spent up to now is     4014.6 secs

     total energy              =    -755.40722379 Ry
     Harris-Foulkes estimate   =    -755.40722379 Ry
     estimated scf accuracy    <       0.00000003 Ry

     total magnetization       =     1.00 Bohr mag/cell
     absolute magnetization    =     1.51 Bohr mag/cell

     iteration # 39     ecut=    70.00 Ry     beta= 0.30
     Davidson diagonalization with overlap
     ethr =  1.36E-12,  avg # of iterations =  4.0

     negative rho (up, down):  2.994E-02 1.824E-03

     total cpu time spent up to now is     4152.6 secs

     total energy              =    -755.40722379 Ry
     Harris-Foulkes estimate   =    -755.40722379 Ry
     estimated scf accuracy    <          1.7E-09 Ry

     total magnetization       =     1.00 Bohr mag/cell
     absolute magnetization    =     1.51 Bohr mag/cell

     iteration # 40     ecut=    70.00 Ry     beta= 0.30
     Davidson diagonalization with overlap
     ethr =  7.93E-13,  avg # of iterations =  3.5

     negative rho (up, down):  2.994E-02 1.829E-03

     total cpu time spent up to now is     4282.9 secs

     total energy              =    -755.40722379 Ry
     Harris-Foulkes estimate   =    -755.40722379 Ry
     estimated scf accuracy    <          6.3E-10 Ry

     total magnetization       =     1.00 Bohr mag/cell
     absolute magnetization    =     1.51 Bohr mag/cell

     iteration # 41     ecut=    70.00 Ry     beta= 0.30
     Davidson diagonalization with overlap
     ethr =  2.97E-13,  avg # of iterations =  4.0

     negative rho (up, down):  2.994E-02 1.828E-03

     total cpu time spent up to now is     4424.8 secs

     total energy              =    -755.40722379 Ry
     Harris-Foulkes estimate   =    -755.40722379 Ry
     estimated scf accuracy    <          4.5E-10 Ry

     total magnetization       =     1.00 Bohr mag/cell
     absolute magnetization    =     1.51 Bohr mag/cell

     iteration # 42     ecut=    70.00 Ry     beta= 0.30
     Davidson diagonalization with overlap
     ethr =  2.14E-13,  avg # of iterations =  3.0

     negative rho (up, down):  2.994E-02 1.824E-03

     total cpu time spent up to now is     4522.8 secs

     total energy              =    -755.40722380 Ry
     Harris-Foulkes estimate   =    -755.40722379 Ry
     estimated scf accuracy    <          3.4E-10 Ry

     total magnetization       =     1.00 Bohr mag/cell
     absolute magnetization    =     1.51 Bohr mag/cell

     iteration # 43     ecut=    70.00 Ry     beta= 0.30
     Davidson diagonalization with overlap
     ethr =  1.62E-13,  avg # of iterations =  3.0

     negative rho (up, down):  2.994E-02 1.818E-03

     total cpu time spent up to now is     4627.4 secs

     total energy              =    -755.40722380 Ry
     Harris-Foulkes estimate   =    -755.40722380 Ry
     estimated scf accuracy    <          1.3E-10 Ry

     total magnetization       =     1.00 Bohr mag/cell
     absolute magnetization    =     1.51 Bohr mag/cell

     iteration # 44     ecut=    70.00 Ry     beta= 0.30
     Davidson diagonalization with overlap
     ethr =  1.00E-13,  avg # of iterations =  3.5

     negative rho (up, down):  2.994E-02 1.817E-03

     Magnetic moment per site:
     atom:    1    charge:    0.2089    magn:   -0.0000    constr:    0.0000
     atom:    2    charge:    0.2089    magn:   -0.0000    constr:    0.0000
     atom:    3    charge:    1.7124    magn:   -0.0065    constr:    0.0000
     atom:    4    charge:    1.7104    magn:    0.0091    constr:    0.0000
     atom:    5    charge:    1.7130    magn:   -0.0039    constr:    0.0000
     atom:    6    charge:    1.7088    magn:    0.0023    constr:    0.0000
     atom:    7    charge:    1.7130    magn:   -0.0039    constr:    0.0000
     atom:    8    charge:    1.7103    magn:    0.0087    constr:    0.0000
     atom:    9    charge:    1.7125    magn:   -0.0064    constr:    0.0000
     atom:   10    charge:    1.7088    magn:    0.0291    constr:    0.0000
     atom:   11    charge:    1.7133    magn:   -0.0087    constr:    0.0000
     atom:   12    charge:    1.7091    magn:    0.0307    constr:    0.0000
     atom:   13    charge:    1.7133    magn:   -0.0087    constr:    0.0000
     atom:   14    charge:    1.7090    magn:    0.0218    constr:    0.0000
     atom:   15    charge:    1.7117    magn:   -0.0074    constr:    0.0000
     atom:   16    charge:    1.7052    magn:    0.0279    constr:    0.0000
     atom:   17    charge:    1.7219    magn:   -0.0048    constr:    0.0000
     atom:   18    charge:    1.7053    magn:    0.0282    constr:    0.0000
     atom:   19    charge:    1.7117    magn:   -0.0075    constr:    0.0000
     atom:   20    charge:    1.7092    magn:    0.0229    constr:    0.0000
     atom:   21    charge:    1.7133    magn:   -0.0087    constr:    0.0000
     atom:   22    charge:    1.7093    magn:    0.0322    constr:    0.0000
     atom:   23    charge:    1.7123    magn:   -0.0067    constr:    0.0000
     atom:   24    charge:    1.7104    magn:    0.0095    constr:    0.0000
     atom:   25    charge:    1.7116    magn:   -0.0076    constr:    0.0000
     atom:   26    charge:    1.7054    magn:    0.0294    constr:    0.0000
     atom:   27    charge:    1.9107    magn:   -0.0011    constr:    0.0000
     atom:   28    charge:    7.8472    magn:    0.1035    constr:    0.0000
     atom:   29    charge:    1.9107    magn:   -0.0009    constr:    0.0000
     atom:   30    charge:    1.7056    magn:    0.0312    constr:    0.0000
     atom:   31    charge:    1.7116    magn:   -0.0079    constr:    0.0000
     atom:   32    charge:    1.7104    magn:    0.0094    constr:    0.0000
     atom:   33    charge:    1.7130    magn:   -0.0040    constr:    0.0000
     atom:   34    charge:    1.7084    magn:    0.0068    constr:    0.0000
     atom:   35    charge:    1.7130    magn:   -0.0040    constr:    0.0000
     atom:   36    charge:    1.7087    magn:    0.0023    constr:    0.0000
     atom:   37    charge:    1.7218    magn:   -0.0051    constr:    0.0000
     atom:   38    charge:    1.7055    magn:    0.0301    constr:    0.0000
     atom:   39    charge:    1.9106    magn:   -0.0007    constr:    0.0000
     atom:   40    charge:    1.7057    magn:    0.0316    constr:    0.0000
     atom:   41    charge:    1.7217    magn:   -0.0054    constr:    0.0000
     atom:   42    charge:    1.7087    magn:    0.0023    constr:    0.0000
     atom:   43    charge:    1.7130    magn:   -0.0040    constr:    0.0000
     atom:   44    charge:    1.7084    magn:    0.0066    constr:    0.0000
     atom:   45    charge:    1.7194    magn:   -0.0029    constr:    0.0000
     atom:   46    charge:    1.7084    magn:    0.0063    constr:    0.0000
     atom:   47    charge:    1.7131    magn:   -0.0039    constr:    0.0000
     atom:   48    charge:    1.7103    magn:    0.0087    constr:    0.0000
     atom:   49    charge:    1.7116    magn:   -0.0078    constr:    0.0000
     atom:   50    charge:    1.7093    magn:    0.0241    constr:    0.0000
     atom:   51    charge:    1.7116    magn:   -0.0080    constr:    0.0000
     atom:   52    charge:    1.7103    magn:    0.0090    constr:    0.0000

     total cpu time spent up to now is     4754.8 secs

     End of self-consistent calculation

 ------ SPIN UP ------------


          k = 0.0000 0.0000 0.0000 ( 87777 PWs)   bands (ev):

   -62.7991 -37.9404 -37.9363 -36.6066 -19.6626 -18.8200 -18.8156 -18.7481
   -18.7022 -18.6990 -18.2591 -16.9572 -16.9559 -16.9552 -16.8180 -16.8165
   -16.5338 -16.0983 -16.0982 -16.0043 -15.8466 -15.8456 -15.0884 -13.8871
   -13.8845 -13.8821 -13.8566 -13.8562 -13.1402 -12.9410 -12.9406 -12.9232
   -12.5233 -12.5231 -12.1254 -11.6582 -11.6576 -11.5310 -11.1480 -11.1477
   -10.1485  -9.3401  -9.3389  -9.2500  -9.1753  -9.1753  -9.1016  -9.0744
    -9.0743  -9.0600  -8.4693  -8.4690  -7.9082  -7.9071  -7.8692  -7.8232
    -7.6888  -7.3891  -7.2568  -7.2551  -6.9648  -6.9612  -6.8693  -6.6986
    -6.6978  -6.6958  -6.5784  -6.5776  -6.5305  -6.4196  -6.4171  -6.3752
    -6.3686  -6.3678  -6.3124  -6.2500  -5.2360  -5.2351  -5.1646  -5.1599
    -4.9221  -4.9218  -4.8067  -4.7168  -4.6210  -4.6090  -4.6088  -4.2345
    -3.9888  -3.9887  -3.7624  -3.7620  -3.6607  -3.4998  -3.4545  -3.4541
    -2.8713  -2.2690  -2.2666  -2.2262  -2.2243  -1.7514  -1.6886  -1.6874
    -0.5016  -0.2452  -0.2441   1.0544   1.0827   1.0848   1.3178   1.8344
     2.0533   2.0539   2.8682   2.9075   2.9108   2.9911   3.4220   3.7499
     3.7885   4.0061   4.0076   4.0765   4.0779   4.1031   4.2294

     occupation numbers 
     1.0000   1.0000   1.0000   1.0000   1.0000   1.0000   1.0000   1.0000
     1.0000   1.0000   1.0000   1.0000   1.0000   1.0000   1.0000   1.0000
     1.0000   1.0000   1.0000   1.0000   1.0000   1.0000   1.0000   1.0000
     1.0000   1.0000   1.0000   1.0000   1.0000   1.0000   1.0000   1.0000
     1.0000   1.0000   1.0000   1.0000   1.0000   1.0000   1.0000   1.0000
     1.0000   1.0000   1.0000   1.0000   1.0000   1.0000   1.0000   1.0000
     1.0000   1.0000   1.0000   1.0000   1.0000   1.0000   1.0000   1.0000
     1.0000   1.0000   1.0000   1.0000   1.0000   1.0000   1.0000   1.0000
     1.0000   1.0000   1.0000   1.0000   1.0000   1.0000   1.0000   1.0000
     1.0000   1.0000   1.0000   1.0000   1.0000   1.0000   1.0000   1.0000
     1.0000   1.0000   1.0000   1.0000   1.0000   1.0000   1.0000   1.0000
     1.0000   1.0000   1.0000   1.0000   1.0000   1.0000   1.0000   1.0000
     1.0000   1.0000   1.0000   1.0000   1.0000   1.0000   1.0000   1.0000
     1.0000   0.5310   0.4690   0.0000   0.0000   0.0000   0.0000   0.0000
     0.0000   0.0000   0.0000   0.0000   0.0000   0.0000   0.0000   0.0000
     0.0000   0.0000   0.0000   0.0000   0.0000   0.0000   0.0000

 ------ SPIN DOWN ----------


          k = 0.0000 0.0000 0.0000 ( 87777 PWs)   bands (ev):

   -62.6002 -37.7813 -37.7667 -36.3341 -19.6400 -18.7984 -18.7925 -18.7272
   -18.6851 -18.6813 -18.2258 -16.9402 -16.9364 -16.9350 -16.7891 -16.7869
   -16.5185 -16.0706 -16.0696 -15.9875 -15.8246 -15.8237 -15.0720 -13.8526
   -13.8520 -13.8499 -13.8431 -13.8383 -13.1401 -12.9286 -12.9278 -12.9063
   -12.5128 -12.5128 -12.1048 -11.6382 -11.6380 -11.5154 -11.1329 -11.1327
   -10.1319  -9.3202  -9.3186  -9.2333  -9.1551  -9.1547  -9.0910  -9.0583
    -9.0579  -9.0485  -8.4603  -8.4596  -7.8936  -7.8924  -7.8584  -7.7735
    -7.6763  -7.3831  -7.2450  -7.2434  -6.8864  -6.8850  -6.8474  -6.6667
    -6.6651  -6.6466  -6.5634  -6.5628  -6.5161  -6.4070  -6.4042  -6.3669
    -6.3596  -6.3591  -6.3025  -6.1744  -5.2251  -5.2237  -5.0771  -5.0770
    -4.9088  -4.9087  -4.7978  -4.7080  -4.5797  -4.5592  -4.5580  -4.1973
    -3.9392  -3.9367  -3.6899  -3.6894  -3.6155  -3.4602  -3.4451  -3.4444
    -2.8367  -2.2008  -2.2001  -2.1568  -2.1534  -1.6725  -1.6716  -1.6599
    -0.4944  -0.0305  -0.0170   1.1042   1.1060   1.1300   1.4152   1.9026
     2.1226   2.1261   2.8789   2.9765   2.9800   3.0317   3.4340   3.8004
     3.8022   4.0753   4.0763   4.0826   4.0849   4.1126   4.2420

     occupation numbers 
     1.0000   1.0000   1.0000   1.0000   1.0000   1.0000   1.0000   1.0000
     1.0000   1.0000   1.0000   1.0000   1.0000   1.0000   1.0000   1.0000
     1.0000   1.0000   1.0000   1.0000   1.0000   1.0000   1.0000   1.0000
     1.0000   1.0000   1.0000   1.0000   1.0000   1.0000   1.0000   1.0000
     1.0000   1.0000   1.0000   1.0000   1.0000   1.0000   1.0000   1.0000
     1.0000   1.0000   1.0000   1.0000   1.0000   1.0000   1.0000   1.0000
     1.0000   1.0000   1.0000   1.0000   1.0000   1.0000   1.0000   1.0000
     1.0000   1.0000   1.0000   1.0000   1.0000   1.0000   1.0000   1.0000
     1.0000   1.0000   1.0000   1.0000   1.0000   1.0000   1.0000   1.0000
     1.0000   1.0000   1.0000   1.0000   1.0000   1.0000   1.0000   1.0000
     1.0000   1.0000   1.0000   1.0000   1.0000   1.0000   1.0000   1.0000
     1.0000   1.0000   1.0000   1.0000   1.0000   1.0000   1.0000   1.0000
     1.0000   1.0000   1.0000   1.0000   1.0000   1.0000   1.0000   1.0000
     1.0000   0.0000   0.0000   0.0000   0.0000   0.0000   0.0000   0.0000
     0.0000   0.0000   0.0000   0.0000   0.0000   0.0000   0.0000   0.0000
     0.0000   0.0000   0.0000   0.0000   0.0000   0.0000   0.0000

     the Fermi energy is    -0.2428 ev

!    total energy              =    -755.40722380 Ry
     Harris-Foulkes estimate   =    -755.40722380 Ry
     estimated scf accuracy    <          5.9E-11 Ry

     The total energy is the sum of the following terms:

     one-electron contribution =   -2591.38446606 Ry
     hartree contribution      =    1342.89279194 Ry
     xc contribution           =    -250.59893620 Ry
     ewald contribution        =     743.68371340 Ry
     smearing contrib. (-TS)   =      -0.00032688 Ry

     total magnetization       =     1.00 Bohr mag/cell
     absolute magnetization    =     1.51 Bohr mag/cell

     convergence has been achieved in  44 iterations

     negative rho (up, down):  2.994E-02 1.817E-03

     Forces acting on atoms (cartesian axes, Ry/au):

     atom    1 type  1   force =     0.00531591    0.00147034   -0.00120224
     atom    2 type  1   force =    -0.00526968   -0.00136691   -0.00109401
     atom    3 type  2   force =    -0.00161076    0.00097572    0.00003595
     atom    4 type  2   force =    -0.00868732   -0.00204914   -0.00004711
     atom    5 type  2   force =    -0.00197954   -0.00628615   -0.00006282
     atom    6 type  2   force =     0.01020790    0.00589315    0.00000742
     atom    7 type  2   force =    -0.00638339    0.00140977   -0.00006603
     atom    8 type  2   force =    -0.00609076   -0.00649303   -0.00004518
     atom    9 type  2   force =     0.00002051   -0.00210810    0.00003575
     atom   10 type  2   force =     0.00024758   -0.00308005    0.00001324
     atom   11 type  2   force =    -0.00960118   -0.00555572   -0.00000324
     atom   12 type  2   force =    -0.00261591    0.00207460    0.00001400
     atom   13 type  2   force =    -0.00000877    0.01029431   -0.00000607
     atom   14 type  2   force =     0.00009058   -0.01288104    0.00001421
     atom   15 type  2   force =    -0.00820603    0.01443577    0.00006073
     atom   16 type  2   force =    -0.03383191   -0.03588240    0.00034907
     atom   17 type  2   force =    -0.03237455   -0.01849576    0.00131140
     atom   18 type  2   force =    -0.04877208   -0.01146134    0.00025113
     atom   19 type  2   force =     0.00865644   -0.01441287    0.00006422
     atom   20 type  2   force =    -0.01138143    0.00677543    0.00001369
     atom   21 type  2   force =     0.00924560   -0.00536045   -0.00000478
     atom   22 type  2   force =     0.00292922    0.00196954    0.00001469
     atom   23 type  2   force =     0.00142759    0.00084624    0.00003603
     atom   24 type  2   force =     0.00878166   -0.00211882   -0.00004376
     atom   25 type  2   force =     0.00806862    0.01446699    0.00003960
     atom   26 type  2   force =     0.03390771   -0.03588255    0.00041787
     atom   27 type  2   force =    -0.00042505   -0.88805141   -0.00962997
     atom   28 type  3   force =     0.00066492    0.00111967    0.02449106
     atom   29 type  2   force =    -0.76841128    0.44266985   -0.00929293
     atom   30 type  2   force =    -0.01439057    0.04809972    0.00038913
     atom   31 type  2   force =     0.01673925   -0.00056167    0.00002023
     atom   32 type  2   force =     0.00255634    0.00875324   -0.00003841
     atom   33 type  2   force =    -0.00472877    0.00476135   -0.00005549
     atom   34 type  2   force =     0.00307675    0.00187530    0.00000882
     atom   35 type  2   force =     0.00187541   -0.00640910   -0.00005747
     atom   36 type  2   force =    -0.01040031    0.00600474    0.00000849
     atom   37 type  2   force =     0.03230641   -0.01823848    0.00126541
     atom   38 type  2   force =     0.04962676   -0.01164937    0.00021719
     atom   39 type  2   force =     0.76706301    0.44238206   -0.00892448
     atom   40 type  2   force =     0.01469278    0.04886837    0.00028642
     atom   41 type  2   force =     0.00018882    0.03690932    0.00122998
     atom   42 type  2   force =     0.00000041   -0.01222224    0.00000938
     atom   43 type  2   force =     0.00468810    0.00472527   -0.00005830
     atom   44 type  2   force =    -0.00303661    0.00195108    0.00001156
     atom   45 type  2   force =    -0.00001148   -0.00002505    0.00006169
     atom   46 type  2   force =     0.00008563   -0.00360228    0.00001446
     atom   47 type  2   force =     0.00638633    0.00154417   -0.00006356
     atom   48 type  2   force =     0.00616744   -0.00653717   -0.00003941
     atom   49 type  2   force =    -0.00902350   -0.01440725    0.00004410
     atom   50 type  2   force =     0.01175229    0.00688492    0.00001305
     atom   51 type  2   force =    -0.01695969   -0.00074781    0.00002126
     atom   52 type  2   force =    -0.00256941    0.00872525   -0.00003599
     The non-local contrib.  to forces
     atom    1 type  1   force =    -0.12487607   -0.03348213   -0.00370942
     atom    2 type  1   force =     0.12485908    0.03343399   -0.00371617
     atom    3 type  2   force =     0.01636752   -0.00920627   -0.00010988
     atom    4 type  2   force =     0.01072306   -0.00448393    0.00010309
     atom    5 type  2   force =     0.01260348   -0.00283885   -0.00014063
     atom    6 type  2   force =    -0.00120827   -0.00056270    0.00021452
     atom    7 type  2   force =     0.00365133    0.01253510   -0.00010688
     atom    8 type  2   force =     0.00110790    0.01153427    0.00014793
     atom    9 type  2   force =     0.00010764    0.01902382   -0.00008712
     atom   10 type  2   force =     0.00005911    0.00758249    0.00007376
     atom   11 type  2   force =    -0.00191454   -0.00177631    0.00005896
     atom   12 type  2   force =     0.00688250   -0.00384214    0.00006016
     atom   13 type  2   force =    -0.00059646    0.00402061    0.00001862
     atom   14 type  2   force =    -0.00028533   -0.00846413    0.00008336
     atom   15 type  2   force =     0.01679797   -0.00059059    0.00009362
     atom   16 type  2   force =    -0.02091491   -0.01527986    0.00038001
     atom   17 type  2   force =    -0.00398819   -0.00236683    0.00468194
     atom   18 type  2   force =    -0.02398101   -0.01062985    0.00067294
     atom   19 type  2   force =     0.00756414    0.01428999    0.00030020
     atom   20 type  2   force =    -0.00794425    0.00393144    0.00017464
     atom   21 type  2   force =     0.00226668   -0.00266838    0.00003834
     atom   22 type  2   force =    -0.00711886   -0.00404693    0.00004685
     atom   23 type  2   force =    -0.01608974   -0.00917020   -0.00013169
     atom   24 type  2   force =    -0.01064276   -0.00445417    0.00006175
     atom   25 type  2   force =    -0.01722068   -0.00108436   -0.00003703
     atom   26 type  2   force =     0.02039217   -0.01527797   -0.00003609
     atom   27 type  2   force =    -0.00083653   -0.84481618   -0.00722510
     atom   28 type  3   force =    -0.00034395   -0.00060089    0.01619148
     atom   29 type  2   force =    -0.73172480    0.42053281   -0.00619038
     atom   30 type  2   force =    -0.00329092    0.02519511   -0.00017624
     atom   31 type  2   force =    -0.00985914   -0.01393131    0.00002985
     atom   32 type  2   force =    -0.00930378   -0.00661668    0.00006438
     atom   33 type  2   force =    -0.00885386   -0.00913128   -0.00020782
     atom   34 type  2   force =    -0.01800660   -0.01024225    0.00002398
     atom   35 type  2   force =    -0.01242793   -0.00283884   -0.00019031
     atom   36 type  2   force =     0.00152520   -0.00061297    0.00012508
     atom   37 type  2   force =     0.00434528   -0.00265093    0.00430088
     atom   38 type  2   force =     0.02402073   -0.01034874    0.00052529
     atom   39 type  2   force =     0.73053252    0.42081014   -0.00510998
     atom   40 type  2   force =     0.00329422    0.02554287    0.00009228
     atom   41 type  2   force =    -0.00006745    0.00552675    0.00394717
     atom   42 type  2   force =     0.00011498    0.00191558    0.00003817
     atom   43 type  2   force =     0.00912711   -0.00906249   -0.00017528
     atom   44 type  2   force =     0.01825608   -0.01022692    0.00003982
     atom   45 type  2   force =     0.00018622    0.00031721    0.00006061
     atom   46 type  2   force =     0.00013808    0.02113182    0.00005593
     atom   47 type  2   force =    -0.00336737    0.01258532   -0.00012396
     atom   48 type  2   force =    -0.00070760    0.01145377    0.00015080
     atom   49 type  2   force =    -0.00701150    0.01433563    0.00037346
     atom   50 type  2   force =     0.00814547    0.00437708    0.00026992
     atom   51 type  2   force =     0.00953602   -0.01335631    0.00023361
     atom   52 type  2   force =     0.00950008   -0.00628443    0.00010861
     The ionic contribution  to forces
     atom    1 type  1   force =     1.03521557    0.27700512    2.90452920
     atom    2 type  1   force =    -1.03569805   -0.27789446    2.90425860
     atom    3 type  2   force =     0.05442427   -0.03103207   -0.02924648
     atom    4 type  2   force =    -0.27344706   -0.47493335   -0.04119401
     atom    5 type  2   force =    -0.37728046   -0.31501278   -0.03713531
     atom    6 type  2   force =    -0.83117505   -0.48071026   -0.05953625
     atom    7 type  2   force =    -0.46129585   -0.17009713   -0.03752199
     atom    8 type  2   force =    -0.54842282    0.00032999   -0.04194454
     atom    9 type  2   force =     0.00016998    0.06295445   -0.02972163
     atom   10 type  2   force =     0.00039227    0.11600775   -0.02549887
     atom   11 type  2   force =     0.27859969    0.16140580   -0.02880862
     atom   12 type  2   force =     0.10025061   -0.05697747   -0.02523079
     atom   13 type  2   force =     0.00047721   -0.32046481   -0.02812849
     atom   14 type  2   force =     0.00070758   -0.95847256   -0.05738979
     atom   15 type  2   force =    -0.42591615   -1.25441380   -0.07978538
     atom   16 type  2   force =    -1.68507645   -2.92517643   -0.18691242
     atom   17 type  2   force =    -2.17282152   -1.25610887   -0.14921019
     atom   18 type  2   force =    -3.37594330    0.00165222   -0.19033478
     atom   19 type  2   force =    -1.30017494    0.25839634   -0.08157831
     atom   20 type  2   force =    -0.83007927    0.48089454   -0.05845352
     atom   21 type  2   force =    -0.27770358    0.16143943   -0.02846653
     atom   22 type  2   force =    -0.09945440   -0.05697072   -0.02496448
     atom   23 type  2   force =    -0.05407869   -0.03102881   -0.02877788
     atom   24 type  2   force =     0.27353817   -0.47443128   -0.04045589
     atom   25 type  2   force =     0.42703486   -1.25355812   -0.07867261
     atom   26 type  2   force =     1.68644159   -2.92423713   -0.18355873
     atom   27 type  2   force =     0.00217362  -10.07217828   -0.33364154
     atom   28 type  3   force =    -0.00000000   -0.00000001   -1.58752271
     atom   29 type  2   force =    -8.71893294    5.03893439   -0.33733077
     atom   30 type  2   force =    -1.68644159    2.92423713   -0.18355873
     atom   31 type  2   force =    -0.87124906    0.99786483   -0.07931864
     atom   32 type  2   force =    -0.27353817    0.47443127   -0.04045589
     atom   33 type  2   force =    -0.08359111    0.48309039   -0.03613081
     atom   34 type  2   force =     0.09945440    0.05697071   -0.02496448
     atom   35 type  2   force =     0.37659218   -0.31475328   -0.03644014
     atom   36 type  2   force =     0.83007927   -0.48089454   -0.05845352
     atom   37 type  2   force =     2.17163113   -1.25701571   -0.14638270
     atom   38 type  2   force =     3.37594330   -0.00165223   -0.19033478
     atom   39 type  2   force =     8.71835444    5.03609074   -0.34106878
     atom   40 type  2   force =     1.68507645    2.92517642   -0.18691242
     atom   41 type  2   force =    -0.00138083    2.50862610   -0.14361298
     atom   42 type  2   force =    -0.00070758    0.95847256   -0.05738979
     atom   43 type  2   force =     0.08276894    0.48338349   -0.03650820
     atom   44 type  2   force =    -0.10025061    0.05697747   -0.02523079
     atom   45 type  2   force =    -0.00044118   -0.00076445   -0.02227566
     atom   46 type  2   force =    -0.00039227   -0.11600776   -0.02549887
     atom   47 type  2   force =     0.46056968   -0.17048936   -0.03720415
     atom   48 type  2   force =     0.54842282   -0.00032999   -0.04194454
     atom   49 type  2   force =     1.30085973    0.25701207   -0.08224819
     atom   50 type  2   force =     0.83117505    0.48071025   -0.05953625
     atom   51 type  2   force =     0.87169307    0.99860886   -0.08110102
     atom   52 type  2   force =     0.27344706    0.47493334   -0.04119401
     The local contribution  to forces
     atom    1 type  1   force =    -0.90502381   -0.24205248   -2.90202596
     atom    2 type  1   force =     0.90556907    0.24309371   -2.90164042
     atom    3 type  2   force =    -0.07213720    0.04106499    0.02938407
     atom    4 type  2   force =     0.25421437    0.47730664    0.04104183
     atom    5 type  2   force =     0.36291741    0.31154700    0.03720485
     atom    6 type  2   force =     0.84256057    0.48715105    0.05932926
     atom    7 type  2   force =     0.45135386    0.15917402    0.03755488
     atom    8 type  2   force =     0.54125703   -0.01817203    0.04174992
     atom    9 type  2   force =    -0.00025381   -0.08377981    0.02983672
     atom   10 type  2   force =    -0.00020325   -0.12653064    0.02543488
     atom   11 type  2   force =    -0.28628277   -0.16518848    0.02874264
     atom   12 type  2   force =    -0.10962485    0.06282178    0.02518099
     atom   13 type  2   force =     0.00009932    0.32676053    0.02809949
     atom   14 type  2   force =    -0.00033870    0.95396051    0.05731825
     atom   15 type  2   force =     0.40123712    1.26932953    0.07974923
     atom   16 type  2   force =     1.67192518    2.90442477    0.18687107
     atom   17 type  2   force =     2.14431713    1.23991248    0.14591892
     atom   18 type  2   force =     3.35090434   -0.00261001    0.18990600
     atom   19 type  2   force =     1.30133286   -0.28676721    0.08134230
     atom   20 type  2   force =     0.82655380   -0.47801114    0.05829127
     atom   21 type  2   force =     0.28468790   -0.16415287    0.02841928
     atom   22 type  2   force =     0.10937165    0.06291024    0.02492846
     atom   23 type  2   force =     0.07133653    0.04089576    0.02893702
     atom   24 type  2   force =    -0.25429041    0.47670566    0.04034776
     atom   25 type  2   force =    -0.40207928    1.26898984    0.07874391
     atom   26 type  2   force =    -1.67270426    2.90348268    0.18399643
     atom   27 type  2   force =    -0.00177705   10.00705125    0.33111882
     atom   28 type  3   force =     0.00096696    0.00167834    1.59473739
     atom   29 type  2   force =     8.66328362   -5.00587516    0.33412376
     atom   30 type  2   force =     1.67531875   -2.90106972    0.18410520
     atom   31 type  2   force =     0.89757475   -0.98472131    0.07930469
     atom   32 type  2   force =     0.28525681   -0.45918186    0.04035045
     atom   33 type  2   force =     0.08759040   -0.46937393    0.03627420
     atom   34 type  2   force =    -0.07864474   -0.04501003    0.02494517
     atom   35 type  2   force =    -0.36250412    0.31116429    0.03656416
     atom   36 type  2   force =    -0.84196577    0.48749491    0.05833603
     atom   37 type  2   force =    -2.14354602    1.24135313    0.14342157
     atom   38 type  2   force =    -3.35009233    0.00023048    0.19001705
     atom   39 type  2   force =    -8.66288242   -5.00359167    0.33716370
     atom   40 type  2   force =    -1.67365856   -2.90158283    0.18709090
     atom   41 type  2   force =     0.00163353   -2.47709463    0.14096559
     atom   42 type  2   force =     0.00059517   -0.97256547    0.05735906
     atom   43 type  2   force =    -0.08707668   -0.46976945    0.03661660
     atom   44 type  2   force =     0.07923721   -0.04495607    0.02519864
     atom   45 type  2   force =     0.00024752    0.00042657    0.02227181
     atom   46 type  2   force =     0.00034285    0.09159584    0.02545374
     atom   47 type  2   force =    -0.45090141    0.15965008    0.03725652
     atom   48 type  2   force =    -0.54157094   -0.01747731    0.04175285
     atom   49 type  2   force =    -1.30292408   -0.28542211    0.08192004
     atom   50 type  2   force =    -0.82747629   -0.47815273    0.05927920
     atom   51 type  2   force =    -0.89792086   -0.98621243    0.08088758
     atom   52 type  2   force =    -0.28537062   -0.46003568    0.04104745
     The core correction contribution to forces
     atom    1 type  1   force =     0.00000000    0.00000000    0.00000000
     atom    2 type  1   force =     0.00000000    0.00000000    0.00000000
     atom    3 type  2   force =    -0.00026454    0.00014845    0.00000423
     atom    4 type  2   force =    -0.00017844    0.00006040   -0.00000202
     atom    5 type  2   force =    -0.00021972    0.00001781    0.00000426
     atom    6 type  2   force =     0.00003104    0.00001544   -0.00000412
     atom    7 type  2   force =    -0.00009129   -0.00020210    0.00000395
     atom    8 type  2   force =    -0.00003071   -0.00018485   -0.00000252
     atom    9 type  2   force =    -0.00000188   -0.00030697    0.00000378
     atom   10 type  2   force =     0.00000026   -0.00013874   -0.00000054
     atom   11 type  2   force =    -0.00000393    0.00000695   -0.00000023
     atom   12 type  2   force =    -0.00012517    0.00007292   -0.00000037
     atom   13 type  2   force =     0.00000820   -0.00002433    0.00000030
     atom   14 type  2   force =     0.00000510    0.00009329   -0.00000162
     atom   15 type  2   force =    -0.00032776    0.00010978   -0.00000074
     atom   16 type  2   force =     0.00023149    0.00014928    0.00000639
     atom   17 type  2   force =     0.00011679    0.00006935   -0.00008328
     atom   18 type  2   force =     0.00024711    0.00012804    0.00000297
     atom   19 type  2   force =    -0.00006319   -0.00033079   -0.00000399
     atom   20 type  2   force =     0.00008995   -0.00004022   -0.00000271
     atom   21 type  2   force =    -0.00000260    0.00002024    0.00000012
     atom   22 type  2   force =     0.00013056    0.00007578   -0.00000015
     atom   23 type  2   force =     0.00026023    0.00014811    0.00000457
     atom   24 type  2   force =     0.00017755    0.00005940   -0.00000139
     atom   25 type  2   force =     0.00033385    0.00011687    0.00000133
     atom   26 type  2   force =    -0.00022255    0.00014942    0.00001225
     atom   27 type  2   force =     0.00001155    0.02189216    0.00011382
     atom   28 type  3   force =     0.00003016    0.00005218    0.00108087
     atom   29 type  2   force =     0.01896006   -0.01092005    0.00010043
     atom   30 type  2   force =     0.00002160   -0.00026300    0.00001488
     atom   31 type  2   force =     0.00027310    0.00022332    0.00000032
     atom   32 type  2   force =     0.00014209    0.00011839   -0.00000136
     atom   33 type  2   force =     0.00012632    0.00017492    0.00000493
     atom   34 type  2   force =     0.00027453    0.00015622    0.00000013
     atom   35 type  2   force =     0.00021658    0.00001782    0.00000482
     atom   36 type  2   force =    -0.00003702    0.00001636   -0.00000311
     atom   37 type  2   force =    -0.00012188    0.00007443   -0.00007835
     atom   38 type  2   force =    -0.00024500    0.00012262    0.00000562
     atom   39 type  2   force =    -0.01894329   -0.01092370    0.00008656
     atom   40 type  2   force =    -0.00002063   -0.00026615    0.00001164
     atom   41 type  2   force =     0.00000185   -0.00014957   -0.00007381
     atom   42 type  2   force =    -0.00000219   -0.00004573   -0.00000207
     atom   43 type  2   force =    -0.00013039    0.00017371    0.00000457
     atom   44 type  2   force =    -0.00027846    0.00015619   -0.00000011
     atom   45 type  2   force =    -0.00000292   -0.00000502    0.00000092
     atom   46 type  2   force =    -0.00000202   -0.00032256   -0.00000035
     atom   47 type  2   force =     0.00008675   -0.00020237    0.00000402
     atom   48 type  2   force =     0.00002463   -0.00018363   -0.00000254
     atom   49 type  2   force =     0.00005419   -0.00033129   -0.00000522
     atom   50 type  2   force =    -0.00009176   -0.00004720   -0.00000384
     atom   51 type  2   force =    -0.00026890    0.00021408   -0.00000292
     atom   52 type  2   force =    -0.00014536    0.00011287   -0.00000205
     The Hubbard contrib.    to forces
     atom    1 type  1   force =     0.00000000    0.00000000    0.00000000
     atom    2 type  1   force =     0.00000000    0.00000000    0.00000000
     atom    3 type  2   force =     0.00000000    0.00000000    0.00000000
     atom    4 type  2   force =     0.00000000    0.00000000    0.00000000
     atom    5 type  2   force =     0.00000000    0.00000000    0.00000000
     atom    6 type  2   force =     0.00000000    0.00000000    0.00000000
     atom    7 type  2   force =     0.00000000    0.00000000    0.00000000
     atom    8 type  2   force =     0.00000000    0.00000000    0.00000000
     atom    9 type  2   force =     0.00000000    0.00000000    0.00000000
     atom   10 type  2   force =     0.00000000    0.00000000    0.00000000
     atom   11 type  2   force =     0.00000000    0.00000000    0.00000000
     atom   12 type  2   force =     0.00000000    0.00000000    0.00000000
     atom   13 type  2   force =     0.00000000    0.00000000    0.00000000
     atom   14 type  2   force =     0.00000000    0.00000000    0.00000000
     atom   15 type  2   force =     0.00000000    0.00000000    0.00000000
     atom   16 type  2   force =     0.00000000    0.00000000    0.00000000
     atom   17 type  2   force =     0.00000000    0.00000000    0.00000000
     atom   18 type  2   force =     0.00000000    0.00000000    0.00000000
     atom   19 type  2   force =     0.00000000    0.00000000    0.00000000
     atom   20 type  2   force =     0.00000000    0.00000000    0.00000000
     atom   21 type  2   force =     0.00000000    0.00000000    0.00000000
     atom   22 type  2   force =     0.00000000    0.00000000    0.00000000
     atom   23 type  2   force =     0.00000000    0.00000000    0.00000000
     atom   24 type  2   force =     0.00000000    0.00000000    0.00000000
     atom   25 type  2   force =     0.00000000    0.00000000    0.00000000
     atom   26 type  2   force =     0.00000000    0.00000000    0.00000000
     atom   27 type  2   force =     0.00000000    0.00000000    0.00000000
     atom   28 type  3   force =     0.00000000    0.00000000    0.00000000
     atom   29 type  2   force =     0.00000000    0.00000000    0.00000000
     atom   30 type  2   force =     0.00000000    0.00000000    0.00000000
     atom   31 type  2   force =     0.00000000    0.00000000    0.00000000
     atom   32 type  2   force =     0.00000000    0.00000000    0.00000000
     atom   33 type  2   force =     0.00000000    0.00000000    0.00000000
     atom   34 type  2   force =     0.00000000    0.00000000    0.00000000
     atom   35 type  2   force =     0.00000000    0.00000000    0.00000000
     atom   36 type  2   force =     0.00000000    0.00000000    0.00000000
     atom   37 type  2   force =     0.00000000    0.00000000    0.00000000
     atom   38 type  2   force =     0.00000000    0.00000000    0.00000000
     atom   39 type  2   force =     0.00000000    0.00000000    0.00000000
     atom   40 type  2   force =     0.00000000    0.00000000    0.00000000
     atom   41 type  2   force =     0.00000000    0.00000000    0.00000000
     atom   42 type  2   force =     0.00000000    0.00000000    0.00000000
     atom   43 type  2   force =     0.00000000    0.00000000    0.00000000
     atom   44 type  2   force =     0.00000000    0.00000000    0.00000000
     atom   45 type  2   force =     0.00000000    0.00000000    0.00000000
     atom   46 type  2   force =     0.00000000    0.00000000    0.00000000
     atom   47 type  2   force =     0.00000000    0.00000000    0.00000000
     atom   48 type  2   force =     0.00000000    0.00000000    0.00000000
     atom   49 type  2   force =     0.00000000    0.00000000    0.00000000
     atom   50 type  2   force =     0.00000000    0.00000000    0.00000000
     atom   51 type  2   force =     0.00000000    0.00000000    0.00000000
     atom   52 type  2   force =     0.00000000    0.00000000    0.00000000
     The SCF correction term to forces
     atom    1 type  1   force =     0.00000020   -0.00000015   -0.00000007
     atom    2 type  1   force =     0.00000020   -0.00000014   -0.00000003
     atom    3 type  2   force =    -0.00000083    0.00000063   -0.00000000
     atom    4 type  2   force =     0.00000073    0.00000112   -0.00000000
     atom    5 type  2   force =    -0.00000027    0.00000068   -0.00000000
     atom    6 type  2   force =    -0.00000041   -0.00000038   -0.00000000
     atom    7 type  2   force =    -0.00000145   -0.00000010    0.00000000
     atom    8 type  2   force =    -0.00000216   -0.00000039    0.00000000
     atom    9 type  2   force =    -0.00000144    0.00000042    0.00000000
     atom   10 type  2   force =    -0.00000083   -0.00000090   -0.00000000
     atom   11 type  2   force =     0.00000036   -0.00000367   -0.00000000
     atom   12 type  2   force =     0.00000098   -0.00000048   -0.00000000
     atom   13 type  2   force =     0.00000294    0.00000233   -0.00000000
     atom   14 type  2   force =     0.00000192    0.00000187   -0.00000000
     atom   15 type  2   force =     0.00000278    0.00000088   -0.00000000
     atom   16 type  2   force =     0.00000277   -0.00000014    0.00000001
     atom   17 type  2   force =     0.00000122   -0.00000188    0.00000000
     atom   18 type  2   force =     0.00000077   -0.00000173    0.00000000
     atom   19 type  2   force =    -0.00000244   -0.00000118   -0.00000000
     atom   20 type  2   force =    -0.00000168    0.00000084   -0.00000000
     atom   21 type  2   force =    -0.00000281    0.00000114   -0.00000000
     atom   22 type  2   force =     0.00000026    0.00000119   -0.00000000
     atom   23 type  2   force =    -0.00000076    0.00000139   -0.00000000
     atom   24 type  2   force =    -0.00000091    0.00000158   -0.00000000
     atom   25 type  2   force =    -0.00000014    0.00000279   -0.00000000
     atom   26 type  2   force =     0.00000075    0.00000047    0.00000000
     atom   27 type  2   force =     0.00000334   -0.00000034    0.00000003
     atom   28 type  3   force =     0.00001174   -0.00000994    0.00000002
     atom   29 type  2   force =     0.00000277   -0.00000213    0.00000002
     atom   30 type  2   force =     0.00000157    0.00000021    0.00000000
     atom   31 type  2   force =    -0.00000042    0.00000282   -0.00000000
     atom   32 type  2   force =    -0.00000061    0.00000213   -0.00000000
     atom   33 type  2   force =    -0.00000053    0.00000127   -0.00000000
     atom   34 type  2   force =    -0.00000084    0.00000065   -0.00000000
     atom   35 type  2   force =    -0.00000131    0.00000094   -0.00000000
     atom   36 type  2   force =    -0.00000200    0.00000099   -0.00000000
     atom   37 type  2   force =    -0.00000212    0.00000062    0.00000000
     atom   38 type  2   force =     0.00000004   -0.00000149    0.00000000
     atom   39 type  2   force =     0.00000174   -0.00000343    0.00000002
     atom   40 type  2   force =     0.00000129   -0.00000193    0.00000001
     atom   41 type  2   force =     0.00000172    0.00000069    0.00000000
     atom   42 type  2   force =     0.00000001    0.00000083   -0.00000000
     atom   43 type  2   force =    -0.00000089    0.00000002   -0.00000000
     atom   44 type  2   force =    -0.00000084    0.00000043   -0.00000000
     atom   45 type  2   force =    -0.00000114    0.00000066   -0.00000000
     atom   46 type  2   force =    -0.00000102    0.00000039   -0.00000000
     atom   47 type  2   force =    -0.00000133    0.00000052   -0.00000000
     atom   48 type  2   force =    -0.00000149    0.00000000   -0.00000000
     atom   49 type  2   force =    -0.00000187   -0.00000154    0.00000000
     atom   50 type  2   force =    -0.00000019   -0.00000247    0.00000000
     atom   51 type  2   force =     0.00000097   -0.00000200    0.00000000
     atom   52 type  2   force =    -0.00000058   -0.00000084   -0.00000000

     Total force =     1.543736     Total SCF correction =     0.000021

     BFGS Geometry Optimization

     number of scf cycles    =   1
     number of bfgs steps    =   0

     energy   new            =    -755.4072237957 Ry

     new trust radius        =       0.5000000000 bohr
     new conv_thr            =            1.0E-10 Ry


ATOMIC_POSITIONS (angstrom)
H        2.830103676   5.791123294   2.799641823
H        2.100504795   5.595628231   2.799674066
C       -0.000479887   0.000290692   0.000010710
C       -0.002588172   1.422729597  -0.000014034
C       -1.233238429   2.133137329  -0.000018714
C       -1.229607482   3.560105940   0.000002211
C       -2.467199124   4.270440272  -0.000019671
C       -2.467111940   5.691425918  -0.000013461
C       -3.697939915   6.404402344   0.000010652
C       -3.697872266   7.827452864   0.000003945
C       -4.933455135   8.538385341  -0.000000966
C       -4.931374047   9.963998697   0.000004171
C        2.465294736   0.003066937  -0.000001810
C        2.465324337   1.419502502   0.000004235
C        1.230203890   2.139310915   0.000018093
C        1.222569291   3.547659946   0.000103997
C       -0.009645200   4.264509910   0.000390699
C       -0.014530439   5.689945733   0.000074819
C       -1.230069703   6.400736441   0.000019132
C       -1.236039492   7.830389060   0.000004079
C       -2.462542852   8.538443517  -0.000001424
C       -2.464424660   9.963967397   0.000004377
C        4.931020016   0.000252115   0.000010734
C        4.933210978   1.422708840  -0.000013038
C        3.700349872   2.139320215   0.000011798
C        3.708047992   3.547659900   0.000124495
C        2.465170717   4.005447247  -0.002869011
V        2.465495447   5.693693933   0.007296509
C        1.003719483   6.536912966  -0.002768599
C        1.228361360   7.842700614   0.000115932
C        0.004987046   8.539873196   0.000006027
C        0.000761600   9.965988432  -0.000011443
C        7.394483230   0.001418527  -0.000016532
C        7.396808693   1.423898787   0.000002626
C        6.163802108   2.133100700  -0.000017121
C        6.160144858   3.560139185   0.000002530
C        4.940219598   4.264586561   0.000376997
C        4.945379770   5.689889711   0.000064706
C        3.926473535   6.536827225  -0.002658828
C        3.702323375   7.842929614   0.000085333
C        2.465353605   8.551036753   0.000366442
C        2.465297471   9.959739305   0.000002795
C        9.862586104   0.001407778  -0.000017369
C        9.860284718   1.423921364   0.000003445
C        8.628537304   2.135002671   0.000018379
C        8.628566236   3.557277011   0.000004309
C        7.397794701   4.270480314  -0.000018936
C        7.397729487   5.691412765  -0.000011742
C        6.160555044   6.400738115   0.000013139
C        6.166744681   7.830421680   0.000003887
C        4.925541978   8.539817741   0.000006333
C        4.929829209   9.965980093  -0.000010723



     Writing output data file vanadio-top-2.1.save/
     NEW-OLD atomic charge density approx. for the potential

[...]
     atom   49 type  2   force =    -0.91765471   -0.25671741    0.30829734
     atom   50 type  2   force =    -0.55306094   -0.30415907   -0.01846033
     atom   51 type  2   force =    -0.70815168   -0.63410489    0.42336517
     atom   52 type  2   force =    -0.13158969   -0.40070290   -0.10262079
     The core correction contribution to forces
     atom    1 type  1   force =     0.00000000    0.00000000    0.00000000
     atom    2 type  1   force =     0.00000000    0.00000000    0.00000000
     atom    3 type  2   force =    -0.00028426    0.00021530   -0.00018665
     atom    4 type  2   force =     0.00049479   -0.00013810   -0.00019580
     atom    5 type  2   force =    -0.00037877   -0.00019749   -0.00026363
     atom    6 type  2   force =     0.00004328    0.00003097   -0.00030496
     atom    7 type  2   force =    -0.00031372   -0.00022815   -0.00024059
     atom    8 type  2   force =     0.00016445    0.00036463   -0.00013587
     atom    9 type  2   force =     0.00001014   -0.00021110   -0.00019224
     atom   10 type  2   force =    -0.00005114    0.00001990   -0.00009227
     atom   11 type  2   force =    -0.00015788   -0.00000298   -0.00012464
     atom   12 type  2   force =     0.00000732   -0.00009138   -0.00011182
     atom   13 type  2   force =     0.00009828    0.00018525   -0.00014156
     atom   14 type  2   force =    -0.00017211   -0.00056428   -0.00030805
     atom   15 type  2   force =    -0.00073981    0.00012960   -0.00028365
     atom   16 type  2   force =     0.00066827   -0.00147704   -0.00087791
     atom   17 type  2   force =    -0.00090160   -0.00065199   -0.00042851
     atom   18 type  2   force =    -0.00085549    0.00120953   -0.00108470
     atom   19 type  2   force =    -0.00042309   -0.00042353   -0.00019883
     atom   20 type  2   force =    -0.00046909    0.00006425   -0.00022634
     atom   21 type  2   force =     0.00015584    0.00010002   -0.00012514
     atom   22 type  2   force =    -0.00006415   -0.00005665   -0.00014123
     atom   23 type  2   force =     0.00041408    0.00026283   -0.00014473
     atom   24 type  2   force =    -0.00061827   -0.00018223   -0.00027596
     atom   25 type  2   force =     0.00103830    0.00067278   -0.00025559
     atom   26 type  2   force =    -0.00072962   -0.00121418    0.00002729
     atom   27 type  2   force =     0.00029377    0.00419290    0.00382008
     atom   28 type  3   force =    -0.00257635   -0.00376403    0.03112112
     atom   29 type  2   force =     0.00357169   -0.00129326    0.00353847
     atom   30 type  2   force =    -0.00120603   -0.00020529    0.00028050
     atom   31 type  2   force =     0.00109479    0.00054402   -0.00016383
     atom   32 type  2   force =    -0.00042393   -0.00049967   -0.00026771
     atom   33 type  2   force =     0.00005877    0.00036380   -0.00029600
     atom   34 type  2   force =     0.00017405    0.00006226   -0.00007329
     atom   35 type  2   force =     0.00035208   -0.00017431   -0.00030835
     atom   36 type  2   force =    -0.00053658    0.00031596   -0.00028902
     atom   37 type  2   force =     0.00064443   -0.00053004    0.00032037
     atom   38 type  2   force =     0.00022012    0.00140687   -0.00018452
     atom   39 type  2   force =    -0.00257637   -0.00118237    0.00327647
     atom   40 type  2   force =     0.00123240   -0.00053905    0.00018594
     atom   41 type  2   force =    -0.00006127    0.00076413    0.00057068
     atom   42 type  2   force =     0.00000312   -0.00086163   -0.00028481
     atom   43 type  2   force =    -0.00000587    0.00028009   -0.00025546
     atom   44 type  2   force =    -0.00023002    0.00005801   -0.00007473
     atom   45 type  2   force =    -0.00003149   -0.00005085   -0.00003092
     atom   46 type  2   force =    -0.00003872   -0.00027042   -0.00006680
     atom   47 type  2   force =     0.00023717   -0.00012058   -0.00025394
     atom   48 type  2   force =    -0.00032000    0.00028317   -0.00010797
     atom   49 type  2   force =     0.00006517   -0.00051445   -0.00007097
     atom   50 type  2   force =     0.00020464    0.00011115   -0.00006453
     atom   51 type  2   force =    -0.00064405    0.00032310   -0.00004573
     atom   52 type  2   force =     0.00018002   -0.00048460   -0.00014847
     The Hubbard contrib.    to forces
     atom    1 type  1   force =     0.00000000    0.00000000    0.00000000
     atom    2 type  1   force =     0.00000000    0.00000000    0.00000000
     atom    3 type  2   force =     0.00000000    0.00000000    0.00000000
     atom    4 type  2   force =     0.00000000    0.00000000    0.00000000
     atom    5 type  2   force =     0.00000000    0.00000000    0.00000000
     atom    6 type  2   force =     0.00000000    0.00000000    0.00000000
     atom    7 type  2   force =     0.00000000    0.00000000    0.00000000
     atom    8 type  2   force =     0.00000000    0.00000000    0.00000000
     atom    9 type  2   force =     0.00000000    0.00000000    0.00000000
     atom   10 type  2   force =     0.00000000    0.00000000    0.00000000
     atom   11 type  2   force =     0.00000000    0.00000000    0.00000000
     atom   12 type  2   force =     0.00000000    0.00000000    0.00000000
     atom   13 type  2   force =     0.00000000    0.00000000    0.00000000
     atom   14 type  2   force =     0.00000000    0.00000000    0.00000000
     atom   15 type  2   force =     0.00000000    0.00000000    0.00000000
     atom   16 type  2   force =     0.00000000    0.00000000    0.00000000
     atom   17 type  2   force =     0.00000000    0.00000000    0.00000000
     atom   18 type  2   force =     0.00000000    0.00000000    0.00000000
     atom   19 type  2   force =     0.00000000    0.00000000    0.00000000
     atom   20 type  2   force =     0.00000000    0.00000000    0.00000000
     atom   21 type  2   force =     0.00000000    0.00000000    0.00000000
     atom   22 type  2   force =     0.00000000    0.00000000    0.00000000
     atom   23 type  2   force =     0.00000000    0.00000000    0.00000000
     atom   24 type  2   force =     0.00000000    0.00000000    0.00000000
     atom   25 type  2   force =     0.00000000    0.00000000    0.00000000
     atom   26 type  2   force =     0.00000000    0.00000000    0.00000000
     atom   27 type  2   force =     0.00000000    0.00000000    0.00000000
     atom   28 type  3   force =     0.00000000    0.00000000    0.00000000
     atom   29 type  2   force =     0.00000000    0.00000000    0.00000000
     atom   30 type  2   force =     0.00000000    0.00000000    0.00000000
     atom   31 type  2   force =     0.00000000    0.00000000    0.00000000
     atom   32 type  2   force =     0.00000000    0.00000000    0.00000000
     atom   33 type  2   force =     0.00000000    0.00000000    0.00000000
     atom   34 type  2   force =     0.00000000    0.00000000    0.00000000
     atom   35 type  2   force =     0.00000000    0.00000000    0.00000000
     atom   36 type  2   force =     0.00000000    0.00000000    0.00000000
     atom   37 type  2   force =     0.00000000    0.00000000    0.00000000
     atom   38 type  2   force =     0.00000000    0.00000000    0.00000000
     atom   39 type  2   force =     0.00000000    0.00000000    0.00000000
     atom   40 type  2   force =     0.00000000    0.00000000    0.00000000
     atom   41 type  2   force =     0.00000000    0.00000000    0.00000000
     atom   42 type  2   force =     0.00000000    0.00000000    0.00000000
     atom   43 type  2   force =     0.00000000    0.00000000    0.00000000
     atom   44 type  2   force =     0.00000000    0.00000000    0.00000000
     atom   45 type  2   force =     0.00000000    0.00000000    0.00000000
     atom   46 type  2   force =     0.00000000    0.00000000    0.00000000
     atom   47 type  2   force =     0.00000000    0.00000000    0.00000000
     atom   48 type  2   force =     0.00000000    0.00000000    0.00000000
     atom   49 type  2   force =     0.00000000    0.00000000    0.00000000
     atom   50 type  2   force =     0.00000000    0.00000000    0.00000000
     atom   51 type  2   force =     0.00000000    0.00000000    0.00000000
     atom   52 type  2   force =     0.00000000    0.00000000    0.00000000
     The SCF correction term to forces
     atom    1 type  1   force =    -0.00000006    0.00000001    0.00000014
     atom    2 type  1   force =     0.00000003    0.00000008   -0.00000017
     atom    3 type  2   force =    -0.00000017   -0.00000003   -0.00000004
     atom    4 type  2   force =     0.00000009    0.00000010   -0.00000002
     atom    5 type  2   force =     0.00000008    0.00000010    0.00000001
     atom    6 type  2   force =     0.00000026    0.00000018   -0.00000002
     atom    7 type  2   force =     0.00000010    0.00000014    0.00000000
     atom    8 type  2   force =     0.00000016    0.00000008   -0.00000001
     atom    9 type  2   force =    -0.00000004   -0.00000012   -0.00000002
     atom   10 type  2   force =    -0.00000000   -0.00000010   -0.00000008
     atom   11 type  2   force =    -0.00000022   -0.00000018    0.00000001
     atom   12 type  2   force =    -0.00000006   -0.00000009   -0.00000006
     atom   13 type  2   force =    -0.00000001    0.00000010   -0.00000008
     atom   14 type  2   force =     0.00000001    0.00000016    0.00000004
     atom   15 type  2   force =     0.00000001    0.00000016   -0.00000005
     atom   16 type  2   force =     0.00000009    0.00000023   -0.00000015
     atom   17 type  2   force =     0.00000010    0.00000015   -0.00000016
     atom   18 type  2   force =     0.00000025    0.00000013   -0.00000015
     atom   19 type  2   force =     0.00000016   -0.00000006   -0.00000001
     atom   20 type  2   force =     0.00000018   -0.00000011    0.00000005
     atom   21 type  2   force =     0.00000016   -0.00000015   -0.00000005
     atom   22 type  2   force =     0.00000004   -0.00000004   -0.00000012
     atom   23 type  2   force =     0.00000013   -0.00000001   -0.00000005
     atom   24 type  2   force =    -0.00000010    0.00000013   -0.00000002
     atom   25 type  2   force =     0.00000002    0.00000021   -0.00000003
     atom   26 type  2   force =    -0.00000004    0.00000035   -0.00000013
     atom   27 type  2   force =     0.00000012   -0.00000002   -0.00000045
     atom   28 type  3   force =     0.00000009    0.00000084   -0.00000136
     atom   29 type  2   force =     0.00000003    0.00000018   -0.00000037
     atom   30 type  2   force =     0.00000027   -0.00000022   -0.00000010
     atom   31 type  2   force =     0.00000025   -0.00000019   -0.00000001
     atom   32 type  2   force =     0.00000008   -0.00000020   -0.00000001
     atom   33 type  2   force =     0.00000010   -0.00000022    0.00000002
     atom   34 type  2   force =     0.00000002    0.00000000   -0.00000009
     atom   35 type  2   force =    -0.00000003    0.00000015   -0.00000002
     atom   36 type  2   force =    -0.00000024    0.00000023    0.00000001
     atom   37 type  2   force =    -0.00000018    0.00000029   -0.00000007
     atom   38 type  2   force =    -0.00000041    0.00000019   -0.00000010
     atom   39 type  2   force =     0.00000011    0.00000014   -0.00000036
     atom   40 type  2   force =    -0.00000016   -0.00000041   -0.00000009
     atom   41 type  2   force =     0.00000006   -0.00000037   -0.00000008
     atom   42 type  2   force =     0.00000002   -0.00000041    0.00000002
     atom   43 type  2   force =    -0.00000006   -0.00000024    0.00000003
     atom   44 type  2   force =    -0.00000003   -0.00000002   -0.00000007
     atom   45 type  2   force =     0.00000000    0.00000003   -0.00000016
     atom   46 type  2   force =    -0.00000003   -0.00000000   -0.00000006
     atom   47 type  2   force =    -0.00000015    0.00000015    0.00000001
     atom   48 type  2   force =    -0.00000020    0.00000007   -0.00000000
     atom   49 type  2   force =    -0.00000031   -0.00000010   -0.00000002
     atom   50 type  2   force =    -0.00000025   -0.00000015    0.00000008
     atom   51 type  2   force =    -0.00000030   -0.00000026   -0.00000001
     atom   52 type  2   force =    -0.00000011   -0.00000028    0.00000003

     Total force =     0.053735     Total SCF correction =     0.000002

     number of scf cycles    =  18
     number of bfgs steps    =  17

     energy   old            =    -756.4090450129 Ry
     energy   new            =    -756.4121167530 Ry

     CASE: energy  _new < energy  _old

     new trust radius        =       0.0423819401 bohr
     new conv_thr            =            2.4E-11 Ry


ATOMIC_POSITIONS (angstrom)
H        2.851301908   5.806509307   2.717708151
H        2.082802477   5.593340418   2.763594317
C        0.002442704  -0.001001626   0.031986439
C       -0.005787452   1.414157935   0.034180167
C       -1.233494159   2.134999361   0.028036777
C       -1.232227684   3.559529649   0.017551798
C       -2.466071234   4.271019036   0.027713146
C       -2.470937830   5.695143237   0.029964759
C       -3.697190497   6.408704110   0.028315829
C       -3.697431954   7.830194767   0.018973938
C       -4.927648219   8.542643993   0.018825581
C       -4.929808667   9.962303665   0.019298807
C        2.467245303  -0.005887936   0.021096699
C        2.466784212   1.408835460   0.009660184
C        1.224958279   2.105404583  -0.003582678
C        1.223309435   3.519341357  -0.112546006
C       -0.002086212   4.266029054  -0.059699294
C       -0.020810803   5.703527216  -0.092538641
C       -1.252206976   6.412441950   0.000347960
C       -1.239796016   7.835594607   0.008525658
C       -2.467407204   8.544198472   0.019427458
C       -2.463541596   9.963126209   0.018480954
C        4.930618447   0.000303086   0.036707735
C        4.942808368   1.412105301   0.032419301
C        3.715106959   2.104732075  -0.018922739
C        3.730521742   3.509171006  -0.132458427
C        2.482298245   4.137539600  -0.230121380
V        2.359824263   5.584560844   0.861993694
C        1.149716151   6.488256458  -0.171674618
C        1.213702627   7.884307141  -0.122387400
C       -0.013807732   8.570456216  -0.025301985
C       -0.002291496   9.978837429   0.026114711
C        7.395565866   0.011949319   0.022818426
C        7.402112967   1.429511981   0.019569852
C        6.169968846   2.132658817   0.025760682
C        6.170679462   3.557161173   0.010772886
C        4.945787254   4.259967280  -0.065491833
C        4.953944631   5.697528708  -0.087679856
C        3.766465586   6.456548412  -0.063550292
C        3.713073992   7.860670472  -0.095233026
C        2.466006509   8.568440313  -0.066697635
C        2.467155900   9.976515037   0.006185507
C        9.866091134   0.011033178   0.022181523
C        9.860992357   1.429949270   0.020154794
C        8.631127731   2.138886244   0.008558183
C        8.631990808   3.558786900   0.020739314
C        7.403334772   4.271583663   0.024720482
C        7.402859554   5.693883019   0.020197752
C        6.180875285   6.409151769  -0.018868035
C        6.169982254   7.833882764   0.004322501
C        4.943307697   8.559999308  -0.028035509
C        4.933244206   9.972704626   0.017883389



     Writing output data file vanadio-top-2.1.save/
     NEW-OLD atomic charge density approx. for the potential

     Check: negative core charge=   -0.000002

     negative rho (up, down):  7.523E-04 7.677E-03

     total cpu time spent up to now is    54822.5 secs

     Self-consistent Calculation

     iteration #  1     ecut=    70.00 Ry     beta= 0.30
     Davidson diagonalization with overlap
     c_bands:  2 eigenvalues not converged
     ethr =  1.00E-06,  avg # of iterations = 14.5

     negative rho (up, down):  8.775E-04 3.837E-01

     total cpu time spent up to now is    55064.1 secs

     total energy              =    -756.40804674 Ry
     Harris-Foulkes estimate   =    -756.41033336 Ry
     estimated scf accuracy    <       0.00208876 Ry

     total magnetization       =     1.00 Bohr mag/cell
     absolute magnetization    =     1.58 Bohr mag/cell

     iteration #  2     ecut=    70.00 Ry     beta= 0.30
     Davidson diagonalization with overlap
     ethr =  9.90E-07,  avg # of iterations =  9.0

     negative rho (up, down):  1.133E-03 3.605E-01

     total cpu time spent up to now is    55186.9 secs

     total energy              =    -756.41130543 Ry
     Harris-Foulkes estimate   =    -756.40830090 Ry
     estimated scf accuracy    <       0.00074928 Ry

     total magnetization       =     1.00 Bohr mag/cell
     absolute magnetization    =     1.58 Bohr mag/cell

     iteration #  3     ecut=    70.00 Ry     beta= 0.30
     Davidson diagonalization with overlap
     ethr =  3.55E-07,  avg # of iterations =  5.0

     negative rho (up, down):  1.426E-03 3.368E-01

     total cpu time spent up to now is    55301.4 secs

     total energy              =    -756.41305292 Ry
     Harris-Foulkes estimate   =    -756.41131439 Ry
     estimated scf accuracy    <       0.00044133 Ry

     total magnetization       =     1.00 Bohr mag/cell
     absolute magnetization    =     1.59 Bohr mag/cell

     iteration #  4     ecut=    70.00 Ry     beta= 0.30
     Davidson diagonalization with overlap
     ethr =  2.09E-07,  avg # of iterations =  5.0

     negative rho (up, down):  1.560E-03 3.138E-01

     total cpu time spent up to now is    55414.5 secs

     total energy              =    -756.41417678 Ry
     Harris-Foulkes estimate   =    -756.41314419 Ry
     estimated scf accuracy    <       0.00031393 Ry

     total magnetization       =     1.00 Bohr mag/cell
     absolute magnetization    =     1.58 Bohr mag/cell

     iteration #  5     ecut=    70.00 Ry     beta= 0.30
     Davidson diagonalization with overlap
     ethr =  1.49E-07,  avg # of iterations =  3.0

     negative rho (up, down):  1.781E-03 2.923E-01

     total cpu time spent up to now is    55514.9 secs

     total energy              =    -756.41480979 Ry
     Harris-Foulkes estimate   =    -756.41421082 Ry
     estimated scf accuracy    <       0.00002523 Ry

     total magnetization       =     1.00 Bohr mag/cell
     absolute magnetization    =     1.58 Bohr mag/cell

     iteration #  6     ecut=    70.00 Ry     beta= 0.30
     Davidson diagonalization with overlap
     ethr =  1.20E-08,  avg # of iterations =  5.0

     negative rho (up, down):  1.657E-03 2.694E-01

     total cpu time spent up to now is    55622.8 secs

     total energy              =    -756.41525914 Ry
     Harris-Foulkes estimate   =    -756.41481369 Ry
     estimated scf accuracy    <       0.00000306 Ry

     total magnetization       =     1.00 Bohr mag/cell
     absolute magnetization    =     1.58 Bohr mag/cell

     iteration #  7     ecut=    70.00 Ry     beta= 0.30
     Davidson diagonalization with overlap
     ethr =  1.45E-09,  avg # of iterations =  3.0

     negative rho (up, down):  1.551E-03 2.443E-01

     total cpu time spent up to now is    55733.3 secs

     total energy              =    -756.41560929 Ry
     Harris-Foulkes estimate   =    -756.41534235 Ry
     estimated scf accuracy    <       0.00000089 Ry

     total magnetization       =     1.00 Bohr mag/cell
     absolute magnetization    =     1.58 Bohr mag/cell

     iteration #  8     ecut=    70.00 Ry     beta= 0.30
     Davidson diagonalization with overlap
     ethr =  4.21E-10,  avg # of iterations =  4.5

     negative rho (up, down):  1.495E-03 2.172E-01

     total cpu time spent up to now is    55845.7 secs

     total energy              =    -756.41575944 Ry
     Harris-Foulkes estimate   =    -756.41561010 Ry
     estimated scf accuracy    <       0.00000038 Ry

     total magnetization       =     1.00 Bohr mag/cell
     absolute magnetization    =     1.58 Bohr mag/cell

     iteration #  9     ecut=    70.00 Ry     beta= 0.30
     Davidson diagonalization with overlap
