
     Program PWSCF v.6.4.1 starts on 30Oct2022 at 11:23: 5 

     This program is part of the open-source Quantum ESPRESSO suite
     for quantum simulation of materials; please cite
         "P. Giannozzi et al., J. Phys.:Condens. Matter 21 395502 (2009);
         "P. Giannozzi et al., J. Phys.:Condens. Matter 29 465901 (2017);
          URL http://www.quantum-espresso.org", 
     in publications or presentations arising from this work. More details at
     http://www.quantum-espresso.org/quote

     Parallel version (MPI), running on     6 processors

     MPI processes distributed on     1 nodes
     R & G space division:  proc/nbgrp/npool/nimage =       6
     Reading input from v-vcrelax-2.in

     Current dimensions of program PWSCF are:
     Max number of different atomic species (ntypx) = 10
     Max number of k-points (npk) =  40000
     Max angular momentum in pseudopotentials (lmaxx) =  3
               file H.pbe-rrkjus.UPF: wavefunction(s)  1S renormalized
               file V.pbe-spnl-rrkjus_psl.1.0.0.UPF: wavefunction(s)  3P 3D renormalized

     Subspace diagonalization in iterative solution of the eigenvalue problem:
     a serial algorithm will be used


     Parallelization info
     --------------------
     sticks:   dense  smooth     PW     G-vecs:    dense   smooth      PW
     Min        3051    1746    432               270999   117096   14629
     Max        3053    1747    437               271001   117099   14630
     Sum       18313   10477   2611              1626001   702581   87777



     bravais-lattice index     =            4
     lattice parameter (alat)  =      23.2937  a.u.
     unit-cell volume          =    8879.8548 (a.u.)^3
     number of atoms/cell      =           52
     number of atomic types    =            3
     number of electrons       =       211.00
     number of Kohn-Sham states=          127
     kinetic-energy cutoff     =      70.0000  Ry
     charge density cutoff     =     490.0000  Ry
     convergence threshold     =      1.0E-10
     mixing beta               =       0.3000
     number of iterations used =            4  plain     mixing
     Exchange-correlation      = PBE ( 1  4  3  4 0 0)
     nstep                     =           50


     celldm(1)=  23.293684  celldm(2)=   0.000000  celldm(3)=   0.811261
     celldm(4)=   0.000000  celldm(5)=   0.000000  celldm(6)=   0.000000

     crystal axes: (cart. coord. in units of alat)
               a(1) = (   1.000000   0.000000   0.000000 )  
               a(2) = (  -0.500000   0.866025   0.000000 )  
               a(3) = (   0.000000   0.000000   0.811261 )  

     reciprocal axes: (cart. coord. in units 2 pi/alat)
               b(1) = (  1.000000  0.577350 -0.000000 )  
               b(2) = (  0.000000  1.154701  0.000000 )  
               b(3) = (  0.000000 -0.000000  1.232649 )  


     PseudoPot. # 1 for H  read from file:
     /home/cristian/Escritorio/Proyecto_Grafeno/pseudopotenciales/H.pbe-rrkjus.UPF
     MD5 check sum: 7cc9d459525c9a0585f487a71c3c9563
     Pseudo is Ultrasoft, Zval =  1.0
     Generated by new atomic code, or converted to UPF format
     Using radial grid of 1061 points,  2 beta functions with: 
                l(1) =   0
                l(2) =   0
     Q(r) pseudized with 0 coefficients 


     PseudoPot. # 2 for C  read from file:
     /home/cristian/Escritorio/Proyecto_Grafeno/pseudopotenciales/C.pbe-n-rrkjus_psl.1.0.0.UPF
     MD5 check sum: 1fdd950c42eb37d8afe3dd2f8d12311e
     Pseudo is Ultrasoft + core correction, Zval =  4.0
     Generated using "atomic" code by A. Dal Corso v.6.3MaX
     Using radial grid of 1073 points,  4 beta functions with: 
                l(1) =   0
                l(2) =   0
                l(3) =   1
                l(4) =   1
     Q(r) pseudized with 0 coefficients 


     PseudoPot. # 3 for V  read from file:
     /home/cristian/Escritorio/Proyecto_Grafeno/pseudopotenciales/V.pbe-spnl-rrkjus_psl.1.0.0.UPF
     MD5 check sum: 79b3eb63147daf0b665d9f1bcc691206
     Pseudo is Ultrasoft + core correction, Zval = 13.0
     Generated using "atomic" code by A. Dal Corso v.6.2.2
     Using radial grid of 1181 points,  6 beta functions with: 
                l(1) =   0
                l(2) =   0
                l(3) =   1
                l(4) =   1
                l(5) =   2
                l(6) =   2
     Q(r) pseudized with 0 coefficients 


     atomic species   valence    mass     pseudopotential
        H              1.00     1.00794     H ( 1.00)
        C              4.00    12.01070     C ( 1.00)
        V             13.00    50.94150     V ( 1.00)

     Starting magnetic structure 
     atomic species   magnetization
        H            0.500
        C            0.300
        V            0.800

     No symmetry found


                                    s                        frac. trans.

      isym =  1     identity                                     

 cryst.   s( 1) = (     1          0          0      )
                  (     0          1          0      )
                  (     0          0          1      )

 cart.    s( 1) = (  1.0000000  0.0000000  0.0000000 )
                  (  0.0000000  1.0000000  0.0000000 )
                  (  0.0000000  0.0000000  1.0000000 )


     point group C_1 (1)    
     there are  1 classes
     the character table:

       E    
A      1.00

     the symmetry operations in each class and the name of the first element:

     E        1
          identity                                               

   Cartesian axes

     site n.     atom                  positions (alat units)
         1           H   tau(   1) = (   0.2313151   0.4710596   0.2204771  )
         2           H   tau(   2) = (   0.1689697   0.4537660   0.2241997  )
         3           C   tau(   3) = (   0.0001982  -0.0000813   0.0025949  )
         4           C   tau(   4) = (  -0.0004695   0.1147251   0.0027729  )
         5           C   tau(   5) = (  -0.1000686   0.1732042   0.0022745  )
         6           C   tau(   6) = (  -0.0999658   0.2887708   0.0014239  )
         7           C   tau(   7) = (  -0.2000628   0.3464912   0.0022483  )
         8           C   tau(   8) = (  -0.2004576   0.4620249   0.0024309  )
         9           C   tau(   9) = (  -0.2999387   0.5199133   0.0022972  )
        10           C   tau(  10) = (  -0.2999583   0.6352333   0.0015393  )
        11           C   tau(  11) = (  -0.3997610   0.6930315   0.0015272  )
        12           C   tau(  12) = (  -0.3999362   0.8082030   0.0015656  )
        13           C   tau(  13) = (   0.2001580  -0.0004777   0.0017115  )
        14           C   tau(  14) = (   0.2001206   0.1142933   0.0007837  )
        15           C   tau(  15) = (   0.0993761   0.1708033  -0.0002906  )
        16           C   tau(  16) = (   0.0992423   0.2855105  -0.0091304  )
        17           C   tau(  17) = (  -0.0001692   0.3460864  -0.0048432  )
        18           C   tau(  18) = (  -0.0016883   0.4627050  -0.0075073  )
        19           C   tau(  19) = (  -0.1015867   0.5202165   0.0000282  )
        20           C   tau(  20) = (  -0.1005798   0.6356714   0.0006917  )
        21           C   tau(  21) = (  -0.2001712   0.6931576   0.0015761  )
        22           C   tau(  22) = (  -0.1998576   0.8082697   0.0014993  )
        23           C   tau(  23) = (   0.4000019   0.0000246   0.0029780  )
        24           C   tau(  24) = (   0.4009908   0.1145586   0.0026301  )
        25           C   tau(  25) = (   0.3013922   0.1707487  -0.0015351  )
        26           C   tau(  26) = (   0.3026427   0.2846854  -0.0107458  )
        27           C   tau(  27) = (   0.2013792   0.3356625  -0.0186689  )
        28           V   tau(  28) = (   0.1914434   0.4530537   0.0699302  )
        29           C   tau(  29) = (   0.0932720   0.5263670  -0.0139273  )
        30           C   tau(  30) = (   0.0984630   0.6396232  -0.0099288  )
        31           C   tau(  31) = (  -0.0011202   0.6952878  -0.0020527  )
        32           C   tau(  32) = (  -0.0001859   0.8095443   0.0021186  )
        33           C   tau(  33) = (   0.5999735   0.0009694   0.0018512  )
        34           C   tau(  34) = (   0.6005047   0.1159708   0.0015876  )
        35           C   tau(  35) = (   0.5005456   0.1730143   0.0020899  )
        36           C   tau(  36) = (   0.5006033   0.2885787   0.0008740  )
        37           C   tau(  37) = (   0.4012325   0.3455946  -0.0053131  )
        38           C   tau(  38) = (   0.4018943   0.4622184  -0.0071131  )
        39           C   tau(  39) = (   0.3055587   0.5237947  -0.0051556  )
        40           C   tau(  40) = (   0.3012273   0.6377057  -0.0077259  )
        41           C   tau(  41) = (   0.2000575   0.6951243  -0.0054109  )
        42           C   tau(  42) = (   0.2001508   0.8093559   0.0005018  )
        43           C   tau(  43) = (   0.8003977   0.0008951   0.0017995  )
        44           C   tau(  44) = (   0.7999840   0.1160062   0.0016351  )
        45           C   tau(  45) = (   0.7002099   0.1735195   0.0006943  )
        46           C   tau(  46) = (   0.7002799   0.2887106   0.0016825  )
        47           C   tau(  47) = (   0.6006038   0.3465370   0.0020055  )
        48           C   tau(  48) = (   0.6005652   0.4619226   0.0016386  )
        49           C   tau(  49) = (   0.5014304   0.5199496  -0.0015307  )
        50           C   tau(  50) = (   0.5005467   0.6355325   0.0003507  )
        51           C   tau(  51) = (   0.4010314   0.6944395  -0.0022744  )
        52           C   tau(  52) = (   0.4002149   0.8090468   0.0014508  )

   Crystallographic axes

     site n.     atom                  positions (cryst. coord.)
         1           H   tau(   1) = (  0.5032814  0.5439327  0.2717708  )
         2           H   tau(   2) = (  0.4309516  0.5239638  0.2763594  )
         3           C   tau(   3) = (  0.0001513 -0.0000938  0.0031986  )
         4           C   tau(   4) = (  0.0657671  0.1324732  0.0034180  )
         5           C   tau(   5) = ( -0.0000691  0.1999990  0.0028037  )
         6           C   tau(   6) = (  0.0667561  0.3334438  0.0017552  )
         7           C   tau(   7) = ( -0.0000160  0.4000936  0.0027713  )
         8           C   tau(   8) = (  0.0662926  0.5335003  0.0029965  )
         9           C   tau(   9) = (  0.0002334  0.6003441  0.0028316  )
        10           C   tau(  10) = (  0.0667938  0.7335042  0.0018974  )
        11           C   tau(  11) = (  0.0003610  0.8002439  0.0018826  )
        12           C   tau(  12) = (  0.0666800  0.9332324  0.0019299  )
        13           C   tau(  13) = (  0.1998822 -0.0005516  0.0021097  )
        14           C   tau(  14) = (  0.2661079  0.1319746  0.0009660  )
        15           C   tau(  15) = (  0.1979894  0.1972267 -0.0003583  )
        16           C   tau(  16) = (  0.2640819  0.3296791 -0.0112546  )
        17           C   tau(  17) = (  0.1996438  0.3996261 -0.0059699  )
        18           C   tau(  18) = (  0.2654546  0.5342857 -0.0092539  )
        19           C   tau(  19) = (  0.1987605  0.6006943  0.0000348  )
        20           C   tau(  20) = (  0.2664252  0.7340101  0.0008526  )
        21           C   tau(  21) = (  0.2000236  0.8003895  0.0019427  )
        22           C   tau(  22) = (  0.2667972  0.9333095  0.0018481  )
        23           C   tau(  23) = (  0.4000161  0.0000284  0.0036708  )
        24           C   tau(  24) = (  0.4671313  0.1322809  0.0032419  )
        25           C   tau(  25) = (  0.3999740  0.1971637 -0.0018923  )
        26           C   tau(  26) = (  0.4670059  0.3287264 -0.0132458  )
        27           C   tau(  27) = (  0.3951741  0.3875897 -0.0230121  )
        28           V   tau(  28) = (  0.4530141  0.5231414  0.0861994  )
        29           C   tau(  29) = (  0.3971702  0.6077963 -0.0171675  )
        30           C   tau(  30) = (  0.4677496  0.7385733 -0.0122387  )
        31           C   tau(  31) = (  0.4003044  0.8028492 -0.0025302  )
        32           C   tau(  32) = (  0.4672047  0.9347813  0.0026115  )
        33           C   tau(  33) = (  0.6005332  0.0011194  0.0022818  )
        34           C   tau(  34) = (  0.6674604  0.1339115  0.0019570  )
        35           C   tau(  35) = (  0.6004355  0.1997797  0.0025761  )
        36           C   tau(  36) = (  0.6672142  0.3332219  0.0010773  )
        37           C   tau(  37) = (  0.6007616  0.3990583 -0.0065492  )
        38           C   tau(  38) = (  0.6687562  0.5337238 -0.0087680  )
        39           C   tau(  39) = (  0.6079717  0.6048260 -0.0063550  )
        40           C   tau(  40) = (  0.6694068  0.7363591 -0.0095233  )
        41           C   tau(  41) = (  0.6013877  0.8026604 -0.0066698  )
        42           C   tau(  42) = (  0.6674326  0.9345637  0.0006186  )
        43           C   tau(  43) = (  0.8009144  0.0010335  0.0022182  )
        44           C   tau(  44) = (  0.8669602  0.1339525  0.0020155  )
        45           C   tau(  45) = (  0.8003914  0.2003631  0.0008558  )
        46           C   tau(  46) = (  0.8669670  0.3333742  0.0020739  )
        47           C   tau(  47) = (  0.8006770  0.4001465  0.0024720  )
        48           C   tau(  48) = (  0.8672564  0.5333823  0.0020198  )
        49           C   tau(  49) = (  0.8016234  0.6003861 -0.0018868  )
        50           C   tau(  50) = (  0.8674716  0.7338497  0.0004323  )
        51           C   tau(  51) = (  0.8019662  0.8018697 -0.0028036  )
        52           C   tau(  52) = (  0.8673183  0.9342068  0.0017883  )

     number of k points=     1  Marzari-Vanderbilt smearing, width (Ry)=  0.0010
                       cart. coord. in units 2pi/alat
        k(    1) = (   0.0000000   0.0000000   0.0000000), wk =   1.0000000

                       cryst. coord.
        k(    1) = (   0.0000000   0.0000000   0.0000000), wk =   1.0000000

     Dense  grid:  1626001 G-vectors     FFT dimensions: ( 180, 180, 135)

     Smooth grid:   702581 G-vectors     FFT dimensions: ( 125, 125, 108)

     Dynamical RAM for                 wfc:      28.36 MB

     Dynamical RAM for     wfc (w. buffer):      85.09 MB

     Dynamical RAM for           str. fact:      12.41 MB

     Dynamical RAM for           local pot:       0.00 MB

     Dynamical RAM for          nlocal pot:      92.46 MB

     Dynamical RAM for                qrad:      19.73 MB

     Dynamical RAM for          rho,v,vnew:      58.92 MB

     Dynamical RAM for               rhoin:      19.64 MB

     Dynamical RAM for            rho*nmix:      66.16 MB

     Dynamical RAM for           G-vectors:      16.40 MB

     Dynamical RAM for          h,s,v(r/c):      11.81 MB

     Dynamical RAM for          <psi|beta>:       0.80 MB

     Dynamical RAM for                 psi:     113.46 MB

     Dynamical RAM for                hpsi:     113.46 MB

     Dynamical RAM for                spsi:     113.46 MB

     Dynamical RAM for      wfcinit/wfcrot:      93.90 MB

     Dynamical RAM for           addusdens:     975.89 MB

     Dynamical RAM for          addusforce:    1410.48 MB

     Estimated static dynamical RAM per process >     421.47 MB

     Estimated max dynamical RAM per process >       1.79 GB

     Estimated total dynamical RAM >      10.73 GB
     Generating pointlists ...
     new r_m :   0.0267 (alat units)  0.6227 (a.u.) for type    1
     new r_m :   0.0468 (alat units)  1.0901 (a.u.) for type    2
     new r_m :   0.0608 (alat units)  1.4164 (a.u.) for type    3

     Check: negative core charge=   -0.000002

     Initial potential from superposition of free atoms

     starting charge  210.80465, renormalised to  211.00000

     negative rho (up, down):  1.213E-04 1.577E-02
     Starting wfcs are  208 randomized atomic wfcs

     total cpu time spent up to now is       85.6 secs

     Self-consistent Calculation

     iteration #  1     ecut=    70.00 Ry     beta= 0.30
     Davidson diagonalization with overlap
     ethr =  1.00E-02,  avg # of iterations =  3.0

     negative rho (up, down):  1.421E-04 1.388E-02

     total cpu time spent up to now is      230.2 secs

     total energy              =    -752.90968665 Ry
     Harris-Foulkes estimate   =    -755.72364366 Ry
     estimated scf accuracy    <      12.19349436 Ry

     total magnetization       =     9.00 Bohr mag/cell
     absolute magnetization    =     9.26 Bohr mag/cell

     iteration #  2     ecut=    70.00 Ry     beta= 0.30
     Davidson diagonalization with overlap
     ethr =  5.78E-03,  avg # of iterations =  5.5

     negative rho (up, down):  2.281E-04 2.689E-02

     total cpu time spent up to now is      336.9 secs

     total energy              =    -753.02411142 Ry
     Harris-Foulkes estimate   =    -757.77985346 Ry
     estimated scf accuracy    <      28.87074646 Ry

     total magnetization       =     6.82 Bohr mag/cell
     absolute magnetization    =     6.92 Bohr mag/cell

     iteration #  3     ecut=    70.00 Ry     beta= 0.30
     Davidson diagonalization with overlap
     ethr =  5.78E-03,  avg # of iterations =  3.0

     negative rho (up, down):  6.073E-04 4.027E-02

     total cpu time spent up to now is      439.5 secs

     total energy              =    -755.68283124 Ry
     Harris-Foulkes estimate   =    -755.39894636 Ry
     estimated scf accuracy    <       2.58871951 Ry

     total magnetization       =     3.00 Bohr mag/cell
     absolute magnetization    =     4.13 Bohr mag/cell

     iteration #  4     ecut=    70.00 Ry     beta= 0.30
     Davidson diagonalization with overlap
     ethr =  1.23E-03,  avg # of iterations =  6.0

     negative rho (up, down):  7.871E-04 2.895E-02

     total cpu time spent up to now is      558.8 secs

     total energy              =    -756.04118844 Ry
     Harris-Foulkes estimate   =    -756.20357143 Ry
     estimated scf accuracy    <       2.40071850 Ry

     total magnetization       =     3.00 Bohr mag/cell
     absolute magnetization    =     4.05 Bohr mag/cell

     iteration #  5     ecut=    70.00 Ry     beta= 0.30
     Davidson diagonalization with overlap
     ethr =  1.14E-03,  avg # of iterations =  2.5

     negative rho (up, down):  5.906E-04 3.977E-02

     total cpu time spent up to now is      660.5 secs

     total energy              =    -756.30962126 Ry
     Harris-Foulkes estimate   =    -756.26816951 Ry
     estimated scf accuracy    <       0.29024234 Ry

     total magnetization       =     1.00 Bohr mag/cell
     absolute magnetization    =     2.31 Bohr mag/cell

     iteration #  6     ecut=    70.00 Ry     beta= 0.30
     Davidson diagonalization with overlap
     ethr =  1.38E-04,  avg # of iterations = 12.5

     negative rho (up, down):  1.000E-03 4.497E-02

     total cpu time spent up to now is      770.7 secs

     total energy              =    -756.38108799 Ry
     Harris-Foulkes estimate   =    -756.32147676 Ry
     estimated scf accuracy    <       0.12536035 Ry

     total magnetization       =     1.00 Bohr mag/cell
     absolute magnetization    =     2.25 Bohr mag/cell

     iteration #  7     ecut=    70.00 Ry     beta= 0.30
     Davidson diagonalization with overlap
     ethr =  5.94E-05,  avg # of iterations =  2.0

     negative rho (up, down):  3.024E-03 4.205E-02

     total cpu time spent up to now is      872.9 secs

     total energy              =    -756.40747362 Ry
     Harris-Foulkes estimate   =    -756.38777233 Ry
     estimated scf accuracy    <       0.03324970 Ry

     total magnetization       =     1.00 Bohr mag/cell
     absolute magnetization    =     2.02 Bohr mag/cell

     iteration #  8     ecut=    70.00 Ry     beta= 0.30
     Davidson diagonalization with overlap
     ethr =  1.58E-05,  avg # of iterations = 11.5

     negative rho (up, down):  4.202E-03 3.719E-02

     total cpu time spent up to now is      988.6 secs

     total energy              =    -756.41330950 Ry
     Harris-Foulkes estimate   =    -756.41082865 Ry
     estimated scf accuracy    <       0.00509082 Ry

     total magnetization       =     1.00 Bohr mag/cell
     absolute magnetization    =     1.84 Bohr mag/cell

     iteration #  9     ecut=    70.00 Ry     beta= 0.30
     Davidson diagonalization with overlap
     ethr =  2.41E-06,  avg # of iterations =  9.5

     negative rho (up, down):  3.387E-03 3.270E-02

     total cpu time spent up to now is     1105.3 secs

     total energy              =    -756.41466065 Ry
     Harris-Foulkes estimate   =    -756.41419150 Ry
     estimated scf accuracy    <       0.00142575 Ry

     total magnetization       =     1.00 Bohr mag/cell
     absolute magnetization    =     1.73 Bohr mag/cell

     iteration # 10     ecut=    70.00 Ry     beta= 0.30
     Davidson diagonalization with overlap
     ethr =  6.76E-07,  avg # of iterations =  3.0

     negative rho (up, down):  2.683E-03 3.014E-02

     total cpu time spent up to now is     1208.4 secs

     total energy              =    -756.41530693 Ry
     Harris-Foulkes estimate   =    -756.41484875 Ry
     estimated scf accuracy    <       0.00057049 Ry

     total magnetization       =     1.00 Bohr mag/cell
     absolute magnetization    =     1.70 Bohr mag/cell

     iteration # 11     ecut=    70.00 Ry     beta= 0.30
     Davidson diagonalization with overlap
     ethr =  2.70E-07,  avg # of iterations =  2.5

     negative rho (up, down):  2.171E-03 3.138E-02

     total cpu time spent up to now is     1312.6 secs

     total energy              =    -756.41564520 Ry
     Harris-Foulkes estimate   =    -756.41542786 Ry
     estimated scf accuracy    <       0.00021796 Ry

     total magnetization       =     1.00 Bohr mag/cell
     absolute magnetization    =     1.66 Bohr mag/cell

     iteration # 12     ecut=    70.00 Ry     beta= 0.30
     Davidson diagonalization with overlap
     ethr =  1.03E-07,  avg # of iterations =  2.5

     negative rho (up, down):  1.769E-03 5.384E-02

     total cpu time spent up to now is     1415.8 secs

     total energy              =    -756.41583148 Ry
     Harris-Foulkes estimate   =    -756.41568214 Ry
     estimated scf accuracy    <       0.00009214 Ry

     total magnetization       =     1.00 Bohr mag/cell
     absolute magnetization    =     1.64 Bohr mag/cell

     iteration # 13     ecut=    70.00 Ry     beta= 0.30
     Davidson diagonalization with overlap
     ethr =  4.37E-08,  avg # of iterations =  3.0

     negative rho (up, down):  1.596E-03 5.657E-02

     total cpu time spent up to now is     1529.3 secs

     total energy              =    -756.41591529 Ry
     Harris-Foulkes estimate   =    -756.41587773 Ry
     estimated scf accuracy    <       0.00002408 Ry

     total magnetization       =     1.00 Bohr mag/cell
     absolute magnetization    =     1.62 Bohr mag/cell

     iteration # 14     ecut=    70.00 Ry     beta= 0.30
     Davidson diagonalization with overlap
     ethr =  1.14E-08,  avg # of iterations =  3.5

     negative rho (up, down):  1.498E-03 6.081E-02

     total cpu time spent up to now is     1640.1 secs

     total energy              =    -756.41594311 Ry
     Harris-Foulkes estimate   =    -756.41592587 Ry
     estimated scf accuracy    <       0.00000853 Ry

     total magnetization       =     1.00 Bohr mag/cell
     absolute magnetization    =     1.60 Bohr mag/cell

     iteration # 15     ecut=    70.00 Ry     beta= 0.30
     Davidson diagonalization with overlap
     ethr =  4.04E-09,  avg # of iterations =  3.0

     negative rho (up, down):  1.459E-03 5.574E-02

     total cpu time spent up to now is     1762.8 secs

     total energy              =    -756.41595559 Ry
     Harris-Foulkes estimate   =    -756.41594894 Ry
     estimated scf accuracy    <       0.00000282 Ry

     total magnetization       =     1.00 Bohr mag/cell
     absolute magnetization    =     1.60 Bohr mag/cell

     iteration # 16     ecut=    70.00 Ry     beta= 0.30
     Davidson diagonalization with overlap
     ethr =  1.33E-09,  avg # of iterations =  3.0

     negative rho (up, down):  1.444E-03 4.611E-02

     total cpu time spent up to now is     1881.7 secs

     total energy              =    -756.41596052 Ry
     Harris-Foulkes estimate   =    -756.41595732 Ry
     estimated scf accuracy    <       0.00000082 Ry

     total magnetization       =     1.00 Bohr mag/cell
     absolute magnetization    =     1.59 Bohr mag/cell

     iteration # 17     ecut=    70.00 Ry     beta= 0.30
     Davidson diagonalization with overlap
     ethr =  3.89E-10,  avg # of iterations =  3.0

     negative rho (up, down):  1.445E-03 4.003E-02

     total cpu time spent up to now is     1995.7 secs

     total energy              =    -756.41596262 Ry
     Harris-Foulkes estimate   =    -756.41596084 Ry
     estimated scf accuracy    <       0.00000039 Ry

     total magnetization       =     1.00 Bohr mag/cell
     absolute magnetization    =     1.59 Bohr mag/cell

     iteration # 18     ecut=    70.00 Ry     beta= 0.30
     Davidson diagonalization with overlap
     ethr =  1.83E-10,  avg # of iterations =  3.5

     negative rho (up, down):  1.442E-03 3.272E-02

     total cpu time spent up to now is     2126.9 secs

     total energy              =    -756.41596358 Ry
     Harris-Foulkes estimate   =    -756.41596285 Ry
     estimated scf accuracy    <       0.00000014 Ry

     total magnetization       =     1.00 Bohr mag/cell
     absolute magnetization    =     1.59 Bohr mag/cell

     iteration # 19     ecut=    70.00 Ry     beta= 0.30
     Davidson diagonalization with overlap
     ethr =  6.67E-11,  avg # of iterations =  3.5

     negative rho (up, down):  1.442E-03 2.682E-02

     total cpu time spent up to now is     2238.4 secs

     total energy              =    -756.41596406 Ry
     Harris-Foulkes estimate   =    -756.41596363 Ry
     estimated scf accuracy    <       0.00000003 Ry

     total magnetization       =     1.00 Bohr mag/cell
     absolute magnetization    =     1.59 Bohr mag/cell

     iteration # 20     ecut=    70.00 Ry     beta= 0.30
     Davidson diagonalization with overlap
     ethr =  1.31E-11,  avg # of iterations =  3.5

     negative rho (up, down):  1.441E-03 2.294E-02

     total cpu time spent up to now is     2369.8 secs

     total energy              =    -756.41596431 Ry
     Harris-Foulkes estimate   =    -756.41596407 Ry
     estimated scf accuracy    <       0.00000001 Ry

     total magnetization       =     1.00 Bohr mag/cell
     absolute magnetization    =     1.59 Bohr mag/cell

     iteration # 21     ecut=    70.00 Ry     beta= 0.30
     Davidson diagonalization with overlap
     ethr =  6.25E-12,  avg # of iterations =  3.5

     negative rho (up, down):  1.441E-03 2.030E-02

     total cpu time spent up to now is     2496.8 secs

     total energy              =    -756.41596444 Ry
     Harris-Foulkes estimate   =    -756.41596431 Ry
     estimated scf accuracy    <          5.3E-09 Ry

     total magnetization       =     1.00 Bohr mag/cell
     absolute magnetization    =     1.59 Bohr mag/cell

     iteration # 22     ecut=    70.00 Ry     beta= 0.30
     Davidson diagonalization with overlap
     ethr =  2.50E-12,  avg # of iterations =  3.5

     negative rho (up, down):  1.440E-03 1.870E-02

     total cpu time spent up to now is     2624.7 secs

     total energy              =    -756.41596451 Ry
     Harris-Foulkes estimate   =    -756.41596444 Ry
     estimated scf accuracy    <          2.2E-09 Ry

     total magnetization       =     1.00 Bohr mag/cell
     absolute magnetization    =     1.59 Bohr mag/cell

     iteration # 23     ecut=    70.00 Ry     beta= 0.30
     Davidson diagonalization with overlap
     ethr =  1.06E-12,  avg # of iterations =  4.0

     negative rho (up, down):  1.440E-03 1.752E-02

     total cpu time spent up to now is     2762.8 secs

     total energy              =    -756.41596455 Ry
     Harris-Foulkes estimate   =    -756.41596451 Ry
     estimated scf accuracy    <          8.4E-10 Ry

     total magnetization       =     1.00 Bohr mag/cell
     absolute magnetization    =     1.59 Bohr mag/cell

     iteration # 24     ecut=    70.00 Ry     beta= 0.30
     Davidson diagonalization with overlap
     ethr =  3.97E-13,  avg # of iterations =  3.5

     negative rho (up, down):  1.440E-03 1.688E-02

     total cpu time spent up to now is     2882.9 secs

     total energy              =    -756.41596457 Ry
     Harris-Foulkes estimate   =    -756.41596455 Ry
     estimated scf accuracy    <          8.9E-10 Ry

     total magnetization       =     1.00 Bohr mag/cell
     absolute magnetization    =     1.59 Bohr mag/cell

     iteration # 25     ecut=    70.00 Ry     beta= 0.30
     Davidson diagonalization with overlap
     ethr =  3.97E-13,  avg # of iterations =  3.5

     negative rho (up, down):  1.440E-03 1.650E-02

     total cpu time spent up to now is     2995.6 secs

     total energy              =    -756.41596458 Ry
     Harris-Foulkes estimate   =    -756.41596457 Ry
     estimated scf accuracy    <          3.4E-10 Ry

     total magnetization       =     1.00 Bohr mag/cell
     absolute magnetization    =     1.59 Bohr mag/cell

     iteration # 26     ecut=    70.00 Ry     beta= 0.30
     Davidson diagonalization with overlap
     ethr =  1.61E-13,  avg # of iterations =  3.5

     negative rho (up, down):  1.440E-03 1.636E-02

     total cpu time spent up to now is     3107.9 secs

     total energy              =    -756.41596458 Ry
     Harris-Foulkes estimate   =    -756.41596458 Ry
     estimated scf accuracy    <          1.4E-10 Ry

     total magnetization       =     1.00 Bohr mag/cell
     absolute magnetization    =     1.59 Bohr mag/cell

     iteration # 27     ecut=    70.00 Ry     beta= 0.30
     Davidson diagonalization with overlap
     ethr =  1.00E-13,  avg # of iterations =  3.5

     negative rho (up, down):  1.440E-03 1.611E-02

     Magnetic moment per site:
     atom:    1    charge:    0.2283    magn:    0.0032    constr:    0.0000
     atom:    2    charge:    0.2325    magn:    0.0030    constr:    0.0000
     atom:    3    charge:    1.6493    magn:   -0.0021    constr:    0.0000
     atom:    4    charge:    1.6503    magn:    0.0042    constr:    0.0000
     atom:    5    charge:    1.6430    magn:   -0.0026    constr:    0.0000
     atom:    6    charge:    1.6397    magn:    0.0034    constr:    0.0000
     atom:    7    charge:    1.6427    magn:   -0.0029    constr:    0.0000
     atom:    8    charge:    1.6470    magn:    0.0033    constr:    0.0000
     atom:    9    charge:    1.6471    magn:   -0.0021    constr:    0.0000
     atom:   10    charge:    1.6421    magn:    0.0026    constr:    0.0000
     atom:   11    charge:    1.6455    magn:   -0.0032    constr:    0.0000
     atom:   12    charge:    1.6436    magn:    0.0065    constr:    0.0000
     atom:   13    charge:    1.6470    magn:   -0.0028    constr:    0.0000
     atom:   14    charge:    1.6418    magn:    0.0020    constr:    0.0000
     atom:   15    charge:    1.6492    magn:   -0.0004    constr:    0.0000
     atom:   16    charge:    1.6384    magn:    0.0016    constr:    0.0000
     atom:   17    charge:    1.6329    magn:   -0.0063    constr:    0.0000
     atom:   18    charge:    1.6320    magn:    0.0003    constr:    0.0000
     atom:   19    charge:    1.6453    magn:   -0.0019    constr:    0.0000
     atom:   20    charge:    1.6405    magn:    0.0046    constr:    0.0000
     atom:   21    charge:    1.6462    magn:   -0.0028    constr:    0.0000
     atom:   22    charge:    1.6463    magn:    0.0158    constr:    0.0000
     atom:   23    charge:    1.6522    magn:   -0.0024    constr:    0.0000
     atom:   24    charge:    1.6535    magn:    0.0043    constr:    0.0000
     atom:   25    charge:    1.6519    magn:   -0.0018    constr:    0.0000
     atom:   26    charge:    1.6493    magn:    0.0117    constr:    0.0000
     atom:   27    charge:    1.6475    magn:   -0.0192    constr:    0.0000
     atom:   28    charge:    9.4488    magn:    0.5601    constr:    0.0000
     atom:   29    charge:    1.6425    magn:   -0.0209    constr:    0.0000
     atom:   30    charge:    1.6518    magn:    0.0164    constr:    0.0000
     atom:   31    charge:    1.6517    magn:   -0.0034    constr:    0.0000
     atom:   32    charge:    1.6529    magn:    0.0039    constr:    0.0000
     atom:   33    charge:    1.6435    magn:   -0.0028    constr:    0.0000
     atom:   34    charge:    1.6466    magn:    0.0023    constr:    0.0000
     atom:   35    charge:    1.6430    magn:   -0.0028    constr:    0.0000
     atom:   36    charge:    1.6429    magn:    0.0023    constr:    0.0000
     atom:   37    charge:    1.6389    magn:   -0.0066    constr:    0.0000
     atom:   38    charge:    1.6362    magn:    0.0144    constr:    0.0000
     atom:   39    charge:    1.6233    magn:   -0.0212    constr:    0.0000
     atom:   40    charge:    1.6423    magn:    0.0186    constr:    0.0000
     atom:   41    charge:    1.6429    magn:   -0.0069    constr:    0.0000
     atom:   42    charge:    1.6452    magn:    0.0020    constr:    0.0000
     atom:   43    charge:    1.6438    magn:   -0.0025    constr:    0.0000
     atom:   44    charge:    1.6450    magn:    0.0016    constr:    0.0000
     atom:   45    charge:    1.6511    magn:   -0.0050    constr:    0.0000
     atom:   46    charge:    1.6437    magn:    0.0013    constr:    0.0000
     atom:   47    charge:    1.6431    magn:   -0.0029    constr:    0.0000
     atom:   48    charge:    1.6456    magn:    0.0010    constr:    0.0000
     atom:   49    charge:    1.6447    magn:   -0.0046    constr:    0.0000
     atom:   50    charge:    1.6421    magn:    0.0154    constr:    0.0000
     atom:   51    charge:    1.6475    magn:   -0.0049    constr:    0.0000
     atom:   52    charge:    1.6481    magn:    0.0012    constr:    0.0000

     total cpu time spent up to now is     3223.5 secs

     End of self-consistent calculation

 ------ SPIN UP ------------


          k = 0.0000 0.0000 0.0000 ( 87777 PWs)   bands (ev):

   -64.5500 -38.6709 -38.6187 -38.3111 -19.6267 -18.8059 -18.7784 -18.7232
   -18.7137 -18.7066 -18.1748 -16.9705 -16.9275 -16.9216 -16.7968 -16.7946
   -16.4978 -16.0611 -16.0399 -15.9833 -15.8492 -15.8488 -14.9574 -13.9024
   -13.8856 -13.8605 -13.7397 -13.7202 -13.1970 -12.9062 -12.8742 -12.8612
   -12.5529 -12.5450 -12.0475 -11.5406 -11.5364 -11.5028 -11.1697 -11.1602
   -10.0223  -9.2758  -9.1873  -9.1796  -9.1288  -9.1129  -9.0911  -9.0852
    -9.0652  -8.9869  -8.9677  -8.5324  -8.5171  -7.8034  -7.7428  -7.7105
    -7.6548  -7.6513  -7.2461  -7.2267  -6.8028  -6.7810  -6.7267  -6.7056
    -6.6574  -6.6442  -6.4327  -6.4088  -6.3973  -6.3950  -6.3756  -6.3340
    -6.3192  -6.3069  -6.2914  -6.2738  -5.3660  -5.3280  -4.8143  -4.7517
    -4.7209  -4.6760  -4.6370  -4.6202  -4.5790  -4.5461  -4.4991  -4.2216
    -3.8944  -3.8171  -3.6411  -3.6332  -3.6063  -3.5537  -3.5493  -3.2469
    -2.9428  -2.5505  -2.4957  -1.7575  -1.6812  -1.6796  -1.6776  -1.6467
    -0.8246  -0.2270   0.3331   1.0720   1.0886   1.2099   1.2432   1.3621
     1.3837   1.9239   2.3005   2.3322   2.8691   3.0224   3.0310   3.0511
     3.1896   3.2172   3.9230   4.0370   4.0726   4.0774   4.1138

     occupation numbers 
     1.0000   1.0000   1.0000   1.0000   1.0000   1.0000   1.0000   1.0000
     1.0000   1.0000   1.0000   1.0000   1.0000   1.0000   1.0000   1.0000
     1.0000   1.0000   1.0000   1.0000   1.0000   1.0000   1.0000   1.0000
     1.0000   1.0000   1.0000   1.0000   1.0000   1.0000   1.0000   1.0000
     1.0000   1.0000   1.0000   1.0000   1.0000   1.0000   1.0000   1.0000
     1.0000   1.0000   1.0000   1.0000   1.0000   1.0000   1.0000   1.0000
     1.0000   1.0000   1.0000   1.0000   1.0000   1.0000   1.0000   1.0000
     1.0000   1.0000   1.0000   1.0000   1.0000   1.0000   1.0000   1.0000
     1.0000   1.0000   1.0000   1.0000   1.0000   1.0000   1.0000   1.0000
     1.0000   1.0000   1.0000   1.0000   1.0000   1.0000   1.0000   1.0000
     1.0000   1.0000   1.0000   1.0000   1.0000   1.0000   1.0000   1.0000
     1.0000   1.0000   1.0000   1.0000   1.0000   1.0000   1.0000   1.0000
     1.0000   1.0000   1.0000   1.0000   1.0000   1.0000   1.0000   1.0000
     1.0000   1.0000   0.0000   0.0000   0.0000   0.0000   0.0000   0.0000
     0.0000   0.0000   0.0000   0.0000   0.0000   0.0000   0.0000   0.0000
     0.0000   0.0000   0.0000   0.0000   0.0000   0.0000   0.0000

 ------ SPIN DOWN ----------


          k = 0.0000 0.0000 0.0000 ( 87777 PWs)   bands (ev):

   -63.7727 -38.0049 -37.8285 -37.4028 -19.6231 -18.8036 -18.7730 -18.7210
   -18.7097 -18.7041 -18.1693 -16.9686 -16.9264 -16.9156 -16.7934 -16.7893
   -16.4954 -16.0511 -16.0386 -15.9827 -15.8476 -15.8450 -14.9537 -13.8986
   -13.8841 -13.8551 -13.7388 -13.7090 -13.2069 -12.9029 -12.8702 -12.8615
   -12.5514 -12.5438 -12.0434 -11.5360 -11.5302 -11.5027 -11.1691 -11.1567
   -10.0146  -9.1846  -9.1772  -9.1266  -9.1255  -9.1111  -9.0856  -9.0836
    -9.0622  -8.9793  -8.9664  -8.5295  -8.5158  -7.7947  -7.7403  -7.7080
    -7.6481  -7.6459  -7.2379  -7.2236  -6.7996  -6.7736  -6.7135  -6.6963
    -6.6536  -6.6358  -6.4321  -6.4063  -6.3957  -6.3934  -6.3729  -6.3318
    -6.3118  -6.2919  -6.2896  -6.2660  -5.3561  -5.3223  -4.8116  -4.7462
    -4.7092  -4.6741  -4.6281  -4.6037  -4.5681  -4.5324  -4.4920  -4.2096
    -3.8502  -3.8046  -3.6281  -3.6183  -3.5989  -3.5459  -3.5319  -3.2477
    -2.9021  -2.4292  -2.3920  -1.7193  -1.6769  -1.6722  -1.6129  -1.5138
    -0.7539   0.6280   0.7141   1.0989   1.1619   1.2487   1.3609   1.4581
     1.5360   2.2752   2.4050   2.4621   2.9227   3.0363   3.0399   3.0873
     3.2180   3.3257   3.9763   4.0857   4.0867   4.1390   4.1497

     occupation numbers 
     1.0000   1.0000   1.0000   1.0000   1.0000   1.0000   1.0000   1.0000
     1.0000   1.0000   1.0000   1.0000   1.0000   1.0000   1.0000   1.0000
     1.0000   1.0000   1.0000   1.0000   1.0000   1.0000   1.0000   1.0000
     1.0000   1.0000   1.0000   1.0000   1.0000   1.0000   1.0000   1.0000
     1.0000   1.0000   1.0000   1.0000   1.0000   1.0000   1.0000   1.0000
     1.0000   1.0000   1.0000   1.0000   1.0000   1.0000   1.0000   1.0000
     1.0000   1.0000   1.0000   1.0000   1.0000   1.0000   1.0000   1.0000
     1.0000   1.0000   1.0000   1.0000   1.0000   1.0000   1.0000   1.0000
     1.0000   1.0000   1.0000   1.0000   1.0000   1.0000   1.0000   1.0000
     1.0000   1.0000   1.0000   1.0000   1.0000   1.0000   1.0000   1.0000
     1.0000   1.0000   1.0000   1.0000   1.0000   1.0000   1.0000   1.0000
     1.0000   1.0000   1.0000   1.0000   1.0000   1.0000   1.0000   1.0000
     1.0000   1.0000   1.0000   1.0000   1.0000   1.0000   1.0000   1.0000
     1.0000   0.0000   0.0000   0.0000   0.0000   0.0000   0.0000   0.0000
     0.0000   0.0000   0.0000   0.0000   0.0000   0.0000   0.0000   0.0000
     0.0000   0.0000   0.0000   0.0000   0.0000   0.0000   0.0000

     the Fermi energy is    -0.1202 ev

!    total energy              =    -756.41596459 Ry
     Harris-Foulkes estimate   =    -756.41596458 Ry
     estimated scf accuracy    <          5.7E-11 Ry

     The total energy is the sum of the following terms:

     one-electron contribution =   -2516.63910923 Ry
     hartree contribution      =    1304.71790735 Ry
     xc contribution           =    -249.41418385 Ry
     ewald contribution        =     704.91942113 Ry
     smearing contrib. (-TS)   =       0.00000000 Ry

     total magnetization       =     1.00 Bohr mag/cell
     absolute magnetization    =     1.59 Bohr mag/cell

     convergence has been achieved in  27 iterations

     negative rho (up, down):  1.440E-03 1.611E-02

     Forces acting on atoms (cartesian axes, Ry/au):

     atom    1 type  1   force =    -0.00205854    0.00200465    0.00328715
     atom    2 type  1   force =     0.00251472   -0.00066363    0.01155304
     atom    3 type  2   force =    -0.00144882   -0.00190104    0.00065565
     atom    4 type  2   force =    -0.00058484   -0.00275036   -0.00123048
     atom    5 type  2   force =    -0.00035493    0.00118983   -0.00000731
     atom    6 type  2   force =    -0.00005725   -0.00042429   -0.00302221
     atom    7 type  2   force =     0.00141536    0.00004880    0.00014446
     atom    8 type  2   force =    -0.00383236    0.00027406   -0.00104629
     atom    9 type  2   force =     0.00027415   -0.00075593    0.00057713
     atom   10 type  2   force =    -0.00012972    0.00078849    0.00226484
     atom   11 type  2   force =    -0.00039196   -0.00205125    0.00111267
     atom   12 type  2   force =     0.00057906    0.00149871    0.00278104
     atom   13 type  2   force =    -0.00027483   -0.00238007    0.00181695
     atom   14 type  2   force =     0.00073911    0.00017721   -0.00528531
     atom   15 type  2   force =    -0.00109570   -0.00073419   -0.00431019
     atom   16 type  2   force =     0.00409003   -0.00017786   -0.00362669
     atom   17 type  2   force =    -0.00033388    0.00022031   -0.00360447
     atom   18 type  2   force =     0.00105121    0.00286144   -0.00109510
     atom   19 type  2   force =    -0.00009043   -0.00109279   -0.00373691
     atom   20 type  2   force =    -0.00053432    0.00209686   -0.00453497
     atom   21 type  2   force =    -0.00009384   -0.00204378    0.00161406
     atom   22 type  2   force =     0.00001519    0.00206516    0.00318789
     atom   23 type  2   force =     0.00079524   -0.00256154    0.00169529
     atom   24 type  2   force =     0.00128484   -0.00184675   -0.00146344
     atom   25 type  2   force =     0.00189905   -0.00190921   -0.00629498
     atom   26 type  2   force =    -0.00027081   -0.00134690   -0.00595432
     atom   27 type  2   force =     0.00066002   -0.00236006    0.00578988
     atom   28 type  3   force =    -0.00970624   -0.00324683    0.01750180
     atom   29 type  2   force =    -0.00218898    0.00188784    0.00703207
     atom   30 type  2   force =    -0.00176024    0.00131044   -0.00361543
     atom   31 type  2   force =     0.00058508   -0.00046509   -0.00576813
     atom   32 type  2   force =    -0.00263999    0.00681698   -0.00155188
     atom   33 type  2   force =     0.00143248   -0.00127593   -0.00096380
     atom   34 type  2   force =    -0.00088781    0.00068449    0.00284819
     atom   35 type  2   force =     0.00156601    0.00016139   -0.00065509
     atom   36 type  2   force =     0.00093075   -0.00051148   -0.00510683
     atom   37 type  2   force =     0.00223711   -0.00024047   -0.00483888
     atom   38 type  2   force =    -0.00074410    0.00110826    0.00159613
     atom   39 type  2   force =    -0.00075220   -0.00080140    0.02230374
     atom   40 type  2   force =     0.00096892   -0.00252925    0.00203310
     atom   41 type  2   force =     0.00049048    0.00079403   -0.00531276
     atom   42 type  2   force =     0.00034657    0.00436570   -0.00562344
     atom   43 type  2   force =    -0.00120236   -0.00123522   -0.00104395
     atom   44 type  2   force =     0.00188993    0.00035684    0.00280472
     atom   45 type  2   force =     0.00069802    0.00082417    0.00382877
     atom   46 type  2   force =     0.00022865    0.00091118    0.00289646
     atom   47 type  2   force =     0.00035395   -0.00037638   -0.00064906
     atom   48 type  2   force =     0.00379269   -0.00018960   -0.00231335
     atom   49 type  2   force =    -0.00117496   -0.00140426   -0.00514435
     atom   50 type  2   force =     0.00110111    0.00140591   -0.00447156
     atom   51 type  2   force =    -0.00219659   -0.00279169   -0.00459316
     atom   52 type  2   force =     0.00286601    0.00621453   -0.00246068
     The non-local contrib.  to forces
     atom    1 type  1   force =    -0.10826948   -0.03157228   -0.01413041
     atom    2 type  1   force =     0.10549616    0.02716851   -0.02812668
     atom    3 type  2   force =     0.00699659   -0.00455119    0.00354862
     atom    4 type  2   force =     0.00024054    0.00629224   -0.00108925
     atom    5 type  2   force =     0.01378964    0.00732104    0.00787563
     atom    6 type  2   force =     0.00516282    0.00190293   -0.00115007
     atom    7 type  2   force =     0.01326072    0.00835480    0.00621577
     atom    8 type  2   force =     0.00318738   -0.00112886   -0.00219721
     atom    9 type  2   force =     0.00162870    0.00633899    0.00464997
     atom   10 type  2   force =     0.00216824    0.00201749    0.00508029
     atom   11 type  2   force =     0.00840382    0.00084795    0.00098744
     atom   12 type  2   force =     0.00242739    0.00315632    0.00712330
     atom   13 type  2   force =    -0.00458379   -0.00125787    0.00218149
     atom   14 type  2   force =     0.00415667    0.01025322    0.00339831
     atom   15 type  2   force =     0.02036203    0.00529918   -0.00115303
     atom   16 type  2   force =     0.00817085    0.05494685    0.06467149
     atom   17 type  2   force =     0.02788497    0.01900066    0.02871643
     atom   18 type  2   force =     0.04827136   -0.02171744    0.07736340
     atom   19 type  2   force =     0.01720856    0.00876134   -0.00419944
     atom   20 type  2   force =     0.00819371    0.00134495   -0.00022388
     atom   21 type  2   force =    -0.00281830   -0.00724054    0.00182650
     atom   22 type  2   force =    -0.00089758    0.00149021    0.01061600
     atom   23 type  2   force =    -0.00666118   -0.00583843    0.00119768
     atom   24 type  2   force =     0.00430022    0.00742250    0.00087831
     atom   25 type  2   force =    -0.02618701   -0.01279533    0.00415295
     atom   26 type  2   force =    -0.01084468    0.03282975    0.01788347
     atom   27 type  2   force =    -0.02436774   -0.34566778    0.00210146
     atom   28 type  3   force =    -0.07718472   -0.06100013    0.03191778
     atom   29 type  2   force =    -0.30444877    0.12660168   -0.02048490
     atom   30 type  2   force =     0.01498223   -0.01832329    0.01015773
     atom   31 type  2   force =    -0.02435420   -0.01605808    0.00526866
     atom   32 type  2   force =     0.00609443    0.00555107    0.00105550
     atom   33 type  2   force =    -0.00191607   -0.01278840    0.00782184
     atom   34 type  2   force =    -0.01497250   -0.00688126    0.00262404
     atom   35 type  2   force =    -0.01108429    0.00412001    0.00923473
     atom   36 type  2   force =     0.01171456   -0.00948462   -0.00162667
     atom   37 type  2   force =    -0.00774080   -0.00152410   -0.01611718
     atom   38 type  2   force =    -0.00922889   -0.03048608    0.03977942
     atom   39 type  2   force =     0.26995262    0.14042232   -0.07910000
     atom   40 type  2   force =    -0.02337465    0.00683374    0.02496482
     atom   41 type  2   force =    -0.00606998   -0.00112717   -0.02909501
     atom   42 type  2   force =    -0.00157431    0.02291965   -0.00078937
     atom   43 type  2   force =    -0.00009627   -0.01079657    0.00450927
     atom   44 type  2   force =     0.01647730   -0.00595196    0.00244015
     atom   45 type  2   force =     0.00093453    0.00087070    0.00946229
     atom   46 type  2   force =     0.00182701    0.01761101    0.00209723
     atom   47 type  2   force =    -0.00831086    0.00455907    0.00489714
     atom   48 type  2   force =     0.00549487   -0.00130744   -0.00364789
     atom   49 type  2   force =     0.00168274    0.01028559    0.00277776
     atom   50 type  2   force =     0.00040437    0.00113441   -0.00983720
     atom   51 type  2   force =     0.01475641   -0.00508961    0.00504889
     atom   52 type  2   force =     0.00081938    0.00890425   -0.00245871
     The ionic contribution  to forces
     atom    1 type  1   force =     1.27127853    0.42797858    3.81213812
     atom    2 type  1   force =    -1.08066457   -0.22174316    3.94275486
     atom    3 type  2   force =     0.04936710   -0.13536547    0.19026210
     atom    4 type  2   force =    -0.39137065   -0.40391609    0.26650452
     atom    5 type  2   force =    -0.34156543   -0.24582101    0.10992373
     atom    6 type  2   force =    -0.76960244   -0.40469476    0.08040549
     atom    7 type  2   force =    -0.39100729   -0.13438626    0.10542648
     atom    8 type  2   force =    -0.52147694   -0.08832693    0.17941900
     atom    9 type  2   force =    -0.05704238    0.07753474    0.12377676
     atom   10 type  2   force =    -0.03995981    0.07804094   -0.02584946
     atom   11 type  2   force =     0.21566415    0.09045754    0.04553241
     atom   12 type  2   force =     0.05244796   -0.09386032   -0.03116219
     atom   13 type  2   force =    -0.02331541   -0.38787454    0.05758359
     atom   14 type  2   force =     0.03547303   -0.73500824    0.01404383
     atom   15 type  2   force =    -0.32811785   -1.12406395   -0.13415033
     atom   16 type  2   force =    -1.48918295   -1.89483045   -2.46668724
     atom   17 type  2   force =    -1.61004529   -0.83145715   -1.37584677
     atom   18 type  2   force =    -2.34774131   -0.19825270   -2.25823131
     atom   19 type  2   force =    -1.06610695    0.24694611   -0.12984711
     atom   20 type  2   force =    -0.59663500    0.37050758   -0.01162144
     atom   21 type  2   force =    -0.30399634    0.11522357    0.03314820
     atom   22 type  2   force =    -0.08725689   -0.06995278   -0.06043634
     atom   23 type  2   force =    -0.11075667   -0.10073408    0.26649483
     atom   24 type  2   force =     0.38617158   -0.33082079    0.30159513
     atom   25 type  2   force =     0.28569992   -1.11279265   -0.30007059
     atom   26 type  2   force =     1.53216810   -1.46212403   -2.54586393
     atom   27 type  2   force =     0.47417017   -2.22097892   -7.45286877
     atom   28 type  3   force =     0.39295807    0.18559321   27.42982939
     atom   29 type  2   force =    -1.69326994    1.70718367   -6.37435423
     atom   30 type  2   force =    -0.49237582    1.89682879   -2.41554137
     atom   31 type  2   force =    -0.79327870    0.71926587   -0.42758789
     atom   32 type  2   force =    -0.09421288    0.46284731    0.21948957
     atom   33 type  2   force =    -0.00290507    0.33861705    0.11426917
     atom   34 type  2   force =     0.13395952    0.08036662    0.00020046
     atom   35 type  2   force =     0.32378556   -0.17670901    0.12849337
     atom   36 type  2   force =     0.73624105   -0.32905288    0.05774711
     atom   37 type  2   force =     1.33440807   -0.48938930   -1.23237191
     atom   38 type  2   force =     1.84200317   -0.17877765   -2.09583071
     atom   39 type  2   force =     1.85225682    1.24241861   -4.05800054
     atom   40 type  2   force =     0.65953975    1.62708237   -2.14092347
     atom   41 type  2   force =     0.17027822    1.27412328   -1.19502699
     atom   42 type  2   force =     0.05176121    0.79978603    0.01922708
     atom   43 type  2   force =     0.04120076    0.31067661    0.11671622
     atom   44 type  2   force =    -0.12076469    0.03987820   -0.00251694
     atom   45 type  2   force =    -0.00414231    0.00633310   -0.20859530
     atom   46 type  2   force =    -0.02754843   -0.09120721   -0.00401014
     atom   47 type  2   force =     0.31672429   -0.11075747    0.12549308
     atom   48 type  2   force =     0.39648568   -0.04876057    0.09078912
     atom   49 type  2   force =     0.90509620    0.23856616   -0.41263764
     atom   50 type  2   force =     0.52525974    0.29377165   -0.02652000
     atom   51 type  2   force =     0.67548457    0.62485185   -0.53165527
     atom   52 type  2   force =     0.12445881    0.36677895    0.08694424
     The local contribution  to forces
     atom    1 type  1   force =    -1.16506979   -0.39440361   -3.79474217
     atom    2 type  1   force =     0.97768074    0.19390898   -3.90309698
     atom    3 type  2   force =    -0.05751793    0.13776599   -0.19297867
     atom    4 type  2   force =     0.39014084    0.39509154   -0.26646860
     atom    5 type  2   force =     0.32779611    0.23990753   -0.11756910
     atom    6 type  2   force =     0.76438539    0.40236136   -0.08201829
     atom    7 type  2   force =     0.37950551    0.12629043   -0.11128337
     atom    8 type  2   force =     0.51440222    0.08941360   -0.17814657
     atom    9 type  2   force =     0.05569334   -0.08440032   -0.12767078
     atom   10 type  2   force =     0.03771204   -0.07925626    0.02312988
     atom   11 type  2   force =    -0.22423357   -0.09334416   -0.04529434
     atom   12 type  2   force =    -0.05429269    0.09232934    0.02693852
     atom   13 type  2   force =     0.02752009    0.38648541   -0.05781353
     atom   14 type  2   force =    -0.03869306    0.72556905   -0.02249917
     atom   15 type  2   force =     0.30736275    1.11793131    0.13118138
     atom   16 type  2   force =     1.48438463    1.84118302    2.39926991
     atom   17 type  2   force =     1.58272757    0.81332131    1.34396118
     atom   18 type  2   force =     2.30136856    0.22155950    2.18084139
     atom   19 type  2   force =     1.04921472   -0.25641684    0.13043152
     atom   20 type  2   force =     0.58844397   -0.36980020    0.00746114
     atom   21 type  2   force =     0.30651555   -0.11013115   -0.03324361
     atom   22 type  2   force =     0.08823940    0.07062810    0.05316078
     atom   23 type  2   force =     0.11777668    0.10368571   -0.26586138
     atom   24 type  2   force =    -0.38866332    0.32184559   -0.30367773
     atom   25 type  2   force =    -0.25864490    1.12298624    0.28980260
     atom   26 type  2   force =    -1.52084182    1.42912931    2.52192602
     atom   27 type  2   force =    -0.44946177    2.56018379    7.45273332
     atom   28 type  3   force =    -0.32272371   -0.12396466  -27.47513006
     atom   29 type  2   force =     1.99198372   -1.83064112    6.39826945
     atom   30 type  2   force =     0.47682150   -1.87695508    2.40145115
     atom   31 type  2   force =     0.81711118   -0.70425865    0.41666438
     atom   32 type  2   force =     0.08592164   -0.46115622   -0.22184566
     atom   33 type  2   force =     0.00621457   -0.32751975   -0.12278266
     atom   34 type  2   force =    -0.12002747   -0.07283101    0.00010183
     atom   35 type  2   force =    -0.31148647    0.17292612   -0.13809747
     atom   36 type  2   force =    -0.74653799    0.33772980   -0.06100406
     atom   37 type  2   force =    -1.32504493    0.49117248    1.24323323
     atom   38 type  2   force =    -1.83371318    0.20890607    2.05775315
     atom   39 type  2   force =    -2.12043265   -1.38244904    4.15626412
     atom   40 type  2   force =    -0.63643885   -1.63585971    2.11776503
     atom   41 type  2   force =    -0.16365175   -1.27296436    1.21814374
     atom   42 type  2   force =    -0.04985211   -0.81750531   -0.02385712
     atom   43 type  2   force =    -0.04233495   -0.30143004   -0.12204016
     atom   44 type  2   force =     0.10638320   -0.03360849    0.00295818
     atom   45 type  2   force =     0.00392765   -0.00635405    0.20300541
     atom   46 type  2   force =     0.02597479    0.07475555    0.00487796
     atom   47 type  2   force =    -0.30830630    0.10591350   -0.13080952
     atom   48 type  2   force =    -0.39802385    0.04965728   -0.08936702
     atom   49 type  2   force =    -0.90794349   -0.24976946    0.40472918
     atom   50 type  2   force =    -0.52481826   -0.29361392    0.03186193
     atom   51 type  2   force =    -0.69180195   -0.62286379    0.52201877
     atom   52 type  2   force =    -0.12260219   -0.36909560   -0.08682416
     The core correction contribution to forces
     atom    1 type  1   force =     0.00000000    0.00000000    0.00000000
     atom    2 type  1   force =     0.00000000    0.00000000    0.00000000
     atom    3 type  2   force =    -0.00029584    0.00024899   -0.00019812
     atom    4 type  2   force =     0.00040323   -0.00021867   -0.00019894
     atom    5 type  2   force =    -0.00037618   -0.00021851   -0.00025933
     atom    6 type  2   force =    -0.00000389    0.00000501   -0.00028119
     atom    7 type  2   force =    -0.00034438   -0.00021160   -0.00023620
     atom    8 type  2   force =     0.00005411    0.00031436   -0.00014327
     atom    9 type  2   force =    -0.00000642   -0.00023134   -0.00020054
     atom   10 type  2   force =    -0.00005140   -0.00001563   -0.00011753
     atom   11 type  2   force =    -0.00022756   -0.00001407   -0.00013451
     atom   12 type  2   force =    -0.00000505   -0.00012767   -0.00014026
     atom   13 type  2   force =     0.00010219    0.00026577   -0.00015632
     atom   14 type  2   force =    -0.00020016   -0.00063788   -0.00025008
     atom   15 type  2   force =    -0.00070464    0.00009852   -0.00021000
     atom   16 type  2   force =     0.00071541   -0.00147871   -0.00090251
     atom   17 type  2   force =    -0.00090237   -0.00064617   -0.00045700
     atom   18 type  2   force =    -0.00084941    0.00126934   -0.00109023
     atom   19 type  2   force =    -0.00040829   -0.00038593   -0.00014358
     atom   20 type  2   force =    -0.00053910    0.00004167   -0.00017250
     atom   21 type  2   force =     0.00020353    0.00010211   -0.00013871
     atom   22 type  2   force =    -0.00007215   -0.00010226   -0.00017422
     atom   23 type  2   force =     0.00043336    0.00032325   -0.00015755
     atom   24 type  2   force =    -0.00052708   -0.00029579   -0.00028093
     atom   25 type  2   force =     0.00102770    0.00069098   -0.00020175
     atom   26 type  2   force =    -0.00075650   -0.00118418    0.00007822
     atom   27 type  2   force =     0.00031589    0.00409985    0.00380195
     atom   28 type  3   force =    -0.00276480   -0.00388291    0.03086122
     atom   29 type  2   force =     0.00354216   -0.00125942    0.00357984
     atom   30 type  2   force =    -0.00119166   -0.00024340    0.00029520
     atom   31 type  2   force =     0.00110391    0.00058283   -0.00013501
     atom   32 type  2   force =    -0.00044624   -0.00042786   -0.00027304
     atom   33 type  2   force =     0.00003612    0.00041296   -0.00029390
     atom   34 type  2   force =     0.00015005    0.00002840   -0.00009980
     atom   35 type  2   force =     0.00034807   -0.00017773   -0.00030744
     atom   36 type  2   force =    -0.00048965    0.00029400   -0.00024497
     atom   37 type  2   force =     0.00061118   -0.00050246    0.00039518
     atom   38 type  2   force =     0.00019219    0.00146282   -0.00012760
     atom   39 type  2   force =    -0.00253211   -0.00119620    0.00311815
     atom   40 type  2   force =     0.00123983   -0.00058790    0.00020491
     atom   41 type  2   force =    -0.00006946    0.00075957    0.00064366
     atom   42 type  2   force =     0.00000909   -0.00083665   -0.00022579
     atom   43 type  2   force =     0.00002622    0.00031343   -0.00025103
     atom   44 type  2   force =    -0.00020716    0.00003815   -0.00009834
     atom   45 type  2   force =    -0.00002359   -0.00002696   -0.00006529
     atom   46 type  2   force =    -0.00002598   -0.00024959   -0.00009028
     atom   47 type  2   force =     0.00024497   -0.00009338   -0.00025144
     atom   48 type  2   force =    -0.00016534    0.00021912   -0.00010928
     atom   49 type  2   force =    -0.00001202   -0.00048871   -0.00003535
     atom   50 type  2   force =     0.00025374    0.00011191    0.00000194
     atom   51 type  2   force =    -0.00063740    0.00030816   -0.00002728
     atom   52 type  2   force =     0.00018853   -0.00037424   -0.00014376
     The Hubbard contrib.    to forces
     atom    1 type  1   force =     0.00000000    0.00000000    0.00000000
     atom    2 type  1   force =     0.00000000    0.00000000    0.00000000
     atom    3 type  2   force =     0.00000000    0.00000000    0.00000000
     atom    4 type  2   force =     0.00000000    0.00000000    0.00000000
     atom    5 type  2   force =     0.00000000    0.00000000    0.00000000
     atom    6 type  2   force =     0.00000000    0.00000000    0.00000000
     atom    7 type  2   force =     0.00000000    0.00000000    0.00000000
     atom    8 type  2   force =     0.00000000    0.00000000    0.00000000
     atom    9 type  2   force =     0.00000000    0.00000000    0.00000000
     atom   10 type  2   force =     0.00000000    0.00000000    0.00000000
     atom   11 type  2   force =     0.00000000    0.00000000    0.00000000
     atom   12 type  2   force =     0.00000000    0.00000000    0.00000000
     atom   13 type  2   force =     0.00000000    0.00000000    0.00000000
     atom   14 type  2   force =     0.00000000    0.00000000    0.00000000
     atom   15 type  2   force =     0.00000000    0.00000000    0.00000000
     atom   16 type  2   force =     0.00000000    0.00000000    0.00000000
     atom   17 type  2   force =     0.00000000    0.00000000    0.00000000
     atom   18 type  2   force =     0.00000000    0.00000000    0.00000000
     atom   19 type  2   force =     0.00000000    0.00000000    0.00000000
     atom   20 type  2   force =     0.00000000    0.00000000    0.00000000
     atom   21 type  2   force =     0.00000000    0.00000000    0.00000000
     atom   22 type  2   force =     0.00000000    0.00000000    0.00000000
     atom   23 type  2   force =     0.00000000    0.00000000    0.00000000
     atom   24 type  2   force =     0.00000000    0.00000000    0.00000000
     atom   25 type  2   force =     0.00000000    0.00000000    0.00000000
     atom   26 type  2   force =     0.00000000    0.00000000    0.00000000
     atom   27 type  2   force =     0.00000000    0.00000000    0.00000000
     atom   28 type  3   force =     0.00000000    0.00000000    0.00000000
     atom   29 type  2   force =     0.00000000    0.00000000    0.00000000
     atom   30 type  2   force =     0.00000000    0.00000000    0.00000000
     atom   31 type  2   force =     0.00000000    0.00000000    0.00000000
     atom   32 type  2   force =     0.00000000    0.00000000    0.00000000
     atom   33 type  2   force =     0.00000000    0.00000000    0.00000000
     atom   34 type  2   force =     0.00000000    0.00000000    0.00000000
     atom   35 type  2   force =     0.00000000    0.00000000    0.00000000
     atom   36 type  2   force =     0.00000000    0.00000000    0.00000000
     atom   37 type  2   force =     0.00000000    0.00000000    0.00000000
     atom   38 type  2   force =     0.00000000    0.00000000    0.00000000
     atom   39 type  2   force =     0.00000000    0.00000000    0.00000000
     atom   40 type  2   force =     0.00000000    0.00000000    0.00000000
     atom   41 type  2   force =     0.00000000    0.00000000    0.00000000
     atom   42 type  2   force =     0.00000000    0.00000000    0.00000000
     atom   43 type  2   force =     0.00000000    0.00000000    0.00000000
     atom   44 type  2   force =     0.00000000    0.00000000    0.00000000
     atom   45 type  2   force =     0.00000000    0.00000000    0.00000000
     atom   46 type  2   force =     0.00000000    0.00000000    0.00000000
     atom   47 type  2   force =     0.00000000    0.00000000    0.00000000
     atom   48 type  2   force =     0.00000000    0.00000000    0.00000000
     atom   49 type  2   force =     0.00000000    0.00000000    0.00000000
     atom   50 type  2   force =     0.00000000    0.00000000    0.00000000
     atom   51 type  2   force =     0.00000000    0.00000000    0.00000000
     atom   52 type  2   force =     0.00000000    0.00000000    0.00000000
     The SCF correction term to forces
     atom    1 type  1   force =    -0.00000002   -0.00000002   -0.00000007
     atom    2 type  1   force =     0.00000017    0.00000008    0.00000015
     atom    3 type  2   force =    -0.00000098   -0.00000133    0.00000005
     atom    4 type  2   force =    -0.00000103   -0.00000134    0.00000011
     atom    5 type  2   force =    -0.00000129   -0.00000119    0.00000007
     atom    6 type  2   force =    -0.00000135   -0.00000080    0.00000017
     atom    7 type  2   force =    -0.00000143   -0.00000053    0.00000009
     atom    8 type  2   force =    -0.00000136   -0.00000008    0.00000009
     atom    9 type  2   force =    -0.00000131    0.00000002    0.00000004
     atom   10 type  2   force =    -0.00000102   -0.00000001   -0.00000000
     atom   11 type  2   force =    -0.00000102   -0.00000049    0.00000001
     atom   12 type  2   force =    -0.00000078   -0.00000092   -0.00000001
     atom   13 type  2   force =    -0.00000014   -0.00000080    0.00000004
     atom   14 type  2   force =     0.00000040   -0.00000091    0.00000013
     atom   15 type  2   force =    -0.00000021   -0.00000122    0.00000012
     atom   16 type  2   force =    -0.00000013   -0.00000052   -0.00000002
     atom   17 type  2   force =    -0.00000098   -0.00000030    0.00000001
     atom   18 type  2   force =    -0.00000021    0.00000077   -0.00000004
     atom   19 type  2   force =    -0.00000070    0.00000056    0.00000002
     atom   20 type  2   force =    -0.00000012    0.00000089    0.00000004
     atom   21 type  2   force =    -0.00000052    0.00000026    0.00000001
     atom   22 type  2   force =     0.00000018   -0.00000008   -0.00000000
     atom   23 type  2   force =     0.00000083    0.00000004    0.00000004
     atom   24 type  2   force =     0.00000121   -0.00000023    0.00000010
     atom   25 type  2   force =     0.00000112   -0.00000041    0.00000012
     atom   26 type  2   force =     0.00000187    0.00000029    0.00000022
     atom   27 type  2   force =     0.00000124    0.00000105    0.00000024
     atom   28 type  3   force =     0.00000669    0.00000569    0.00000178
     atom   29 type  2   force =     0.00000162    0.00000106    0.00000022
     atom   30 type  2   force =     0.00000129    0.00000144    0.00000017
     atom   31 type  2   force =     0.00000065    0.00000097    0.00000004
     atom   32 type  2   force =     0.00000083    0.00000071    0.00000006
     atom   33 type  2   force =     0.00000070    0.00000023    0.00000005
     atom   34 type  2   force =     0.00000037   -0.00000023   -0.00000002
     atom   35 type  2   force =     0.00000092    0.00000003    0.00000003
     atom   36 type  2   force =     0.00000057    0.00000025    0.00000007
     atom   37 type  2   force =     0.00000137    0.00000093    0.00000012
     atom   38 type  2   force =     0.00000038    0.00000112    0.00000018
     atom   39 type  2   force =     0.00000090    0.00000094    0.00000033
     atom   40 type  2   force =     0.00000061    0.00000028    0.00000012
     atom   41 type  2   force =     0.00000122    0.00000076    0.00000015
     atom   42 type  2   force =     0.00000047    0.00000002    0.00000008
     atom   43 type  2   force =    -0.00000035   -0.00000062    0.00000007
     atom   44 type  2   force =    -0.00000095   -0.00000104   -0.00000001
     atom   45 type  2   force =    -0.00000048   -0.00000059   -0.00000002
     atom   46 type  2   force =    -0.00000098   -0.00000054    0.00000001
     atom   47 type  2   force =    -0.00000037   -0.00000006    0.00000001
     atom   48 type  2   force =    -0.00000089    0.00000005    0.00000004
     atom   49 type  2   force =    -0.00000061    0.00000019    0.00000002
     atom   50 type  2   force =    -0.00000071   -0.00000011    0.00000009
     atom   51 type  2   force =    -0.00000044   -0.00000026    0.00000005
     atom   52 type  2   force =    -0.00000075   -0.00000079    0.00000003

     Total force =     0.044548     Total SCF correction =     0.000012

     BFGS Geometry Optimization

     number of scf cycles    =   1
     number of bfgs steps    =   0

     energy   new            =    -756.4159645929 Ry

     new trust radius        =       0.0223308007 bohr
     new conv_thr            =            1.0E-10 Ry


ATOMIC_POSITIONS (angstrom)
H        2.850212576   5.807570120   2.719447638
H        2.084133210   5.592989241   2.769707923
C        0.001676020  -0.002007614   0.032333391
C       -0.006096938   1.412702505   0.033529025
C       -1.233681979   2.135628991   0.028032906
C       -1.232257978   3.559305123   0.015952514
C       -2.465322258   4.271044862   0.027789589
C       -2.472965830   5.695288264   0.029411089
C       -3.697045424   6.408304088   0.028621236
C       -3.697500598   7.830612017   0.020172442
C       -4.927855636   8.541558520   0.019414381
C       -4.929502243   9.963096750   0.020770470
C        2.467099869  -0.007147416   0.022058189
C        2.467175331   1.408929236   0.006863319
C        1.224378461   2.105016064  -0.005863530
C        1.225473788   3.519247237  -0.114465167
C       -0.002262894   4.266145637  -0.061606698
C       -0.020254529   5.705041423  -0.093118142
C       -1.252254828   6.411863668  -0.001629527
C       -1.240078766   7.836704215   0.006125858
C       -2.467456864   8.543116948   0.020281583
C       -2.463533558   9.964219046   0.020167915
C        4.931039272  -0.001052423   0.037604845
C        4.943488276   1.411128042   0.031644883
C        3.716111890   2.103721765  -0.022253898
C        3.730378437   3.508458259  -0.135609316
C        2.482647512   4.136290712  -0.227057509
V        2.354687940   5.582842694   0.871255245
C        1.148557791   6.489255462  -0.167953409
C        1.212771146   7.885000593  -0.124300605
C       -0.013498123   8.570210101  -0.028354349
C       -0.003688521   9.982444817   0.025293489
C        7.396323900   0.011274124   0.022308403
C        7.401643156   1.429874199   0.021077047
C        6.170797544   2.132744219   0.025414021
C        6.171171992   3.556890508   0.008070467
C        4.946971080   4.259840030  -0.068052459
C        4.953550871   5.698115173  -0.086835223
C        3.766067540   6.456124329  -0.051747664
C        3.713586724   7.859332053  -0.094157156
C        2.466266059   8.568860498  -0.069509028
C        2.467339299   9.978825266   0.003209710
C        9.865454871   0.010379529   0.021629091
C        9.861992466   1.430138100   0.021638988
C        8.631497109   2.139322374   0.010584280
C        8.632111803   3.559269077   0.022272054
C        7.403522074   4.271384491   0.024377015
C        7.404866559   5.693782688   0.018973578
C        6.180253522   6.408408665  -0.021590309
C        6.170564934   7.834626738   0.001956252
C        4.942145313   8.558522008  -0.030466103
C        4.934760832   9.975993215   0.016581256



     Writing output data file vanadio-top-2.1.save/
     NEW-OLD atomic charge density approx. for the potential

     Check: negative core charge=   -0.000002

     negative rho (up, down):  1.097E-03 7.825E-03

     total cpu time spent up to now is     3303.0 secs

     Self-consistent Calculation

     iteration #  1     ecut=    70.00 Ry     beta= 0.30
     Davidson diagonalization with overlap
     ethr =  1.00E-06,  avg # of iterations =  7.0

     negative rho (up, down):  1.200E-03 1.905E-01

     total cpu time spent up to now is     3480.7 secs

     total energy              =    -756.41747317 Ry
     Harris-Foulkes estimate   =    -756.41766186 Ry
     estimated scf accuracy    <       0.00041800 Ry

     total magnetization       =     1.00 Bohr mag/cell
     absolute magnetization    =     1.59 Bohr mag/cell

     iteration #  2     ecut=    70.00 Ry     beta= 0.30
     Davidson diagonalization with overlap
     ethr =  1.98E-07,  avg # of iterations =  2.5

     negative rho (up, down):  1.368E-03 1.584E-01

     total cpu time spent up to now is     3580.7 secs

     total energy              =    -756.41752890 Ry
     Harris-Foulkes estimate   =    -756.41750243 Ry
     estimated scf accuracy    <       0.00012682 Ry

     total magnetization       =     1.00 Bohr mag/cell
     absolute magnetization    =     1.59 Bohr mag/cell

     iteration #  3     ecut=    70.00 Ry     beta= 0.30
     Davidson diagonalization with overlap
     ethr =  6.01E-08,  avg # of iterations =  2.0

     negative rho (up, down):  1.438E-03 1.286E-01

     total cpu time spent up to now is     3682.1 secs

     total energy              =    -756.41756224 Ry
     Harris-Foulkes estimate   =    -756.41754477 Ry
     estimated scf accuracy    <       0.00005986 Ry

     total magnetization       =     1.00 Bohr mag/cell
     absolute magnetization    =     1.59 Bohr mag/cell

     iteration #  4     ecut=    70.00 Ry     beta= 0.30
     Davidson diagonalization with overlap
     ethr =  2.84E-08,  avg # of iterations =  3.0

     negative rho (up, down):  1.460E-03 1.019E-01

     total cpu time spent up to now is     3784.4 secs

     total energy              =    -756.41758460 Ry
     Harris-Foulkes estimate   =    -756.41757388 Ry
     estimated scf accuracy    <       0.00004214 Ry

     total magnetization       =     1.00 Bohr mag/cell
     absolute magnetization    =     1.59 Bohr mag/cell

     iteration #  5     ecut=    70.00 Ry     beta= 0.30
     Davidson diagonalization with overlap
     ethr =  2.00E-08,  avg # of iterations =  3.0

     negative rho (up, down):  1.586E-03 8.203E-02

     total cpu time spent up to now is     3884.8 secs

     total energy              =    -756.41759753 Ry
     Harris-Foulkes estimate   =    -756.41758872 Ry
     estimated scf accuracy    <       0.00000567 Ry

     total magnetization       =     1.00 Bohr mag/cell
     absolute magnetization    =     1.59 Bohr mag/cell

     iteration #  6     ecut=    70.00 Ry     beta= 0.30
     Davidson diagonalization with overlap
     ethr =  2.69E-09,  avg # of iterations =  3.0

     negative rho (up, down):  1.552E-03 6.446E-02

     total cpu time spent up to now is     3987.6 secs

     total energy              =    -756.41760557 Ry
     Harris-Foulkes estimate   =    -756.41759817 Ry
     estimated scf accuracy    <       0.00000058 Ry

     total magnetization       =     1.00 Bohr mag/cell
     absolute magnetization    =     1.59 Bohr mag/cell

     iteration #  7     ecut=    70.00 Ry     beta= 0.30
     Davidson diagonalization with overlap
     ethr =  2.73E-10,  avg # of iterations =  3.0

     negative rho (up, down):  1.540E-03 5.078E-02

     total cpu time spent up to now is     4095.0 secs

     total energy              =    -756.41761015 Ry
     Harris-Foulkes estimate   =    -756.41760565 Ry
     estimated scf accuracy    <       0.00000023 Ry

     total magnetization       =     1.00 Bohr mag/cell
     absolute magnetization    =     1.59 Bohr mag/cell

     iteration #  8     ecut=    70.00 Ry     beta= 0.30
     Davidson diagonalization with overlap
     ethr =  1.08E-10,  avg # of iterations =  2.5

     negative rho (up, down):  1.531E-03 4.028E-02

     total cpu time spent up to now is     4199.4 secs

     total energy              =    -756.41761299 Ry
     Harris-Foulkes estimate   =    -756.41761018 Ry
     estimated scf accuracy    <       0.00000006 Ry

     total magnetization       =     1.00 Bohr mag/cell
     absolute magnetization    =     1.59 Bohr mag/cell

     iteration #  9     ecut=    70.00 Ry     beta= 0.30
     Davidson diagonalization with overlap
     ethr =  3.06E-11,  avg # of iterations =  3.5

     negative rho (up, down):  1.522E-03 3.195E-02

     total cpu time spent up to now is     4307.4 secs

     total energy              =    -756.41761489 Ry
     Harris-Foulkes estimate   =    -756.41761300 Ry
     estimated scf accuracy    <       0.00000003 Ry

     total magnetization       =     1.00 Bohr mag/cell
     absolute magnetization    =     1.59 Bohr mag/cell

     iteration # 10     ecut=    70.00 Ry     beta= 0.30
     Davidson diagonalization with overlap
     ethr =  1.28E-11,  avg # of iterations =  3.0

     negative rho (up, down):  1.518E-03 2.608E-02

     total cpu time spent up to now is     4416.3 secs

     total energy              =    -756.41761615 Ry
     Harris-Foulkes estimate   =    -756.41761490 Ry
     estimated scf accuracy    <       0.00000002 Ry

     total magnetization       =     1.00 Bohr mag/cell
     absolute magnetization    =     1.59 Bohr mag/cell

     iteration # 11     ecut=    70.00 Ry     beta= 0.30
     Davidson diagonalization with overlap
     ethr =  9.85E-12,  avg # of iterations =  3.5

     negative rho (up, down):  1.516E-03 2.217E-02

     total cpu time spent up to now is     4521.8 secs

     total energy              =    -756.41761689 Ry
     Harris-Foulkes estimate   =    -756.41761615 Ry
     estimated scf accuracy    <       0.00000001 Ry

     total magnetization       =     1.00 Bohr mag/cell
     absolute magnetization    =     1.59 Bohr mag/cell

     iteration # 12     ecut=    70.00 Ry     beta= 0.30
     Davidson diagonalization with overlap
     ethr =  5.12E-12,  avg # of iterations =  3.0

     negative rho (up, down):  1.514E-03 1.944E-02

     total cpu time spent up to now is     4626.6 secs

     total energy              =    -756.41761739 Ry
     Harris-Foulkes estimate   =    -756.41761689 Ry
     estimated scf accuracy    <          5.6E-09 Ry

     total magnetization       =     1.00 Bohr mag/cell
     absolute magnetization    =     1.59 Bohr mag/cell

     iteration # 13     ecut=    70.00 Ry     beta= 0.30
     Davidson diagonalization with overlap
     ethr =  2.64E-12,  avg # of iterations =  3.5

     negative rho (up, down):  1.514E-03 1.788E-02

     total cpu time spent up to now is     4741.8 secs

     total energy              =    -756.41761768 Ry
     Harris-Foulkes estimate   =    -756.41761739 Ry
     estimated scf accuracy    <          1.5E-09 Ry

     total magnetization       =     1.00 Bohr mag/cell
     absolute magnetization    =     1.59 Bohr mag/cell

     iteration # 14     ecut=    70.00 Ry     beta= 0.30
     Davidson diagonalization with overlap
     ethr =  7.32E-13,  avg # of iterations =  3.5

     negative rho (up, down):  1.513E-03 1.694E-02

     total cpu time spent up to now is     4854.4 secs

     total energy              =    -756.41761784 Ry
     Harris-Foulkes estimate   =    -756.41761768 Ry
     estimated scf accuracy    <          6.3E-10 Ry

     total magnetization       =     1.00 Bohr mag/cell
     absolute magnetization    =     1.59 Bohr mag/cell

     iteration # 15     ecut=    70.00 Ry     beta= 0.30
     Davidson diagonalization with overlap
     ethr =  3.01E-13,  avg # of iterations =  3.5

     negative rho (up, down):  1.513E-03 1.650E-02

     total cpu time spent up to now is     4967.4 secs

     total energy              =    -756.41761793 Ry
     Harris-Foulkes estimate   =    -756.41761784 Ry
     estimated scf accuracy    <          2.1E-10 Ry

     total magnetization       =     1.00 Bohr mag/cell
     absolute magnetization    =     1.59 Bohr mag/cell

     iteration # 16     ecut=    70.00 Ry     beta= 0.30
     Davidson diagonalization with overlap
     ethr =  1.00E-13,  avg # of iterations =  3.5

     negative rho (up, down):  1.514E-03 1.598E-02

     Magnetic moment per site:
     atom:    1    charge:    0.2287    magn:    0.0033    constr:    0.0000
     atom:    2    charge:    0.2331    magn:    0.0031    constr:    0.0000
     atom:    3    charge:    1.6513    magn:   -0.0021    constr:    0.0000
     atom:    4    charge:    1.6500    magn:    0.0043    constr:    0.0000
     atom:    5    charge:    1.6433    magn:   -0.0027    constr:    0.0000
     atom:    6    charge:    1.6402    magn:    0.0034    constr:    0.0000
     atom:    7    charge:    1.6428    magn:   -0.0029    constr:    0.0000
     atom:    8    charge:    1.6473    magn:    0.0033    constr:    0.0000
[...]
     atom   32 type  2   force =     0.07526780   -0.34068122    1.12871289
     atom   33 type  2   force =    -0.01995495   -0.27032597    0.86970260
     atom   34 type  2   force =    -0.08049321   -0.04862806    0.84241675
     atom   35 type  2   force =    -0.24572485    0.11407639    0.91792405
     atom   36 type  2   force =    -0.50994378    0.26179155    0.74720487
     atom   37 type  2   force =    -0.99864987    0.38143834    0.40598709
     atom   38 type  2   force =    -1.39559166    0.19996562    0.17256545
     atom   39 type  2   force =    -2.29288930   -1.31249907   -0.27785108
     atom   40 type  2   force =    -0.53195031   -1.30826113    0.16954701
     atom   41 type  2   force =    -0.16619109   -1.05850346    0.39944412
     atom   42 type  2   force =    -0.02617047   -0.58239232    0.69657971
     atom   43 type  2   force =    -0.03447808   -0.26271862    0.56739613
     atom   44 type  2   force =     0.08697874   -0.01457826    0.59677972
     atom   45 type  2   force =     0.00559249    0.00203590    0.52090724
     atom   46 type  2   force =     0.03344528    0.07808839    0.63429123
     atom   47 type  2   force =    -0.24398302    0.10114190    0.61070190
     atom   48 type  2   force =    -0.27286554    0.01437438    0.71317235
     atom   49 type  2   force =    -0.70274714   -0.16728718    0.54469933
     atom   50 type  2   force =    -0.44925302   -0.25566147    0.34638335
     atom   51 type  2   force =    -0.50022974   -0.52543624    0.53507713
     atom   52 type  2   force =    -0.12438964   -0.24328003    0.71566523
     The core correction contribution to forces
     atom    1 type  1   force =     0.00000000    0.00000000    0.00000000
     atom    2 type  1   force =     0.00000000    0.00000000    0.00000000
     atom    3 type  2   force =    -0.00012995    0.00010597    0.00025612
     atom    4 type  2   force =     0.00016108   -0.00010023    0.00022828
     atom    5 type  2   force =    -0.00021015   -0.00019465    0.00016777
     atom    6 type  2   force =     0.00008412    0.00003255    0.00006676
     atom    7 type  2   force =    -0.00028284   -0.00008157    0.00016961
     atom    8 type  2   force =     0.00000155    0.00017396    0.00021362
     atom    9 type  2   force =     0.00001086   -0.00016381    0.00021400
     atom   10 type  2   force =    -0.00007896   -0.00003557    0.00034971
     atom   11 type  2   force =    -0.00015446   -0.00008867    0.00013036
     atom   12 type  2   force =    -0.00007993   -0.00004260    0.00037584
     atom   13 type  2   force =     0.00017059    0.00017231    0.00029988
     atom   14 type  2   force =    -0.00011122   -0.00041441    0.00035226
     atom   15 type  2   force =    -0.00044884    0.00008939    0.00007761
     atom   16 type  2   force =     0.00097640   -0.00069889   -0.00144356
     atom   17 type  2   force =    -0.00055604   -0.00033730   -0.00028843
     atom   18 type  2   force =    -0.00012226    0.00118321   -0.00144720
     atom   19 type  2   force =    -0.00016834   -0.00042322    0.00005561
     atom   20 type  2   force =    -0.00041563    0.00010455    0.00032801
     atom   21 type  2   force =     0.00022638    0.00006806    0.00030062
     atom   22 type  2   force =    -0.00003106   -0.00002171    0.00033910
     atom   23 type  2   force =     0.00027142    0.00016117    0.00038500
     atom   24 type  2   force =    -0.00026812   -0.00018569    0.00043495
     atom   25 type  2   force =     0.00071261    0.00051858    0.00025311
     atom   26 type  2   force =    -0.00078176   -0.00054817   -0.00018402
     atom   27 type  2   force =     0.00035050    0.00356599    0.00290874
     atom   28 type  3   force =    -0.00429948   -0.00236751    0.03454413
     atom   29 type  2   force =     0.00322438   -0.00142325    0.00297654
     atom   30 type  2   force =    -0.00088502   -0.00041643   -0.00015187
     atom   31 type  2   force =     0.00080939    0.00036404    0.00025221
     atom   32 type  2   force =    -0.00029468   -0.00015353    0.00042944
     atom   33 type  2   force =    -0.00007373    0.00024165    0.00034767
     atom   34 type  2   force =     0.00013928    0.00007109    0.00032851
     atom   35 type  2   force =     0.00015693   -0.00018968    0.00038423
     atom   36 type  2   force =    -0.00021661    0.00023972    0.00027490
     atom   37 type  2   force =     0.00020340   -0.00044169    0.00018250
     atom   38 type  2   force =     0.00010820    0.00104294   -0.00078083
     atom   39 type  2   force =    -0.00278799   -0.00159647    0.00219650
     atom   40 type  2   force =     0.00096393   -0.00042682   -0.00077810
     atom   41 type  2   force =    -0.00026053    0.00041379    0.00016896
     atom   42 type  2   force =     0.00010404   -0.00033106    0.00022654
     atom   43 type  2   force =     0.00000801    0.00012551    0.00022551
     atom   44 type  2   force =    -0.00011710    0.00008069    0.00010193
     atom   45 type  2   force =    -0.00003788   -0.00002103    0.00022934
     atom   46 type  2   force =     0.00002106   -0.00015172    0.00012564
     atom   47 type  2   force =     0.00010095   -0.00005134    0.00022768
     atom   48 type  2   force =     0.00001304    0.00005883    0.00036158
     atom   49 type  2   force =    -0.00014348   -0.00032042   -0.00005873
     atom   50 type  2   force =     0.00014273    0.00009016    0.00022111
     atom   51 type  2   force =    -0.00034861    0.00002879   -0.00006233
     atom   52 type  2   force =     0.00006020   -0.00002318    0.00035868
     The Hubbard contrib.    to forces
     atom    1 type  1   force =     0.00000000    0.00000000    0.00000000
     atom    2 type  1   force =     0.00000000    0.00000000    0.00000000
     atom    3 type  2   force =     0.00000000    0.00000000    0.00000000
     atom    4 type  2   force =     0.00000000    0.00000000    0.00000000
     atom    5 type  2   force =     0.00000000    0.00000000    0.00000000
     atom    6 type  2   force =     0.00000000    0.00000000    0.00000000
     atom    7 type  2   force =     0.00000000    0.00000000    0.00000000
     atom    8 type  2   force =     0.00000000    0.00000000    0.00000000
     atom    9 type  2   force =     0.00000000    0.00000000    0.00000000
     atom   10 type  2   force =     0.00000000    0.00000000    0.00000000
     atom   11 type  2   force =     0.00000000    0.00000000    0.00000000
     atom   12 type  2   force =     0.00000000    0.00000000    0.00000000
     atom   13 type  2   force =     0.00000000    0.00000000    0.00000000
     atom   14 type  2   force =     0.00000000    0.00000000    0.00000000
     atom   15 type  2   force =     0.00000000    0.00000000    0.00000000
     atom   16 type  2   force =     0.00000000    0.00000000    0.00000000
     atom   17 type  2   force =     0.00000000    0.00000000    0.00000000
     atom   18 type  2   force =     0.00000000    0.00000000    0.00000000
     atom   19 type  2   force =     0.00000000    0.00000000    0.00000000
     atom   20 type  2   force =     0.00000000    0.00000000    0.00000000
     atom   21 type  2   force =     0.00000000    0.00000000    0.00000000
     atom   22 type  2   force =     0.00000000    0.00000000    0.00000000
     atom   23 type  2   force =     0.00000000    0.00000000    0.00000000
     atom   24 type  2   force =     0.00000000    0.00000000    0.00000000
     atom   25 type  2   force =     0.00000000    0.00000000    0.00000000
     atom   26 type  2   force =     0.00000000    0.00000000    0.00000000
     atom   27 type  2   force =     0.00000000    0.00000000    0.00000000
     atom   28 type  3   force =     0.00000000    0.00000000    0.00000000
     atom   29 type  2   force =     0.00000000    0.00000000    0.00000000
     atom   30 type  2   force =     0.00000000    0.00000000    0.00000000
     atom   31 type  2   force =     0.00000000    0.00000000    0.00000000
     atom   32 type  2   force =     0.00000000    0.00000000    0.00000000
     atom   33 type  2   force =     0.00000000    0.00000000    0.00000000
     atom   34 type  2   force =     0.00000000    0.00000000    0.00000000
     atom   35 type  2   force =     0.00000000    0.00000000    0.00000000
     atom   36 type  2   force =     0.00000000    0.00000000    0.00000000
     atom   37 type  2   force =     0.00000000    0.00000000    0.00000000
     atom   38 type  2   force =     0.00000000    0.00000000    0.00000000
     atom   39 type  2   force =     0.00000000    0.00000000    0.00000000
     atom   40 type  2   force =     0.00000000    0.00000000    0.00000000
     atom   41 type  2   force =     0.00000000    0.00000000    0.00000000
     atom   42 type  2   force =     0.00000000    0.00000000    0.00000000
     atom   43 type  2   force =     0.00000000    0.00000000    0.00000000
     atom   44 type  2   force =     0.00000000    0.00000000    0.00000000
     atom   45 type  2   force =     0.00000000    0.00000000    0.00000000
     atom   46 type  2   force =     0.00000000    0.00000000    0.00000000
     atom   47 type  2   force =     0.00000000    0.00000000    0.00000000
     atom   48 type  2   force =     0.00000000    0.00000000    0.00000000
     atom   49 type  2   force =     0.00000000    0.00000000    0.00000000
     atom   50 type  2   force =     0.00000000    0.00000000    0.00000000
     atom   51 type  2   force =     0.00000000    0.00000000    0.00000000
     atom   52 type  2   force =     0.00000000    0.00000000    0.00000000
     The SCF correction term to forces
     atom    1 type  1   force =    -0.00000007   -0.00000001   -0.00000001
     atom    2 type  1   force =    -0.00000004    0.00000001   -0.00000001
     atom    3 type  2   force =     0.00000010    0.00000011   -0.00000002
     atom    4 type  2   force =     0.00000006    0.00000010   -0.00000000
     atom    5 type  2   force =     0.00000005    0.00000008   -0.00000001
     atom    6 type  2   force =     0.00000007    0.00000003    0.00000000
     atom    7 type  2   force =     0.00000006    0.00000000   -0.00000001
     atom    8 type  2   force =     0.00000005   -0.00000002    0.00000000
     atom    9 type  2   force =     0.00000011    0.00000000   -0.00000001
     atom   10 type  2   force =     0.00000009   -0.00000000   -0.00000001
     atom   11 type  2   force =     0.00000013    0.00000005   -0.00000001
     atom   12 type  2   force =     0.00000010    0.00000010   -0.00000001
     atom   13 type  2   force =     0.00000004    0.00000007    0.00000000
     atom   14 type  2   force =     0.00000001    0.00000003    0.00000002
     atom   15 type  2   force =     0.00000003    0.00000005    0.00000001
     atom   16 type  2   force =    -0.00000003   -0.00000002   -0.00000001
     atom   17 type  2   force =    -0.00000001   -0.00000004    0.00000001
     atom   18 type  2   force =    -0.00000007   -0.00000009   -0.00000001
     atom   19 type  2   force =     0.00000000   -0.00000004    0.00000001
     atom   20 type  2   force =    -0.00000004   -0.00000003    0.00000001
     atom   21 type  2   force =     0.00000002    0.00000001   -0.00000001
     atom   22 type  2   force =    -0.00000001    0.00000004   -0.00000001
     atom   23 type  2   force =    -0.00000005    0.00000002    0.00000001
     atom   24 type  2   force =    -0.00000008   -0.00000002    0.00000001
     atom   25 type  2   force =    -0.00000005   -0.00000004    0.00000002
     atom   26 type  2   force =    -0.00000010   -0.00000012   -0.00000003
     atom   27 type  2   force =    -0.00000008   -0.00000016   -0.00000008
     atom   28 type  3   force =    -0.00000034   -0.00000054    0.00000010
     atom   29 type  2   force =    -0.00000018   -0.00000009   -0.00000009
     atom   30 type  2   force =    -0.00000016   -0.00000003   -0.00000004
     atom   31 type  2   force =    -0.00000012   -0.00000000    0.00000000
     atom   32 type  2   force =    -0.00000011    0.00000002    0.00000000
     atom   33 type  2   force =    -0.00000009    0.00000006   -0.00000002
     atom   34 type  2   force =    -0.00000003    0.00000005   -0.00000002
     atom   35 type  2   force =    -0.00000002   -0.00000002    0.00000000
     atom   36 type  2   force =     0.00000002   -0.00000008   -0.00000000
     atom   37 type  2   force =    -0.00000002   -0.00000017   -0.00000002
     atom   38 type  2   force =     0.00000008   -0.00000015   -0.00000003
     atom   39 type  2   force =    -0.00000001   -0.00000011    0.00000002
     atom   40 type  2   force =    -0.00000002    0.00000008   -0.00000003
     atom   41 type  2   force =    -0.00000012    0.00000006   -0.00000003
     atom   42 type  2   force =    -0.00000005    0.00000009   -0.00000001
     atom   43 type  2   force =    -0.00000001    0.00000010   -0.00000001
     atom   44 type  2   force =     0.00000004    0.00000013   -0.00000001
     atom   45 type  2   force =     0.00000000    0.00000006   -0.00000001
     atom   46 type  2   force =     0.00000006   -0.00000002   -0.00000001
     atom   47 type  2   force =     0.00000004   -0.00000007   -0.00000001
     atom   48 type  2   force =     0.00000011   -0.00000003   -0.00000004
     atom   49 type  2   force =     0.00000010   -0.00000005   -0.00000006
     atom   50 type  2   force =     0.00000012    0.00000001   -0.00000007
     atom   51 type  2   force =     0.00000007    0.00000008   -0.00000007
     atom   52 type  2   force =     0.00000007    0.00000011   -0.00000005

     Total force =     0.003901     Total SCF correction =     0.000001

     number of scf cycles    =  50
     number of bfgs steps    =  49

     energy   old            =    -756.4576896084 Ry
     energy   new            =    -756.4577131435 Ry

     CASE: energy  _new < energy  _old

     new trust radius        =       0.0161770136 bohr
     new conv_thr            =            1.0E-12 Ry


ATOMIC_POSITIONS (angstrom)
H        2.854143189   5.894726199   3.366533854
H        2.167384390   5.532219767   3.486846730
C       -0.000569694  -0.003500538  -0.150707370
C       -0.005140132   1.416398506  -0.129714062
C       -1.233295335   2.134607610  -0.114403573
C       -1.231486995   3.559104106  -0.069314575
C       -2.466272242   4.269690489  -0.113124091
C       -2.474592768   5.692630708  -0.125152498
C       -3.701795065   6.406597167  -0.146519010
C       -3.700067829   7.828754544  -0.161921799
C       -4.932297436   8.539556514  -0.136267289
C       -4.931512744   9.962016537  -0.166149256
C        2.465963845  -0.002601431  -0.189670940
C        2.466388029   1.415388662  -0.131689584
C        1.226640217   2.117121737  -0.073608342
C        1.228401244   3.530639407   0.091746124
C       -0.004130977   4.267473684   0.055183256
C       -0.025810552   5.703374011   0.089221278
C       -1.251704094   6.408886052  -0.070389175
C       -1.239566994   7.833459362  -0.127173636
C       -2.467621138   8.542312715  -0.184789042
C       -2.464727243   9.963914233  -0.210781606
C        4.931031670   0.000367463  -0.214915036
C        4.939342465   1.417167104  -0.183183257
C        3.710539050   2.118954475  -0.110980049
C        3.720710148   3.522784620   0.075066056
C        2.481822140   4.158521039   0.299527033
V        2.346504397   5.628006412   1.439422285
C        1.145440841   6.475103857   0.291041376
C        1.213450255   7.866203165   0.072216438
C       -0.008120244   8.559378748  -0.108537324
C       -0.001189322   9.974289386  -0.179753589
C        7.398187616   0.004830871  -0.156325931
C        7.400901734   1.426271689  -0.173019319
C        6.168411701   2.134719792  -0.160580202
C        6.166831166   3.558809548  -0.084338724
C        4.943553612   4.262808371   0.075749133
C        4.950723797   5.696231761   0.182091314
C        3.776502119   6.450733717   0.460205819
C        3.710736990   7.844991770   0.183015126
C        2.465766985   8.555362739   0.076866996
C        2.467651639   9.966927903  -0.079687852
C        9.863558552   0.004517669  -0.109971666
C        9.861632632   1.426008598  -0.137207336
C        8.630962167   2.136503447  -0.149422676
C        8.630776743   3.557513881  -0.139152022
C        7.400501262   4.269868720  -0.113063865
C        7.397207343   5.692199343  -0.101629721
C        6.171423094   6.405239577  -0.001397341
C        6.166889917   7.830710119  -0.038187412
C        4.934983848   8.547734222  -0.000361035
C        4.930398204   9.965706183  -0.101642612



     Writing output data file vanadio-top-2.1.save/
     NEW-OLD atomic charge density approx. for the potential

     Check: negative core charge=   -0.000002

     negative rho (up, down):  1.194E-03 4.609E-03

     Writing output data file vanadio-top-2.1.save/

     init_run     :     82.26s CPU     84.64s WALL (       1 calls)
     electrons    : 112599.67s CPU 114204.10s WALL (      50 calls)
     update_pot   :    800.59s CPU    804.25s WALL (      50 calls)
     forces       :   2768.97s CPU   2818.97s WALL (      50 calls)

     Called by init_run:
     wfcinit      :     54.02s CPU     54.30s WALL (       1 calls)
     wfcinit:atom :      0.08s CPU      0.12s WALL (       2 calls)
     wfcinit:wfcr :     53.55s CPU     53.73s WALL (       2 calls)
     potinit      :      8.62s CPU      8.80s WALL (       1 calls)
     hinit0       :      9.24s CPU      9.33s WALL (       1 calls)

     Called by electrons:
     c_bands      :  78508.28s CPU  78869.19s WALL (    1008 calls)
     sum_band     :  23947.30s CPU  24556.64s WALL (    1008 calls)
     v_of_rho     :   2020.28s CPU   2101.92s WALL (    1047 calls)
     v_h          :     88.28s CPU     90.79s WALL (    1047 calls)
     v_xc         :   2024.43s CPU   2107.50s WALL (    1097 calls)
     newd         :   7902.26s CPU   8471.16s WALL (    1047 calls)
     mix_rho      :    440.66s CPU    449.88s WALL (    1008 calls)

     Called by c_bands:
     init_us_2    :    258.14s CPU    258.50s WALL (    4134 calls)
     cegterg      :  77944.62s CPU  78303.47s WALL (    2016 calls)

     Called by sum_band:
     sum_band:bec :      1.62s CPU      1.64s WALL (    2016 calls)
     addusdens    :  13581.87s CPU  14138.88s WALL (    1008 calls)

     Called by *egterg:
     h_psi        :  42458.63s CPU  42705.46s WALL (    8493 calls)
     s_psi        :  14683.88s CPU  14690.02s WALL (    8493 calls)
     g_psi        :     35.85s CPU     35.93s WALL (    6475 calls)
     cdiaghg      :    545.01s CPU    545.23s WALL (    8369 calls)
     cegterg:over :   7982.22s CPU   7985.23s WALL (    6475 calls)
     cegterg:upda :   4984.47s CPU   5009.97s WALL (    6475 calls)
     cegterg:last :   3868.20s CPU   3869.16s WALL (    2066 calls)

     Called by h_psi:
     h_psi:pot    :  42418.23s CPU  42620.81s WALL (    8493 calls)
     h_psi:calbec :  14635.43s CPU  14640.95s WALL (    8493 calls)
     vloc_psi     :  13003.21s CPU  13195.64s WALL (    8493 calls)
     add_vuspsi   :  14779.44s CPU  14784.16s WALL (    8493 calls)

     General routines
     calbec       :  22132.94s CPU  22141.29s WALL (   10909 calls)
     fft          :   1834.23s CPU   1895.08s WALL (   26897 calls)
     ffts         :     87.06s CPU     89.81s WALL (    4110 calls)
     fftw         :  13584.44s CPU  13795.80s WALL ( 1424952 calls)
     interpolate  :    193.72s CPU    198.84s WALL (    2094 calls)
     davcio       :      0.00s CPU      0.05s WALL (       2 calls)

     Parallel routines
     fft_scatt_xy :   2980.07s CPU   3014.61s WALL ( 1455959 calls)
     fft_scatt_yz :   5049.71s CPU   5236.75s WALL ( 1455959 calls)

     PWSCF        :   1d 8h24m CPU   1d 8h52m WALL


   This run was terminated on:  20:15:40  31Oct2022            

=------------------------------------------------------------------------------=
   JOB DONE.
=------------------------------------------------------------------------------=
