
     Program PWSCF v.6.4.1 starts on 19Jul2022 at 10:58:10 

     This program is part of the open-source Quantum ESPRESSO suite
     for quantum simulation of materials; please cite
         "P. Giannozzi et al., J. Phys.:Condens. Matter 21 395502 (2009);
         "P. Giannozzi et al., J. Phys.:Condens. Matter 29 465901 (2017);
          URL http://www.quantum-espresso.org", 
     in publications or presentations arising from this work. More details at
     http://www.quantum-espresso.org/quote

     Parallel version (MPI), running on     6 processors

     MPI processes distributed on     1 nodes
     R & G space division:  proc/nbgrp/npool/nimage =       6
     Reading input from distance-1.8.in

     Current dimensions of program PWSCF are:
     Max number of different atomic species (ntypx) = 10
     Max number of k-points (npk) =  40000
     Max angular momentum in pseudopotentials (lmaxx) =  3

     IMPORTANT: XC functional enforced from input :
     Exchange-correlation      = RVV10 ( 1  4 13  4 3 0)
     Any further DFT definition will be discarded
     Please, verify this is what you really want

               file H.pbe-rrkjus.UPF: wavefunction(s)  1S renormalized
               file Cu.pbe-dn-rrkjus_psl.1.0.0.UPF: wavefunction(s)  3D renormalized

     Subspace diagonalization in iterative solution of the eigenvalue problem:
     a serial algorithm will be used


     Parallelization info
     --------------------
     sticks:   dense  smooth     PW     G-vecs:    dense   smooth      PW
     Min        3051    1746    432               270999   117096   14629
     Max        3053    1747    437               271001   117099   14630
     Sum       18313   10477   2611              1626001   702581   87777



     bravais-lattice index     =            4
     lattice parameter (alat)  =      23.2937  a.u.
     unit-cell volume          =    8879.8548 (a.u.)^3
     number of atoms/cell      =           52
     number of atomic types    =            3
     number of electrons       =       209.00
     number of Kohn-Sham states=          126
     kinetic-energy cutoff     =      70.0000  Ry
     charge density cutoff     =     490.0000  Ry
     convergence threshold     =      1.0E-06
     mixing beta               =       0.7000
     number of iterations used =            8  plain     mixing
     Exchange-correlation      = RVV10 ( 1  4 13  4 3 0)

     celldm(1)=  23.293684  celldm(2)=   0.000000  celldm(3)=   0.811261
     celldm(4)=   0.000000  celldm(5)=   0.000000  celldm(6)=   0.000000

     crystal axes: (cart. coord. in units of alat)
               a(1) = (   1.000000   0.000000   0.000000 )  
               a(2) = (  -0.500000   0.866025   0.000000 )  
               a(3) = (   0.000000   0.000000   0.811261 )  

     reciprocal axes: (cart. coord. in units 2 pi/alat)
               b(1) = (  1.000000  0.577350 -0.000000 )  
               b(2) = (  0.000000  1.154701  0.000000 )  
               b(3) = (  0.000000 -0.000000  1.232649 )  


     PseudoPot. # 1 for H  read from file:
     /home/cristian/Escritorio/Proyecto_Grafeno/pseudopotenciales/H.pbe-rrkjus.UPF
     MD5 check sum: 7cc9d459525c9a0585f487a71c3c9563
     Pseudo is Ultrasoft, Zval =  1.0
     Generated by new atomic code, or converted to UPF format
     Using radial grid of 1061 points,  2 beta functions with: 
                l(1) =   0
                l(2) =   0
     Q(r) pseudized with 0 coefficients 


     PseudoPot. # 2 for C  read from file:
     /home/cristian/Escritorio/Proyecto_Grafeno/pseudopotenciales/C.pbe-n-rrkjus_psl.1.0.0.UPF
     MD5 check sum: 1fdd950c42eb37d8afe3dd2f8d12311e
     Pseudo is Ultrasoft + core correction, Zval =  4.0
     Generated using "atomic" code by A. Dal Corso v.6.3MaX
     Using radial grid of 1073 points,  4 beta functions with: 
                l(1) =   0
                l(2) =   0
                l(3) =   1
                l(4) =   1
     Q(r) pseudized with 0 coefficients 


     PseudoPot. # 3 for Cu read from file:
     /home/cristian/Escritorio/Proyecto_Grafeno/pseudopotenciales/Cu.pbe-dn-rrkjus_psl.1.0.0.UPF
     MD5 check sum: ba3d6c84e19846e79d48cdc68ff7152b
     Pseudo is Ultrasoft + core correction, Zval = 11.0
     Generated using "atomic" code by A. Dal Corso v.6.3
     Using radial grid of 1199 points,  6 beta functions with: 
                l(1) =   0
                l(2) =   0
                l(3) =   1
                l(4) =   1
                l(5) =   2
                l(6) =   2
     Q(r) pseudized with 0 coefficients 


     vdW kernel table read from file rVV10_kernel_table
     MD5 check sum: b8e2538accc0c0b3206b45ba4daaba6c

     atomic species   valence    mass     pseudopotential
        H              1.00     1.00794     H ( 1.00)
        C              4.00    12.01070     C ( 1.00)
        Cu            11.00    63.54600     Cu( 1.00)

      2 Sym. Ops. (no inversion) found


                                    s                        frac. trans.

      isym =  1     identity                                     

 cryst.   s( 1) = (     1          0          0      )
                  (     0          1          0      )
                  (     0          0          1      )

 cart.    s( 1) = (  1.0000000  0.0000000  0.0000000 )
                  (  0.0000000  1.0000000  0.0000000 )
                  (  0.0000000  0.0000000  1.0000000 )


      isym =  2     inv. 180 deg rotation - cryst. axis [1,1,0]  

 cryst.   s( 2) = (     0         -1          0      )
                  (    -1          0          0      )
                  (     0          0          1      )

 cart.    s( 2) = (  0.5000000 -0.8660254  0.0000000 )
                  ( -0.8660254 -0.5000000  0.0000000 )
                  (  0.0000000  0.0000000  1.0000000 )


     point group C_s (m)    
     there are  2 classes
     the character table:

       E     s    
A'     1.00  1.00
A''    1.00 -1.00

     the symmetry operations in each class and the name of the first element:

     E        1
          identity                                               
     s        2
          inv. 180 deg rotation - cryst. axis [1,1,0]            

   Cartesian axes

     site n.     atom                  positions (alat units)
         1           H   tau(   1) = (   0.2500000   0.4330127   0.1460270  )
         2           H   tau(   2) = (   0.2500000   0.4330127   0.2070397  )
         3           C   tau(   3) = (   0.0000000   0.0000000   0.0000000  )
         4           C   tau(   4) = (   0.0000000   0.1154701   0.0000000  )
         5           C   tau(   5) = (  -0.1000000   0.1732051   0.0000000  )
         6           C   tau(   6) = (  -0.1000000   0.2886751   0.0000000  )
         7           C   tau(   7) = (  -0.2000000   0.3464102   0.0000000  )
         8           C   tau(   8) = (  -0.2000000   0.4618802   0.0000000  )
         9           C   tau(   9) = (  -0.3000000   0.5196152   0.0000000  )
        10           C   tau(  10) = (  -0.3000000   0.6350853   0.0000000  )
        11           C   tau(  11) = (  -0.4000000   0.6928203   0.0000000  )
        12           C   tau(  12) = (  -0.4000000   0.8082904   0.0000000  )
        13           C   tau(  13) = (   0.2000000   0.0000000   0.0000000  )
        14           C   tau(  14) = (   0.2000000   0.1154701   0.0000000  )
        15           C   tau(  15) = (   0.1000000   0.1732051   0.0000000  )
        16           C   tau(  16) = (   0.1000000   0.2886751   0.0000000  )
        17           C   tau(  17) = (   0.0000000   0.3464102   0.0000000  )
        18           C   tau(  18) = (   0.0000000   0.4618802   0.0000000  )
        19           C   tau(  19) = (  -0.1000000   0.5196152   0.0000000  )
        20           C   tau(  20) = (  -0.1000000   0.6350853   0.0000000  )
        21           C   tau(  21) = (  -0.2000000   0.6928203   0.0000000  )
        22           C   tau(  22) = (  -0.2000000   0.8082904   0.0000000  )
        23           C   tau(  23) = (   0.4000000   0.0000000   0.0000000  )
        24           C   tau(  24) = (   0.4000000   0.1154701   0.0000000  )
        25           C   tau(  25) = (   0.3000000   0.1732051   0.0000000  )
        26           C   tau(  26) = (   0.3000000   0.2886751   0.0000000  )
        27           C   tau(  27) = (   0.2000000   0.3464102   0.0000000  )
        28           Cu  tau(  28) = (   0.2000000   0.4618802   0.0000000  )
        29           C   tau(  29) = (   0.1000000   0.5196152   0.0000000  )
        30           C   tau(  30) = (   0.1000000   0.6350853   0.0000000  )
        31           C   tau(  31) = (   0.0000000   0.6928203   0.0000000  )
        32           C   tau(  32) = (   0.0000000   0.8082904   0.0000000  )
        33           C   tau(  33) = (   0.6000000   0.0000000   0.0000000  )
        34           C   tau(  34) = (   0.6000000   0.1154701   0.0000000  )
        35           C   tau(  35) = (   0.5000000   0.1732051   0.0000000  )
        36           C   tau(  36) = (   0.5000000   0.2886751   0.0000000  )
        37           C   tau(  37) = (   0.4000000   0.3464102   0.0000000  )
        38           C   tau(  38) = (   0.4000000   0.4618802   0.0000000  )
        39           C   tau(  39) = (   0.3000000   0.5196152   0.0000000  )
        40           C   tau(  40) = (   0.3000000   0.6350853   0.0000000  )
        41           C   tau(  41) = (   0.2000000   0.6928203   0.0000000  )
        42           C   tau(  42) = (   0.2000000   0.8082904   0.0000000  )
        43           C   tau(  43) = (   0.8000000   0.0000000   0.0000000  )
        44           C   tau(  44) = (   0.8000000   0.1154701   0.0000000  )
        45           C   tau(  45) = (   0.7000000   0.1732051   0.0000000  )
        46           C   tau(  46) = (   0.7000000   0.2886751   0.0000000  )
        47           C   tau(  47) = (   0.6000000   0.3464102   0.0000000  )
        48           C   tau(  48) = (   0.6000000   0.4618802   0.0000000  )
        49           C   tau(  49) = (   0.5000000   0.5196152   0.0000000  )
        50           C   tau(  50) = (   0.5000000   0.6350853   0.0000000  )
        51           C   tau(  51) = (   0.4000000   0.6928203   0.0000000  )
        52           C   tau(  52) = (   0.4000000   0.8082904   0.0000000  )

   Crystallographic axes

     site n.     atom                  positions (cryst. coord.)
         1           H   tau(   1) = (  0.5000000  0.5000000  0.1800000  )
         2           H   tau(   2) = (  0.5000000  0.5000000  0.2552072  )
         3           C   tau(   3) = (  0.0000000  0.0000000  0.0000000  )
         4           C   tau(   4) = (  0.0666667  0.1333333  0.0000000  )
         5           C   tau(   5) = (  0.0000000  0.2000000  0.0000000  )
         6           C   tau(   6) = (  0.0666667  0.3333333  0.0000000  )
         7           C   tau(   7) = (  0.0000000  0.4000000  0.0000000  )
         8           C   tau(   8) = (  0.0666667  0.5333333  0.0000000  )
         9           C   tau(   9) = (  0.0000000  0.6000000  0.0000000  )
        10           C   tau(  10) = (  0.0666667  0.7333333  0.0000000  )
        11           C   tau(  11) = (  0.0000000  0.8000000  0.0000000  )
        12           C   tau(  12) = (  0.0666667  0.9333333  0.0000000  )
        13           C   tau(  13) = (  0.2000000  0.0000000  0.0000000  )
        14           C   tau(  14) = (  0.2666667  0.1333333  0.0000000  )
        15           C   tau(  15) = (  0.2000000  0.2000000  0.0000000  )
        16           C   tau(  16) = (  0.2666667  0.3333333  0.0000000  )
        17           C   tau(  17) = (  0.2000000  0.4000000  0.0000000  )
        18           C   tau(  18) = (  0.2666667  0.5333333  0.0000000  )
        19           C   tau(  19) = (  0.2000000  0.6000000  0.0000000  )
        20           C   tau(  20) = (  0.2666667  0.7333333  0.0000000  )
        21           C   tau(  21) = (  0.2000000  0.8000000  0.0000000  )
        22           C   tau(  22) = (  0.2666667  0.9333333  0.0000000  )
        23           C   tau(  23) = (  0.4000000  0.0000000  0.0000000  )
        24           C   tau(  24) = (  0.4666667  0.1333333  0.0000000  )
        25           C   tau(  25) = (  0.4000000  0.2000000  0.0000000  )
        26           C   tau(  26) = (  0.4666667  0.3333333  0.0000000  )
        27           C   tau(  27) = (  0.4000000  0.4000000  0.0000000  )
        28           Cu  tau(  28) = (  0.4666667  0.5333333  0.0000000  )
        29           C   tau(  29) = (  0.4000000  0.6000000  0.0000000  )
        30           C   tau(  30) = (  0.4666667  0.7333333  0.0000000  )
        31           C   tau(  31) = (  0.4000000  0.8000000  0.0000000  )
        32           C   tau(  32) = (  0.4666667  0.9333333  0.0000000  )
        33           C   tau(  33) = (  0.6000000  0.0000000  0.0000000  )
        34           C   tau(  34) = (  0.6666667  0.1333333  0.0000000  )
        35           C   tau(  35) = (  0.6000000  0.2000000  0.0000000  )
        36           C   tau(  36) = (  0.6666667  0.3333333  0.0000000  )
        37           C   tau(  37) = (  0.6000000  0.4000000  0.0000000  )
        38           C   tau(  38) = (  0.6666667  0.5333333  0.0000000  )
        39           C   tau(  39) = (  0.6000000  0.6000000  0.0000000  )
        40           C   tau(  40) = (  0.6666667  0.7333333  0.0000000  )
        41           C   tau(  41) = (  0.6000000  0.8000000  0.0000000  )
        42           C   tau(  42) = (  0.6666667  0.9333333  0.0000000  )
        43           C   tau(  43) = (  0.8000000  0.0000000  0.0000000  )
        44           C   tau(  44) = (  0.8666667  0.1333333  0.0000000  )
        45           C   tau(  45) = (  0.8000000  0.2000000  0.0000000  )
        46           C   tau(  46) = (  0.8666667  0.3333333  0.0000000  )
        47           C   tau(  47) = (  0.8000000  0.4000000  0.0000000  )
        48           C   tau(  48) = (  0.8666667  0.5333333  0.0000000  )
        49           C   tau(  49) = (  0.8000000  0.6000000  0.0000000  )
        50           C   tau(  50) = (  0.8666667  0.7333333  0.0000000  )
        51           C   tau(  51) = (  0.8000000  0.8000000  0.0000000  )
        52           C   tau(  52) = (  0.8666667  0.9333333  0.0000000  )

     number of k points=     1  Marzari-Vanderbilt smearing, width (Ry)=  0.0010
                       cart. coord. in units 2pi/alat
        k(    1) = (   0.0000000   0.0000000   0.0000000), wk =   2.0000000

                       cryst. coord.
        k(    1) = (   0.0000000   0.0000000   0.0000000), wk =   2.0000000

     Dense  grid:  1626001 G-vectors     FFT dimensions: ( 180, 180, 135)

     Smooth grid:   702581 G-vectors     FFT dimensions: ( 125, 125, 108)

     Dynamical RAM for                 wfc:      28.14 MB

     Dynamical RAM for     wfc (w. buffer):      28.14 MB

     Dynamical RAM for           str. fact:      12.41 MB

     Dynamical RAM for           local pot:       0.00 MB

     Dynamical RAM for          nlocal pot:      92.46 MB

     Dynamical RAM for                qrad:      19.73 MB

     Dynamical RAM for          rho,v,vnew:      29.46 MB

     Dynamical RAM for               rhoin:       9.82 MB

     Dynamical RAM for            rho*nmix:      66.16 MB

     Dynamical RAM for           G-vectors:      16.40 MB

     Dynamical RAM for          h,s,v(r/c):      11.63 MB

     Dynamical RAM for          <psi|beta>:       0.80 MB

     Dynamical RAM for                 psi:     112.56 MB

     Dynamical RAM for                hpsi:     112.56 MB

     Dynamical RAM for                spsi:     112.56 MB

     Dynamical RAM for      wfcinit/wfcrot:      93.45 MB

     Dynamical RAM for           addusdens:     971.75 MB

     Estimated static dynamical RAM per process >     319.55 MB

     Estimated max dynamical RAM per process >       1.26 GB

     Estimated total dynamical RAM >       7.57 GB

     Check: negative core charge=   -0.000002

     Initial potential from superposition of free atoms

     starting charge  208.80532, renormalised to  209.00000

     negative rho (up, down):  7.035E-05 0.000E+00


---------------------------------------------------------------------------------
Carrying out rVV10 run using the following parameters:
Nqs =      20    Nr_points =    1024   r_max =   100.000
b_value =  6.30000    beta =  0.00901
     q_mesh =  0.00010000  0.00030000  0.00058939  0.00100810
               0.00161396  0.00249058  0.00375900  0.00559430
               0.00824984  0.01209221  0.01765183  0.02569619
               0.03733578  0.05417739  0.07854596  0.11380545
               0.16482331  0.23864234  0.34545298  0.50000000

Gradients computed in Reciprocal space

---------------------------------------------------------------------------------


     Starting wfcs are  207 randomized atomic wfcs

     total cpu time spent up to now is       49.9 secs

     Self-consistent Calculation

     iteration #  1     ecut=    70.00 Ry     beta= 0.70
     Davidson diagonalization with overlap
     ethr =  1.00E-02,  avg # of iterations =  8.0

     negative rho (up, down):  1.778E-04 0.000E+00

     total cpu time spent up to now is      128.1 secs

     total energy              =    -732.47784000 Ry
     Harris-Foulkes estimate   =    -737.60023869 Ry
     estimated scf accuracy    <       7.72110015 Ry

     iteration #  2     ecut=    70.00 Ry     beta= 0.70
     Davidson diagonalization with overlap
     ethr =  3.69E-03,  avg # of iterations =  3.0

     negative rho (up, down):  2.242E-04 0.000E+00

     total cpu time spent up to now is      197.4 secs

     total energy              =    -732.06677741 Ry
     Harris-Foulkes estimate   =    -736.79560510 Ry
     estimated scf accuracy    <       8.96456490 Ry

     iteration #  3     ecut=    70.00 Ry     beta= 0.70
     Davidson diagonalization with overlap
     ethr =  3.69E-03,  avg # of iterations =  4.0

     negative rho (up, down):  2.850E-04 0.000E+00

     total cpu time spent up to now is      259.3 secs

     total energy              =    -730.48923431 Ry
     Harris-Foulkes estimate   =    -736.30529694 Ry
     estimated scf accuracy    <      26.79660169 Ry

     iteration #  4     ecut=    70.00 Ry     beta= 0.70
     Davidson diagonalization with overlap
     ethr =  3.69E-03,  avg # of iterations =  4.0

     negative rho (up, down):  3.095E-04 0.000E+00

     total cpu time spent up to now is      331.8 secs

     total energy              =    -734.25102906 Ry
     Harris-Foulkes estimate   =    -735.47248966 Ry
     estimated scf accuracy    <       7.26920780 Ry

     iteration #  5     ecut=    70.00 Ry     beta= 0.70
     Davidson diagonalization with overlap
     ethr =  3.48E-03,  avg # of iterations =  1.0

     negative rho (up, down):  3.303E-04 0.000E+00

     total cpu time spent up to now is      389.5 secs

     total energy              =    -734.70517893 Ry
     Harris-Foulkes estimate   =    -734.85998227 Ry
     estimated scf accuracy    <       0.69409205 Ry

     iteration #  6     ecut=    70.00 Ry     beta= 0.70
     Davidson diagonalization with overlap
     ethr =  3.32E-04,  avg # of iterations =  5.0

     negative rho (up, down):  3.477E-04 0.000E+00

     total cpu time spent up to now is      450.7 secs

     total energy              =    -734.72061371 Ry
     Harris-Foulkes estimate   =    -734.76942695 Ry
     estimated scf accuracy    <       0.27219350 Ry

     iteration #  7     ecut=    70.00 Ry     beta= 0.70
     Davidson diagonalization with overlap
     ethr =  1.30E-04,  avg # of iterations =  2.0

     negative rho (up, down):  3.919E-04 0.000E+00

     total cpu time spent up to now is      508.5 secs

     total energy              =    -734.71055633 Ry
     Harris-Foulkes estimate   =    -734.74110894 Ry
     estimated scf accuracy    <       0.16318856 Ry

     iteration #  8     ecut=    70.00 Ry     beta= 0.70
     Davidson diagonalization with overlap
     ethr =  7.81E-05,  avg # of iterations =  1.0

     negative rho (up, down):  4.443E-04 0.000E+00

     total cpu time spent up to now is      567.4 secs

     total energy              =    -734.71023468 Ry
     Harris-Foulkes estimate   =    -734.72424162 Ry
     estimated scf accuracy    <       0.07789941 Ry

     iteration #  9     ecut=    70.00 Ry     beta= 0.70
     Davidson diagonalization with overlap
     ethr =  3.73E-05,  avg # of iterations = 13.0

     negative rho (up, down):  6.088E-04 0.000E+00

     total cpu time spent up to now is      631.2 secs

     total energy              =    -734.70679153 Ry
     Harris-Foulkes estimate   =    -734.71504960 Ry
     estimated scf accuracy    <       0.02682313 Ry

     iteration # 10     ecut=    70.00 Ry     beta= 0.70
     Davidson diagonalization with overlap
     ethr =  1.28E-05,  avg # of iterations = 13.0

     negative rho (up, down):  6.358E-04 0.000E+00

     total cpu time spent up to now is      697.6 secs

     total energy              =    -734.70984536 Ry
     Harris-Foulkes estimate   =    -734.71028332 Ry
     estimated scf accuracy    <       0.00161950 Ry

     iteration # 11     ecut=    70.00 Ry     beta= 0.70
     Davidson diagonalization with overlap
     ethr =  7.75E-07,  avg # of iterations =  2.0

     negative rho (up, down):  6.595E-04 0.000E+00

     total cpu time spent up to now is      764.0 secs

     total energy              =    -734.70986721 Ry
     Harris-Foulkes estimate   =    -734.71009761 Ry
     estimated scf accuracy    <       0.00148738 Ry

     iteration # 12     ecut=    70.00 Ry     beta= 0.70
     Davidson diagonalization with overlap
     ethr =  7.12E-07,  avg # of iterations =  1.0

     negative rho (up, down):  6.592E-04 0.000E+00

     total cpu time spent up to now is      821.5 secs

     total energy              =    -734.70987451 Ry
     Harris-Foulkes estimate   =    -734.71009577 Ry
     estimated scf accuracy    <       0.00547938 Ry

     iteration # 13     ecut=    70.00 Ry     beta= 0.70
     Davidson diagonalization with overlap
     ethr =  7.12E-07,  avg # of iterations =  1.0

     negative rho (up, down):  6.647E-04 0.000E+00

     total cpu time spent up to now is      880.6 secs

     total energy              =    -734.70992341 Ry
     Harris-Foulkes estimate   =    -734.70998315 Ry
     estimated scf accuracy    <       0.00016020 Ry

     iteration # 14     ecut=    70.00 Ry     beta= 0.70
     Davidson diagonalization with overlap
     ethr =  7.67E-08,  avg # of iterations =  3.0

     negative rho (up, down):  6.569E-04 0.000E+00

     total cpu time spent up to now is      947.7 secs

     total energy              =    -734.70995316 Ry
     Harris-Foulkes estimate   =    -734.70997998 Ry
     estimated scf accuracy    <       0.00009605 Ry

     iteration # 15     ecut=    70.00 Ry     beta= 0.70
     Davidson diagonalization with overlap
     ethr =  4.60E-08,  avg # of iterations =  2.0

     negative rho (up, down):  6.553E-04 0.000E+00

     total cpu time spent up to now is     1007.4 secs

     total energy              =    -734.70996312 Ry
     Harris-Foulkes estimate   =    -734.70996596 Ry
     estimated scf accuracy    <       0.00004015 Ry

     iteration # 16     ecut=    70.00 Ry     beta= 0.70
     Davidson diagonalization with overlap
     ethr =  1.92E-08,  avg # of iterations =  1.0

     negative rho (up, down):  6.550E-04 0.000E+00

     total cpu time spent up to now is     1065.3 secs

     total energy              =    -734.70996491 Ry
     Harris-Foulkes estimate   =    -734.70996598 Ry
     estimated scf accuracy    <       0.00002830 Ry

     iteration # 17     ecut=    70.00 Ry     beta= 0.70
     Davidson diagonalization with overlap
     ethr =  1.35E-08,  avg # of iterations =  1.0

     negative rho (up, down):  6.550E-04 0.000E+00

     total cpu time spent up to now is     1126.0 secs

     End of self-consistent calculation

          k = 0.0000 0.0000 0.0000 ( 87777 PWs)   bands (ev):

   -19.8494 -19.0049 -19.0007 -18.9202 -18.9185 -18.8589 -18.7565 -17.1695
   -17.1661 -17.1432 -17.1040 -17.0959 -16.8165 -16.3320 -16.3279 -16.1960
   -16.1918 -16.1756 -15.7630 -14.4102 -14.4006 -14.1365 -14.0500 -14.0480
   -13.5800 -13.1759 -13.1749 -13.0931 -12.9473 -12.9386 -12.6266 -12.2875
   -12.2872 -11.7239 -11.6180 -11.6126 -11.1638 -10.9051 -10.9044  -9.5246
    -9.3751  -9.3736  -9.2697  -9.2581  -9.2480  -9.2459  -9.2344  -9.1083
    -9.0538  -9.0527  -8.9498  -8.7226  -8.7169  -8.1690  -7.9036  -7.8796
    -7.6774  -7.6613  -7.5946  -7.5451  -7.5188  -6.8745  -6.8590  -6.8564
    -6.8176  -6.7975  -6.7330  -6.7279  -6.6294  -6.6261  -6.5894  -6.5850
    -6.5838  -6.5380  -6.4008  -6.3979  -6.1724  -5.6197  -5.6174  -5.0392
    -4.9711  -4.8967  -4.8949  -4.7776  -4.7542  -4.7424  -4.6676  -4.5574
    -4.5473  -4.2937  -3.8698  -3.8660  -3.8257  -3.8242  -3.7991  -3.6580
    -3.6433  -3.2554  -1.8997  -1.8437  -1.8424  -1.7564  -1.7409  -1.1815
    -0.6927  -0.6923   0.8935   0.9280   0.9317   1.0760   1.0847   1.4854
     2.5546   2.7718   2.7764   2.8225   2.9118   2.9135   3.3725   3.6999
     3.7054   3.8037   3.8070   3.8230   3.9720   4.2225

     occupation numbers 
     1.0000   1.0000   1.0000   1.0000   1.0000   1.0000   1.0000   1.0000
     1.0000   1.0000   1.0000   1.0000   1.0000   1.0000   1.0000   1.0000
     1.0000   1.0000   1.0000   1.0000   1.0000   1.0000   1.0000   1.0000
     1.0000   1.0000   1.0000   1.0000   1.0000   1.0000   1.0000   1.0000
     1.0000   1.0000   1.0000   1.0000   1.0000   1.0000   1.0000   1.0000
     1.0000   1.0000   1.0000   1.0000   1.0000   1.0000   1.0000   1.0000
     1.0000   1.0000   1.0000   1.0000   1.0000   1.0000   1.0000   1.0000
     1.0000   1.0000   1.0000   1.0000   1.0000   1.0000   1.0000   1.0000
     1.0000   1.0000   1.0000   1.0000   1.0000   1.0000   1.0000   1.0000
     1.0000   1.0000   1.0000   1.0000   1.0000   1.0000   1.0000   1.0000
     1.0000   1.0000   1.0000   1.0000   1.0000   1.0000   1.0000   1.0000
     1.0000   1.0000   1.0000   1.0000   1.0000   1.0000   1.0000   1.0000
     1.0000   1.0000   1.0000   1.0000   1.0000   1.0000   1.0000   1.0000
     0.2580   0.2420   0.0000   0.0000   0.0000   0.0000   0.0000   0.0000
     0.0000   0.0000   0.0000   0.0000   0.0000   0.0000   0.0000   0.0000
     0.0000   0.0000   0.0000   0.0000   0.0000   0.0000

     the Fermi energy is    -0.6959 ev

!    total energy              =    -734.70996523 Ry
     Harris-Foulkes estimate   =    -734.70996563 Ry
     estimated scf accuracy    <       0.00000044 Ry

     The total energy is the sum of the following terms:

     one-electron contribution =   -2511.74032206 Ry
     hartree contribution      =    1311.47775695 Ry
     xc contribution           =    -275.99858975 Ry
     ewald contribution        =     741.55180288 Ry
     smearing contrib. (-TS)   =      -0.00061326 Ry

     convergence has been achieved in  17 iterations

     Writing output data file gr-12-bridge2.save/

     init_run     :     47.33s CPU     48.69s WALL (       1 calls)
     electrons    :   1043.10s CPU   1076.26s WALL (       1 calls)

     Called by init_run:
     wfcinit      :     23.25s CPU     23.43s WALL (       1 calls)
     wfcinit:atom :      0.03s CPU      0.05s WALL (       1 calls)
     wfcinit:wfcr :     23.05s CPU     23.16s WALL (       1 calls)
     potinit      :     11.02s CPU     11.49s WALL (       1 calls)
     hinit0       :      7.61s CPU      7.65s WALL (       1 calls)

     Called by electrons:
     c_bands      :    616.90s CPU    620.63s WALL (      17 calls)
     sum_band     :    216.18s CPU    227.21s WALL (      17 calls)
     v_of_rho     :    124.96s CPU    132.96s WALL (      18 calls)
     v_h          :      1.48s CPU      1.56s WALL (      18 calls)
     v_xc         :    123.47s CPU    131.41s WALL (      18 calls)
     newd         :     89.66s CPU    100.94s WALL (      18 calls)
     mix_rho      :      4.02s CPU      4.10s WALL (      17 calls)

     Called by c_bands:
     init_us_2    :      1.82s CPU      1.87s WALL (      35 calls)
     cegterg      :    612.75s CPU    616.46s WALL (      17 calls)

     Called by sum_band:
     sum_band:bec :      0.01s CPU      0.01s WALL (      17 calls)
     addusdens    :    138.15s CPU    148.55s WALL (      17 calls)

     Called by *egterg:
     h_psi        :    331.44s CPU    334.14s WALL (      83 calls)
     s_psi        :    108.75s CPU    108.80s WALL (      83 calls)
     g_psi        :      0.31s CPU      0.31s WALL (      65 calls)
     cdiaghg      :      6.06s CPU      6.06s WALL (      82 calls)
     cegterg:over :     75.46s CPU     75.51s WALL (      65 calls)
     cegterg:upda :     43.56s CPU     43.79s WALL (      65 calls)
     cegterg:last :     32.57s CPU     32.59s WALL (      17 calls)

     Called by h_psi:
     h_psi:pot    :    331.08s CPU    333.32s WALL (      83 calls)
     h_psi:calbec :    108.77s CPU    108.81s WALL (      83 calls)
     vloc_psi     :    114.25s CPU    116.38s WALL (      83 calls)
     add_vuspsi   :    108.06s CPU    108.13s WALL (      83 calls)

     General routines
     calbec       :    155.43s CPU    155.50s WALL (     100 calls)
     fft          :     70.94s CPU     73.77s WALL (    1132 calls)
     ffts         :      0.79s CPU      0.81s WALL (      35 calls)
     fftw         :    121.18s CPU    123.53s WALL (   12218 calls)
     interpolate  :      1.79s CPU      1.85s WALL (      18 calls)

     Parallel routines
     fft_scatt_xy :     34.93s CPU     35.31s WALL (   13385 calls)
     fft_scatt_yz :     62.92s CPU     66.66s WALL (   13385 calls)

     PWSCF        :  18m11.75s CPU  18m46.56s WALL


   This run was terminated on:  11:16:57  19Jul2022            

=------------------------------------------------------------------------------=
   JOB DONE.
=------------------------------------------------------------------------------=
