
     Program PWSCF v.6.4.1 starts on 19Jul2022 at 10:39:26 

     This program is part of the open-source Quantum ESPRESSO suite
     for quantum simulation of materials; please cite
         "P. Giannozzi et al., J. Phys.:Condens. Matter 21 395502 (2009);
         "P. Giannozzi et al., J. Phys.:Condens. Matter 29 465901 (2017);
          URL http://www.quantum-espresso.org", 
     in publications or presentations arising from this work. More details at
     http://www.quantum-espresso.org/quote

     Parallel version (MPI), running on     6 processors

     MPI processes distributed on     1 nodes
     R & G space division:  proc/nbgrp/npool/nimage =       6
     Reading input from distance-2.0.in

     Current dimensions of program PWSCF are:
     Max number of different atomic species (ntypx) = 10
     Max number of k-points (npk) =  40000
     Max angular momentum in pseudopotentials (lmaxx) =  3

     IMPORTANT: XC functional enforced from input :
     Exchange-correlation      = RVV10 ( 1  4 13  4 3 0)
     Any further DFT definition will be discarded
     Please, verify this is what you really want

               file H.pbe-rrkjus.UPF: wavefunction(s)  1S renormalized
               file Cu.pbe-dn-rrkjus_psl.1.0.0.UPF: wavefunction(s)  3D renormalized

     Subspace diagonalization in iterative solution of the eigenvalue problem:
     a serial algorithm will be used


     Parallelization info
     --------------------
     sticks:   dense  smooth     PW     G-vecs:    dense   smooth      PW
     Min        3051    1746    432               270999   117096   14629
     Max        3053    1747    437               271001   117099   14630
     Sum       18313   10477   2611              1626001   702581   87777



     bravais-lattice index     =            4
     lattice parameter (alat)  =      23.2937  a.u.
     unit-cell volume          =    8879.8548 (a.u.)^3
     number of atoms/cell      =           52
     number of atomic types    =            3
     number of electrons       =       209.00
     number of Kohn-Sham states=          126
     kinetic-energy cutoff     =      70.0000  Ry
     charge density cutoff     =     490.0000  Ry
     convergence threshold     =      1.0E-06
     mixing beta               =       0.7000
     number of iterations used =            8  plain     mixing
     Exchange-correlation      = RVV10 ( 1  4 13  4 3 0)

     celldm(1)=  23.293684  celldm(2)=   0.000000  celldm(3)=   0.811261
     celldm(4)=   0.000000  celldm(5)=   0.000000  celldm(6)=   0.000000

     crystal axes: (cart. coord. in units of alat)
               a(1) = (   1.000000   0.000000   0.000000 )  
               a(2) = (  -0.500000   0.866025   0.000000 )  
               a(3) = (   0.000000   0.000000   0.811261 )  

     reciprocal axes: (cart. coord. in units 2 pi/alat)
               b(1) = (  1.000000  0.577350 -0.000000 )  
               b(2) = (  0.000000  1.154701  0.000000 )  
               b(3) = (  0.000000 -0.000000  1.232649 )  


     PseudoPot. # 1 for H  read from file:
     /home/cristian/Escritorio/Proyecto_Grafeno/pseudopotenciales/H.pbe-rrkjus.UPF
     MD5 check sum: 7cc9d459525c9a0585f487a71c3c9563
     Pseudo is Ultrasoft, Zval =  1.0
     Generated by new atomic code, or converted to UPF format
     Using radial grid of 1061 points,  2 beta functions with: 
                l(1) =   0
                l(2) =   0
     Q(r) pseudized with 0 coefficients 


     PseudoPot. # 2 for C  read from file:
     /home/cristian/Escritorio/Proyecto_Grafeno/pseudopotenciales/C.pbe-n-rrkjus_psl.1.0.0.UPF
     MD5 check sum: 1fdd950c42eb37d8afe3dd2f8d12311e
     Pseudo is Ultrasoft + core correction, Zval =  4.0
     Generated using "atomic" code by A. Dal Corso v.6.3MaX
     Using radial grid of 1073 points,  4 beta functions with: 
                l(1) =   0
                l(2) =   0
                l(3) =   1
                l(4) =   1
     Q(r) pseudized with 0 coefficients 


     PseudoPot. # 3 for Cu read from file:
     /home/cristian/Escritorio/Proyecto_Grafeno/pseudopotenciales/Cu.pbe-dn-rrkjus_psl.1.0.0.UPF
     MD5 check sum: ba3d6c84e19846e79d48cdc68ff7152b
     Pseudo is Ultrasoft + core correction, Zval = 11.0
     Generated using "atomic" code by A. Dal Corso v.6.3
     Using radial grid of 1199 points,  6 beta functions with: 
                l(1) =   0
                l(2) =   0
                l(3) =   1
                l(4) =   1
                l(5) =   2
                l(6) =   2
     Q(r) pseudized with 0 coefficients 


     vdW kernel table read from file rVV10_kernel_table
     MD5 check sum: b8e2538accc0c0b3206b45ba4daaba6c

     atomic species   valence    mass     pseudopotential
        H              1.00     1.00794     H ( 1.00)
        C              4.00    12.01070     C ( 1.00)
        Cu            11.00    63.54600     Cu( 1.00)

      2 Sym. Ops. (no inversion) found


                                    s                        frac. trans.

      isym =  1     identity                                     

 cryst.   s( 1) = (     1          0          0      )
                  (     0          1          0      )
                  (     0          0          1      )

 cart.    s( 1) = (  1.0000000  0.0000000  0.0000000 )
                  (  0.0000000  1.0000000  0.0000000 )
                  (  0.0000000  0.0000000  1.0000000 )


      isym =  2     inv. 180 deg rotation - cryst. axis [1,1,0]  

 cryst.   s( 2) = (     0         -1          0      )
                  (    -1          0          0      )
                  (     0          0          1      )

 cart.    s( 2) = (  0.5000000 -0.8660254  0.0000000 )
                  ( -0.8660254 -0.5000000  0.0000000 )
                  (  0.0000000  0.0000000  1.0000000 )


     point group C_s (m)    
     there are  2 classes
     the character table:

       E     s    
A'     1.00  1.00
A''    1.00 -1.00

     the symmetry operations in each class and the name of the first element:

     E        1
          identity                                               
     s        2
          inv. 180 deg rotation - cryst. axis [1,1,0]            

   Cartesian axes

     site n.     atom                  positions (alat units)
         1           H   tau(   1) = (   0.2500000   0.4330127   0.1622522  )
         2           H   tau(   2) = (   0.2500000   0.4330127   0.2232649  )
         3           C   tau(   3) = (   0.0000000   0.0000000   0.0000000  )
         4           C   tau(   4) = (   0.0000000   0.1154701   0.0000000  )
         5           C   tau(   5) = (  -0.1000000   0.1732051   0.0000000  )
         6           C   tau(   6) = (  -0.1000000   0.2886751   0.0000000  )
         7           C   tau(   7) = (  -0.2000000   0.3464102   0.0000000  )
         8           C   tau(   8) = (  -0.2000000   0.4618802   0.0000000  )
         9           C   tau(   9) = (  -0.3000000   0.5196152   0.0000000  )
        10           C   tau(  10) = (  -0.3000000   0.6350853   0.0000000  )
        11           C   tau(  11) = (  -0.4000000   0.6928203   0.0000000  )
        12           C   tau(  12) = (  -0.4000000   0.8082904   0.0000000  )
        13           C   tau(  13) = (   0.2000000   0.0000000   0.0000000  )
        14           C   tau(  14) = (   0.2000000   0.1154701   0.0000000  )
        15           C   tau(  15) = (   0.1000000   0.1732051   0.0000000  )
        16           C   tau(  16) = (   0.1000000   0.2886751   0.0000000  )
        17           C   tau(  17) = (   0.0000000   0.3464102   0.0000000  )
        18           C   tau(  18) = (   0.0000000   0.4618802   0.0000000  )
        19           C   tau(  19) = (  -0.1000000   0.5196152   0.0000000  )
        20           C   tau(  20) = (  -0.1000000   0.6350853   0.0000000  )
        21           C   tau(  21) = (  -0.2000000   0.6928203   0.0000000  )
        22           C   tau(  22) = (  -0.2000000   0.8082904   0.0000000  )
        23           C   tau(  23) = (   0.4000000   0.0000000   0.0000000  )
        24           C   tau(  24) = (   0.4000000   0.1154701   0.0000000  )
        25           C   tau(  25) = (   0.3000000   0.1732051   0.0000000  )
        26           C   tau(  26) = (   0.3000000   0.2886751   0.0000000  )
        27           C   tau(  27) = (   0.2000000   0.3464102   0.0000000  )
        28           Cu  tau(  28) = (   0.2000000   0.4618802   0.0000000  )
        29           C   tau(  29) = (   0.1000000   0.5196152   0.0000000  )
        30           C   tau(  30) = (   0.1000000   0.6350853   0.0000000  )
        31           C   tau(  31) = (   0.0000000   0.6928203   0.0000000  )
        32           C   tau(  32) = (   0.0000000   0.8082904   0.0000000  )
        33           C   tau(  33) = (   0.6000000   0.0000000   0.0000000  )
        34           C   tau(  34) = (   0.6000000   0.1154701   0.0000000  )
        35           C   tau(  35) = (   0.5000000   0.1732051   0.0000000  )
        36           C   tau(  36) = (   0.5000000   0.2886751   0.0000000  )
        37           C   tau(  37) = (   0.4000000   0.3464102   0.0000000  )
        38           C   tau(  38) = (   0.4000000   0.4618802   0.0000000  )
        39           C   tau(  39) = (   0.3000000   0.5196152   0.0000000  )
        40           C   tau(  40) = (   0.3000000   0.6350853   0.0000000  )
        41           C   tau(  41) = (   0.2000000   0.6928203   0.0000000  )
        42           C   tau(  42) = (   0.2000000   0.8082904   0.0000000  )
        43           C   tau(  43) = (   0.8000000   0.0000000   0.0000000  )
        44           C   tau(  44) = (   0.8000000   0.1154701   0.0000000  )
        45           C   tau(  45) = (   0.7000000   0.1732051   0.0000000  )
        46           C   tau(  46) = (   0.7000000   0.2886751   0.0000000  )
        47           C   tau(  47) = (   0.6000000   0.3464102   0.0000000  )
        48           C   tau(  48) = (   0.6000000   0.4618802   0.0000000  )
        49           C   tau(  49) = (   0.5000000   0.5196152   0.0000000  )
        50           C   tau(  50) = (   0.5000000   0.6350853   0.0000000  )
        51           C   tau(  51) = (   0.4000000   0.6928203   0.0000000  )
        52           C   tau(  52) = (   0.4000000   0.8082904   0.0000000  )

   Crystallographic axes

     site n.     atom                  positions (cryst. coord.)
         1           H   tau(   1) = (  0.5000000  0.5000000  0.2000000  )
         2           H   tau(   2) = (  0.5000000  0.5000000  0.2752072  )
         3           C   tau(   3) = (  0.0000000  0.0000000  0.0000000  )
         4           C   tau(   4) = (  0.0666667  0.1333333  0.0000000  )
         5           C   tau(   5) = (  0.0000000  0.2000000  0.0000000  )
         6           C   tau(   6) = (  0.0666667  0.3333333  0.0000000  )
         7           C   tau(   7) = (  0.0000000  0.4000000  0.0000000  )
         8           C   tau(   8) = (  0.0666667  0.5333333  0.0000000  )
         9           C   tau(   9) = (  0.0000000  0.6000000  0.0000000  )
        10           C   tau(  10) = (  0.0666667  0.7333333  0.0000000  )
        11           C   tau(  11) = (  0.0000000  0.8000000  0.0000000  )
        12           C   tau(  12) = (  0.0666667  0.9333333  0.0000000  )
        13           C   tau(  13) = (  0.2000000  0.0000000  0.0000000  )
        14           C   tau(  14) = (  0.2666667  0.1333333  0.0000000  )
        15           C   tau(  15) = (  0.2000000  0.2000000  0.0000000  )
        16           C   tau(  16) = (  0.2666667  0.3333333  0.0000000  )
        17           C   tau(  17) = (  0.2000000  0.4000000  0.0000000  )
        18           C   tau(  18) = (  0.2666667  0.5333333  0.0000000  )
        19           C   tau(  19) = (  0.2000000  0.6000000  0.0000000  )
        20           C   tau(  20) = (  0.2666667  0.7333333  0.0000000  )
        21           C   tau(  21) = (  0.2000000  0.8000000  0.0000000  )
        22           C   tau(  22) = (  0.2666667  0.9333333  0.0000000  )
        23           C   tau(  23) = (  0.4000000  0.0000000  0.0000000  )
        24           C   tau(  24) = (  0.4666667  0.1333333  0.0000000  )
        25           C   tau(  25) = (  0.4000000  0.2000000  0.0000000  )
        26           C   tau(  26) = (  0.4666667  0.3333333  0.0000000  )
        27           C   tau(  27) = (  0.4000000  0.4000000  0.0000000  )
        28           Cu  tau(  28) = (  0.4666667  0.5333333  0.0000000  )
        29           C   tau(  29) = (  0.4000000  0.6000000  0.0000000  )
        30           C   tau(  30) = (  0.4666667  0.7333333  0.0000000  )
        31           C   tau(  31) = (  0.4000000  0.8000000  0.0000000  )
        32           C   tau(  32) = (  0.4666667  0.9333333  0.0000000  )
        33           C   tau(  33) = (  0.6000000  0.0000000  0.0000000  )
        34           C   tau(  34) = (  0.6666667  0.1333333  0.0000000  )
        35           C   tau(  35) = (  0.6000000  0.2000000  0.0000000  )
        36           C   tau(  36) = (  0.6666667  0.3333333  0.0000000  )
        37           C   tau(  37) = (  0.6000000  0.4000000  0.0000000  )
        38           C   tau(  38) = (  0.6666667  0.5333333  0.0000000  )
        39           C   tau(  39) = (  0.6000000  0.6000000  0.0000000  )
        40           C   tau(  40) = (  0.6666667  0.7333333  0.0000000  )
        41           C   tau(  41) = (  0.6000000  0.8000000  0.0000000  )
        42           C   tau(  42) = (  0.6666667  0.9333333  0.0000000  )
        43           C   tau(  43) = (  0.8000000  0.0000000  0.0000000  )
        44           C   tau(  44) = (  0.8666667  0.1333333  0.0000000  )
        45           C   tau(  45) = (  0.8000000  0.2000000  0.0000000  )
        46           C   tau(  46) = (  0.8666667  0.3333333  0.0000000  )
        47           C   tau(  47) = (  0.8000000  0.4000000  0.0000000  )
        48           C   tau(  48) = (  0.8666667  0.5333333  0.0000000  )
        49           C   tau(  49) = (  0.8000000  0.6000000  0.0000000  )
        50           C   tau(  50) = (  0.8666667  0.7333333  0.0000000  )
        51           C   tau(  51) = (  0.8000000  0.8000000  0.0000000  )
        52           C   tau(  52) = (  0.8666667  0.9333333  0.0000000  )

     number of k points=     1  Marzari-Vanderbilt smearing, width (Ry)=  0.0010
                       cart. coord. in units 2pi/alat
        k(    1) = (   0.0000000   0.0000000   0.0000000), wk =   2.0000000

                       cryst. coord.
        k(    1) = (   0.0000000   0.0000000   0.0000000), wk =   2.0000000

     Dense  grid:  1626001 G-vectors     FFT dimensions: ( 180, 180, 135)

     Smooth grid:   702581 G-vectors     FFT dimensions: ( 125, 125, 108)

     Dynamical RAM for                 wfc:      28.14 MB

     Dynamical RAM for     wfc (w. buffer):      28.14 MB

     Dynamical RAM for           str. fact:      12.41 MB

     Dynamical RAM for           local pot:       0.00 MB

     Dynamical RAM for          nlocal pot:      92.46 MB

     Dynamical RAM for                qrad:      19.73 MB

     Dynamical RAM for          rho,v,vnew:      29.46 MB

     Dynamical RAM for               rhoin:       9.82 MB

     Dynamical RAM for            rho*nmix:      66.16 MB

     Dynamical RAM for           G-vectors:      16.40 MB

     Dynamical RAM for          h,s,v(r/c):      11.63 MB

     Dynamical RAM for          <psi|beta>:       0.80 MB

     Dynamical RAM for                 psi:     112.56 MB

     Dynamical RAM for                hpsi:     112.56 MB

     Dynamical RAM for                spsi:     112.56 MB

     Dynamical RAM for      wfcinit/wfcrot:      93.45 MB

     Dynamical RAM for           addusdens:     971.75 MB

     Estimated static dynamical RAM per process >     319.55 MB

     Estimated max dynamical RAM per process >       1.26 GB

     Estimated total dynamical RAM >       7.57 GB

     Check: negative core charge=   -0.000002

     Initial potential from superposition of free atoms

     starting charge  208.80532, renormalised to  209.00000

     negative rho (up, down):  6.884E-05 0.000E+00


---------------------------------------------------------------------------------
Carrying out rVV10 run using the following parameters:
Nqs =      20    Nr_points =    1024   r_max =   100.000
b_value =  6.30000    beta =  0.00901
     q_mesh =  0.00010000  0.00030000  0.00058939  0.00100810
               0.00161396  0.00249058  0.00375900  0.00559430
               0.00824984  0.01209221  0.01765183  0.02569619
               0.03733578  0.05417739  0.07854596  0.11380545
               0.16482331  0.23864234  0.34545298  0.50000000

Gradients computed in Reciprocal space

---------------------------------------------------------------------------------


     Starting wfcs are  207 randomized atomic wfcs

     total cpu time spent up to now is       50.2 secs

     Self-consistent Calculation

     iteration #  1     ecut=    70.00 Ry     beta= 0.70
     Davidson diagonalization with overlap
     ethr =  1.00E-02,  avg # of iterations =  8.0

     negative rho (up, down):  1.698E-04 0.000E+00

     total cpu time spent up to now is      122.4 secs

     total energy              =    -732.43480708 Ry
     Harris-Foulkes estimate   =    -737.60196789 Ry
     estimated scf accuracy    <       7.76296124 Ry

     iteration #  2     ecut=    70.00 Ry     beta= 0.70
     Davidson diagonalization with overlap
     ethr =  3.71E-03,  avg # of iterations =  4.0

     negative rho (up, down):  2.114E-04 0.000E+00

     total cpu time spent up to now is      191.3 secs

     total energy              =    -731.91654826 Ry
     Harris-Foulkes estimate   =    -737.11032697 Ry
     estimated scf accuracy    <      10.16891505 Ry

     iteration #  3     ecut=    70.00 Ry     beta= 0.70
     Davidson diagonalization with overlap
     ethr =  3.71E-03,  avg # of iterations =  4.0

     negative rho (up, down):  2.720E-04 0.000E+00

     total cpu time spent up to now is      250.4 secs

     total energy              =    -730.67758796 Ry
     Harris-Foulkes estimate   =    -736.27611077 Ry
     estimated scf accuracy    <      25.09573883 Ry

     iteration #  4     ecut=    70.00 Ry     beta= 0.70
     Davidson diagonalization with overlap
     ethr =  3.71E-03,  avg # of iterations =  4.0

     negative rho (up, down):  2.894E-04 0.000E+00

     total cpu time spent up to now is      314.0 secs

     total energy              =    -734.29008259 Ry
     Harris-Foulkes estimate   =    -735.43515361 Ry
     estimated scf accuracy    <       6.99119949 Ry

     iteration #  5     ecut=    70.00 Ry     beta= 0.70
     Davidson diagonalization with overlap
     ethr =  3.35E-03,  avg # of iterations =  1.0

     negative rho (up, down):  3.092E-04 0.000E+00

     total cpu time spent up to now is      367.1 secs

     total energy              =    -734.71887674 Ry
     Harris-Foulkes estimate   =    -734.86949441 Ry
     estimated scf accuracy    <       0.64664283 Ry

     iteration #  6     ecut=    70.00 Ry     beta= 0.70
     Davidson diagonalization with overlap
     ethr =  3.09E-04,  avg # of iterations =  8.0

     negative rho (up, down):  3.276E-04 0.000E+00

     total cpu time spent up to now is      425.3 secs

     total energy              =    -734.73490337 Ry
     Harris-Foulkes estimate   =    -734.78631641 Ry
     estimated scf accuracy    <       0.25396437 Ry

     iteration #  7     ecut=    70.00 Ry     beta= 0.70
     Davidson diagonalization with overlap
     ethr =  1.22E-04,  avg # of iterations =  2.0

     negative rho (up, down):  3.720E-04 0.000E+00

     total cpu time spent up to now is      477.1 secs

     total energy              =    -734.73024341 Ry
     Harris-Foulkes estimate   =    -734.75727226 Ry
     estimated scf accuracy    <       0.13528857 Ry

     iteration #  8     ecut=    70.00 Ry     beta= 0.70
     Davidson diagonalization with overlap
     ethr =  6.47E-05,  avg # of iterations =  2.0

     negative rho (up, down):  4.194E-04 0.000E+00

     total cpu time spent up to now is      534.2 secs

     total energy              =    -734.73093957 Ry
     Harris-Foulkes estimate   =    -734.74378475 Ry
     estimated scf accuracy    <       0.06876420 Ry

     iteration #  9     ecut=    70.00 Ry     beta= 0.70
     Davidson diagonalization with overlap
     ethr =  3.29E-05,  avg # of iterations =  2.0

     negative rho (up, down):  6.038E-04 0.000E+00

     total cpu time spent up to now is      592.1 secs

     total energy              =    -734.72802358 Ry
     Harris-Foulkes estimate   =    -734.73589941 Ry
     estimated scf accuracy    <       0.02783425 Ry

     iteration # 10     ecut=    70.00 Ry     beta= 0.70
     Davidson diagonalization with overlap
     ethr =  1.33E-05,  avg # of iterations = 13.0

     negative rho (up, down):  6.470E-04 0.000E+00

     total cpu time spent up to now is      658.6 secs

     total energy              =    -734.73091864 Ry
     Harris-Foulkes estimate   =    -734.73172995 Ry
     estimated scf accuracy    <       0.00622550 Ry

     iteration # 11     ecut=    70.00 Ry     beta= 0.70
     Davidson diagonalization with overlap
     ethr =  2.98E-06,  avg # of iterations =  2.0

     negative rho (up, down):  6.641E-04 0.000E+00

     total cpu time spent up to now is      714.4 secs

     total energy              =    -734.73097362 Ry
     Harris-Foulkes estimate   =    -734.73171988 Ry
     estimated scf accuracy    <       0.01195360 Ry

     iteration # 12     ecut=    70.00 Ry     beta= 0.70
     Davidson diagonalization with overlap
     ethr =  2.98E-06,  avg # of iterations =  1.0

     negative rho (up, down):  6.519E-04 0.000E+00

     total cpu time spent up to now is      772.1 secs

     total energy              =    -734.73129328 Ry
     Harris-Foulkes estimate   =    -734.73145702 Ry
     estimated scf accuracy    <       0.00346146 Ry

     iteration # 13     ecut=    70.00 Ry     beta= 0.70
     Davidson diagonalization with overlap
     ethr =  1.66E-06,  avg # of iterations =  1.0

     negative rho (up, down):  6.639E-04 0.000E+00

     total cpu time spent up to now is      827.6 secs

     total energy              =    -734.73129755 Ry
     Harris-Foulkes estimate   =    -734.73136926 Ry
     estimated scf accuracy    <       0.00010448 Ry

     iteration # 14     ecut=    70.00 Ry     beta= 0.70
     Davidson diagonalization with overlap
     ethr =  5.00E-08,  avg # of iterations =  4.0

     negative rho (up, down):  6.545E-04 0.000E+00

     total cpu time spent up to now is      894.1 secs

     total energy              =    -734.73130819 Ry
     Harris-Foulkes estimate   =    -734.73140939 Ry
     estimated scf accuracy    <       0.00033487 Ry

     iteration # 15     ecut=    70.00 Ry     beta= 0.70
     Davidson diagonalization with overlap
     ethr =  5.00E-08,  avg # of iterations =  3.0

     negative rho (up, down):  6.530E-04 0.000E+00

     total cpu time spent up to now is      955.2 secs

     total energy              =    -734.73135252 Ry
     Harris-Foulkes estimate   =    -734.73135575 Ry
     estimated scf accuracy    <       0.00002101 Ry

     iteration # 16     ecut=    70.00 Ry     beta= 0.70
     Davidson diagonalization with overlap
     ethr =  1.01E-08,  avg # of iterations =  3.0

     negative rho (up, down):  6.531E-04 0.000E+00

     total cpu time spent up to now is     1011.0 secs

     total energy              =    -734.73135433 Ry
     Harris-Foulkes estimate   =    -734.73135495 Ry
     estimated scf accuracy    <       0.00000233 Ry

     iteration # 17     ecut=    70.00 Ry     beta= 0.70
     Davidson diagonalization with overlap
     ethr =  1.11E-09,  avg # of iterations =  3.0

     negative rho (up, down):  6.534E-04 0.000E+00

     total cpu time spent up to now is     1070.0 secs

     total energy              =    -734.73135447 Ry
     Harris-Foulkes estimate   =    -734.73135484 Ry
     estimated scf accuracy    <       0.00000480 Ry

     iteration # 18     ecut=    70.00 Ry     beta= 0.70
     Davidson diagonalization with overlap
     ethr =  1.11E-09,  avg # of iterations =  1.0

     negative rho (up, down):  6.536E-04 0.000E+00

     total cpu time spent up to now is     1123.6 secs

     End of self-consistent calculation

          k = 0.0000 0.0000 0.0000 ( 87777 PWs)   bands (ev):

   -19.8450 -18.9998 -18.9975 -18.9168 -18.9158 -18.8558 -18.7485 -17.1649
   -17.1631 -17.1400 -17.0976 -17.0930 -16.8109 -16.3272 -16.3248 -16.1907
   -16.1884 -16.1728 -15.7537 -14.4009 -14.3958 -14.1333 -14.0466 -14.0455
   -13.5744 -13.1713 -13.1707 -13.0898 -12.9395 -12.9351 -12.6193 -12.2798
   -12.2796 -11.7207 -11.6111 -11.6086 -11.1553 -10.8962 -10.8957  -9.5202
    -9.3714  -9.3705  -9.2551  -9.2452  -9.2451  -9.2338  -9.1355  -9.0745
    -9.0491  -9.0487  -8.9332  -8.7162  -8.7133  -8.0650  -7.9004  -7.8636
    -7.6611  -7.6566  -7.5511  -7.5419  -7.4240  -6.8699  -6.8560  -6.8538
    -6.8138  -6.7953  -6.7268  -6.7241  -6.6253  -6.6233  -6.5864  -6.5818
    -6.5812  -6.5349  -6.3963  -6.3942  -6.2120  -5.6161  -5.6148  -5.0357
    -4.9681  -4.8928  -4.8917  -4.7745  -4.7622  -4.7394  -4.7159  -4.5532
    -4.5459  -4.3854  -3.8659  -3.8639  -3.8220  -3.8215  -3.7970  -3.6516
    -3.6411  -3.3233  -1.8965  -1.8407  -1.8400  -1.7474  -1.7370  -1.1992
    -0.6747  -0.6746   0.8970   0.9320   0.9347   1.0834   1.0884   1.4860
     2.5599   2.7757   2.7797   2.8249   2.9191   2.9200   3.3796   3.6910
     3.6970   3.8040   3.8074   3.8236   3.9666   4.2461

     occupation numbers 
     1.0000   1.0000   1.0000   1.0000   1.0000   1.0000   1.0000   1.0000
     1.0000   1.0000   1.0000   1.0000   1.0000   1.0000   1.0000   1.0000
     1.0000   1.0000   1.0000   1.0000   1.0000   1.0000   1.0000   1.0000
     1.0000   1.0000   1.0000   1.0000   1.0000   1.0000   1.0000   1.0000
     1.0000   1.0000   1.0000   1.0000   1.0000   1.0000   1.0000   1.0000
     1.0000   1.0000   1.0000   1.0000   1.0000   1.0000   1.0000   1.0000
     1.0000   1.0000   1.0000   1.0000   1.0000   1.0000   1.0000   1.0000
     1.0000   1.0000   1.0000   1.0000   1.0000   1.0000   1.0000   1.0000
     1.0000   1.0000   1.0000   1.0000   1.0000   1.0000   1.0000   1.0000
     1.0000   1.0000   1.0000   1.0000   1.0000   1.0000   1.0000   1.0000
     1.0000   1.0000   1.0000   1.0000   1.0000   1.0000   1.0000   1.0000
     1.0000   1.0000   1.0000   1.0000   1.0000   1.0000   1.0000   1.0000
     1.0000   1.0000   1.0000   1.0000   1.0000   1.0000   1.0000   1.0000
     0.2516   0.2484   0.0000   0.0000   0.0000   0.0000   0.0000   0.0000
     0.0000   0.0000   0.0000   0.0000   0.0000   0.0000   0.0000   0.0000
     0.0000   0.0000   0.0000   0.0000   0.0000   0.0000

     the Fermi energy is    -0.6780 ev

!    total energy              =    -734.73135407 Ry
     Harris-Foulkes estimate   =    -734.73135467 Ry
     estimated scf accuracy    <       0.00000071 Ry

     The total energy is the sum of the following terms:

     one-electron contribution =   -2506.50375492 Ry
     hartree contribution      =    1308.88117741 Ry
     xc contribution           =    -275.96869942 Ry
     ewald contribution        =     738.86053635 Ry
     smearing contrib. (-TS)   =      -0.00061349 Ry

     convergence has been achieved in  18 iterations

     Writing output data file gr-12-bridge2.save/

     init_run     :     47.65s CPU     49.04s WALL (       1 calls)
     electrons    :   1040.20s CPU   1073.60s WALL (       1 calls)

     Called by init_run:
     wfcinit      :     22.72s CPU     22.94s WALL (       1 calls)
     wfcinit:atom :      0.04s CPU      0.05s WALL (       1 calls)
     wfcinit:wfcr :     22.51s CPU     22.69s WALL (       1 calls)
     potinit      :     11.26s CPU     11.75s WALL (       1 calls)
     hinit0       :      8.40s CPU      8.43s WALL (       1 calls)

     Called by electrons:
     c_bands      :    623.52s CPU    627.09s WALL (      18 calls)
     sum_band     :    208.70s CPU    220.01s WALL (      18 calls)
     v_of_rho     :    127.14s CPU    134.96s WALL (      19 calls)
     v_h          :      1.45s CPU      1.50s WALL (      19 calls)
     v_xc         :    125.69s CPU    133.46s WALL (      19 calls)
     newd         :     85.96s CPU     97.52s WALL (      19 calls)
     mix_rho      :      3.95s CPU      4.05s WALL (      18 calls)

     Called by c_bands:
     init_us_2    :      1.75s CPU      1.77s WALL (      37 calls)
     cegterg      :    618.79s CPU    622.34s WALL (      18 calls)

     Called by sum_band:
     sum_band:bec :      0.01s CPU      0.01s WALL (      18 calls)
     addusdens    :    129.44s CPU    140.02s WALL (      18 calls)

     Called by *egterg:
     h_psi        :    335.51s CPU    338.10s WALL (      85 calls)
     s_psi        :    109.84s CPU    109.92s WALL (      85 calls)
     g_psi        :      0.32s CPU      0.32s WALL (      66 calls)
     cdiaghg      :      6.39s CPU      6.40s WALL (      84 calls)
     cegterg:over :     75.15s CPU     75.19s WALL (      66 calls)
     cegterg:upda :     44.61s CPU     44.88s WALL (      66 calls)
     cegterg:last :     31.40s CPU     31.42s WALL (      18 calls)

     Called by h_psi:
     h_psi:pot    :    335.09s CPU    337.26s WALL (      85 calls)
     h_psi:calbec :    109.88s CPU    109.96s WALL (      85 calls)
     vloc_psi     :    115.51s CPU    117.49s WALL (      85 calls)
     add_vuspsi   :    109.70s CPU    109.80s WALL (      85 calls)

     General routines
     calbec       :    156.84s CPU    156.96s WALL (     103 calls)
     fft          :     70.56s CPU     73.46s WALL (    1195 calls)
     ffts         :      0.78s CPU      0.82s WALL (      37 calls)
     fftw         :    122.56s CPU    124.85s WALL (   13052 calls)
     interpolate  :      1.77s CPU      1.82s WALL (      19 calls)

     Parallel routines
     fft_scatt_xy :     34.75s CPU     35.15s WALL (   14284 calls)
     fft_scatt_yz :     64.31s CPU     68.04s WALL (   14284 calls)

     PWSCF        :  18m 9.06s CPU  18m44.14s WALL


   This run was terminated on:  10:58:10  19Jul2022            

=------------------------------------------------------------------------------=
   JOB DONE.
=------------------------------------------------------------------------------=
