
     Program PWSCF v.6.4.1 starts on 29Sep2023 at 23:54:59 

     This program is part of the open-source Quantum ESPRESSO suite
     for quantum simulation of materials; please cite
         "P. Giannozzi et al., J. Phys.:Condens. Matter 21 395502 (2009);
         "P. Giannozzi et al., J. Phys.:Condens. Matter 29 465901 (2017);
          URL http://www.quantum-espresso.org", 
     in publications or presentations arising from this work. More details at
     http://www.quantum-espresso.org/quote

     Parallel version (MPI), running on     6 processors

     MPI processes distributed on     1 nodes
     R & G space division:  proc/nbgrp/npool/nimage =       6
     Reading input from distance-2.6.in

     Current dimensions of program PWSCF are:
     Max number of different atomic species (ntypx) = 10
     Max number of k-points (npk) =  40000
     Max angular momentum in pseudopotentials (lmaxx) =  3

     IMPORTANT: XC functional enforced from input :
     Exchange-correlation      = RVV10 ( 1  4 13  4 3 0)
     Any further DFT definition will be discarded
     Please, verify this is what you really want

               file H.pbe-rrkjus.UPF: wavefunction(s)  1S renormalized
               file Cu.pbe-dn-rrkjus_psl.1.0.0.UPF: wavefunction(s)  3D renormalized

     Subspace diagonalization in iterative solution of the eigenvalue problem:
     a serial algorithm will be used


     Parallelization info
     --------------------
     sticks:   dense  smooth     PW     G-vecs:    dense   smooth      PW
     Min        1102     631    167                97606    42156    5775
     Max        1103     633    168                97613    42157    5780
     Sum        6613    3793   1003               585649   252941   34665



     bravais-lattice index     =            4
     lattice parameter (alat)  =      13.9762  a.u.
     unit-cell volume          =    3196.7546 (a.u.)^3
     number of atoms/cell      =           20
     number of atomic types    =            3
     number of electrons       =        81.00
     number of Kohn-Sham states=           49
     kinetic-energy cutoff     =      70.0000  Ry
     charge density cutoff     =     490.0000  Ry
     convergence threshold     =      1.0E-06
     mixing beta               =       0.7000
     number of iterations used =            8  plain     mixing
     Exchange-correlation      = RVV10 ( 1  4 13  4 3 0)

     celldm(1)=  13.976226  celldm(2)=   0.000000  celldm(3)=   1.352100
     celldm(4)=   0.000000  celldm(5)=   0.000000  celldm(6)=   0.000000

     crystal axes: (cart. coord. in units of alat)
               a(1) = (   1.000000   0.000000   0.000000 )  
               a(2) = (  -0.500000   0.866025   0.000000 )  
               a(3) = (   0.000000   0.000000   1.352100 )  

     reciprocal axes: (cart. coord. in units 2 pi/alat)
               b(1) = (  1.000000  0.577350 -0.000000 )  
               b(2) = (  0.000000  1.154701  0.000000 )  
               b(3) = (  0.000000 -0.000000  0.739590 )  


     PseudoPot. # 1 for H  read from file:
     /home/cristian/Escritorio/Proyecto_Grafeno/pseudopotenciales/H.pbe-rrkjus.UPF
     MD5 check sum: 7cc9d459525c9a0585f487a71c3c9563
     Pseudo is Ultrasoft, Zval =  1.0
     Generated by new atomic code, or converted to UPF format
     Using radial grid of 1061 points,  2 beta functions with: 
                l(1) =   0
                l(2) =   0
     Q(r) pseudized with 0 coefficients 


     PseudoPot. # 2 for C  read from file:
     /home/cristian/Escritorio/Proyecto_Grafeno/pseudopotenciales/C.pbe-n-rrkjus_psl.1.0.0.UPF
     MD5 check sum: 1fdd950c42eb37d8afe3dd2f8d12311e
     Pseudo is Ultrasoft + core correction, Zval =  4.0
     Generated using "atomic" code by A. Dal Corso v.6.3MaX
     Using radial grid of 1073 points,  4 beta functions with: 
                l(1) =   0
                l(2) =   0
                l(3) =   1
                l(4) =   1
     Q(r) pseudized with 0 coefficients 


     PseudoPot. # 3 for Cu read from file:
     /home/cristian/Escritorio/Proyecto_Grafeno/pseudopotenciales/Cu.pbe-dn-rrkjus_psl.1.0.0.UPF
     MD5 check sum: ba3d6c84e19846e79d48cdc68ff7152b
     Pseudo is Ultrasoft + core correction, Zval = 11.0
     Generated using "atomic" code by A. Dal Corso v.6.3
     Using radial grid of 1199 points,  6 beta functions with: 
                l(1) =   0
                l(2) =   0
                l(3) =   1
                l(4) =   1
                l(5) =   2
                l(6) =   2
     Q(r) pseudized with 0 coefficients 


     vdW kernel table read from file rVV10_kernel_table
     MD5 check sum: b8e2538accc0c0b3206b45ba4daaba6c

     atomic species   valence    mass     pseudopotential
        H              1.00     1.00794     H ( 1.00)
        C              4.00    12.01070     C ( 1.00)
        Cu            11.00    63.54600     Cu( 1.00)

      2 Sym. Ops. (no inversion) found ( 1 have fractional translation)


                                    s                        frac. trans.

      isym =  1     identity                                     

 cryst.   s( 1) = (     1          0          0      )
                  (     0          1          0      )
                  (     0          0          1      )

 cart.    s( 1) = (  1.0000000  0.0000000  0.0000000 )
                  (  0.0000000  1.0000000  0.0000000 )
                  (  0.0000000  0.0000000  1.0000000 )


      isym =  2     inv. 180 deg rotation - cryst. axis [0,1,0]  

 cryst.   s( 2) = (     1          1          0      )    f =(  0.0000000 )
                  (     0         -1          0      )       (  0.3333340 )
                  (     0          0          1      )       (  0.0000000 )

 cart.    s( 2) = (  0.5000000  0.8660254  0.0000000 )    f =( -0.1666670 )
                  (  0.8660254 -0.5000000  0.0000000 )       (  0.2886757 )
                  (  0.0000000  0.0000000  1.0000000 )       (  0.0000000 )


     point group C_s (m)    
     there are  2 classes
     the character table:

       E     s    
A'     1.00  1.00
A''    1.00 -1.00

     the symmetry operations in each class and the name of the first element:

     E        1
          identity                                               
     s        2
          inv. 180 deg rotation - cryst. axis [0,1,0]            

   Cartesian axes

     site n.     atom                  positions (alat units)
         1           H   tau(   1) = (   0.2499997   0.5292372   0.3515461  )
         2           H   tau(   2) = (   0.2499997   0.5292372   0.4532338  )
         3           C   tau(   3) = (   0.0000000   0.0000000   0.0000000  )
         4           C   tau(   4) = (   0.0000000   0.1924499   0.0000000  )
         5           C   tau(   5) = (  -0.1666665   0.2886748   0.0000000  )
         6           C   tau(   6) = (  -0.1666665   0.4811247   0.0000000  )
         7           C   tau(   7) = (  -0.3333330   0.5773496   0.0000000  )
         8           C   tau(   8) = (  -0.3333330   0.7697995   0.0000000  )
         9           C   tau(   9) = (   0.3333330   0.0000000   0.0000000  )
        10           C   tau(  10) = (   0.3333330   0.1924499   0.0000000  )
        11           C   tau(  11) = (   0.1666665   0.2886748   0.0000000  )
        12           Cu  tau(  12) = (   0.1666665   0.4811247   0.0000000  )
        13           C   tau(  13) = (   0.0000000   0.5773496   0.0000000  )
        14           C   tau(  14) = (   0.0000000   0.7697995   0.0000000  )
        15           C   tau(  15) = (   0.6666660   0.0000000   0.0000000  )
        16           C   tau(  16) = (   0.6666660   0.1924499   0.0000000  )
        17           C   tau(  17) = (   0.4999995   0.2886748   0.0000000  )
        18           C   tau(  18) = (   0.4999995   0.4811247   0.0000000  )
        19           C   tau(  19) = (   0.3333330   0.5773496   0.0000000  )
        20           C   tau(  20) = (   0.3333330   0.7697995   0.0000000  )

   Crystallographic axes

     site n.     atom                  positions (cryst. coord.)
         1           H   tau(   1) = (  0.5555549  0.6111105  0.2600000  )
         2           H   tau(   2) = (  0.5555549  0.6111105  0.3352072  )
         3           C   tau(   3) = (  0.0000000  0.0000000  0.0000000  )
         4           C   tau(   4) = (  0.1111110  0.2222220  0.0000000  )
         5           C   tau(   5) = (  0.0000000  0.3333330  0.0000000  )
         6           C   tau(   6) = (  0.1111110  0.5555550  0.0000000  )
         7           C   tau(   7) = (  0.0000000  0.6666660  0.0000000  )
         8           C   tau(   8) = (  0.1111110  0.8888879  0.0000000  )
         9           C   tau(   9) = (  0.3333330  0.0000000  0.0000000  )
        10           C   tau(  10) = (  0.4444440  0.2222220  0.0000000  )
        11           C   tau(  11) = (  0.3333330  0.3333330  0.0000000  )
        12           Cu  tau(  12) = (  0.4444440  0.5555550  0.0000000  )
        13           C   tau(  13) = (  0.3333330  0.6666660  0.0000000  )
        14           C   tau(  14) = (  0.4444440  0.8888879  0.0000000  )
        15           C   tau(  15) = (  0.6666660  0.0000000  0.0000000  )
        16           C   tau(  16) = (  0.7777769  0.2222220  0.0000000  )
        17           C   tau(  17) = (  0.6666660  0.3333330  0.0000000  )
        18           C   tau(  18) = (  0.7777769  0.5555550  0.0000000  )
        19           C   tau(  19) = (  0.6666660  0.6666660  0.0000000  )
        20           C   tau(  20) = (  0.7777769  0.8888879  0.0000000  )

     number of k points=     7  Marzari-Vanderbilt smearing, width (Ry)=  0.0010
                       cart. coord. in units 2pi/alat
        k(    1) = (   0.0000000   0.0000000   0.0000000), wk =   0.1250000
        k(    2) = (   0.0000000   0.2886751   0.0000000), wk =   0.5000000
        k(    3) = (   0.0000000  -0.5773503   0.0000000), wk =   0.2500000
        k(    4) = (   0.2500000   0.4330127   0.0000000), wk =   0.5000000
        k(    5) = (   0.2500000   0.1443376   0.0000000), wk =   0.2500000
        k(    6) = (  -0.5000000  -0.2886751   0.0000000), wk =   0.1250000
        k(    7) = (  -0.2500000   0.4330127   0.0000000), wk =   0.2500000

                       cryst. coord.
        k(    1) = (   0.0000000   0.0000000   0.0000000), wk =   0.1250000
        k(    2) = (   0.0000000   0.2500000   0.0000000), wk =   0.5000000
        k(    3) = (   0.0000000  -0.5000000   0.0000000), wk =   0.2500000
        k(    4) = (   0.2500000   0.2500000   0.0000000), wk =   0.5000000
        k(    5) = (   0.2500000   0.0000000   0.0000000), wk =   0.2500000
        k(    6) = (  -0.5000000   0.0000000   0.0000000), wk =   0.1250000
        k(    7) = (  -0.2500000   0.5000000   0.0000000), wk =   0.2500000

     Dense  grid:   585649 G-vectors     FFT dimensions: ( 100, 108, 135)

     Smooth grid:   252941 G-vectors     FFT dimensions: (  75,  75, 108)

     Dynamical RAM for                 wfc:       3.94 MB

     Dynamical RAM for     wfc (w. buffer):      31.52 MB

     Dynamical RAM for           str. fact:       4.47 MB

     Dynamical RAM for           local pot:       0.00 MB

     Dynamical RAM for          nlocal pot:      12.70 MB

     Dynamical RAM for                qrad:      11.84 MB

     Dynamical RAM for          rho,v,vnew:      10.15 MB

     Dynamical RAM for               rhoin:       3.38 MB

     Dynamical RAM for            rho*nmix:      23.83 MB

     Dynamical RAM for           G-vectors:       5.91 MB

     Dynamical RAM for          h,s,v(r/c):       1.76 MB

     Dynamical RAM for          <psi|beta>:       0.12 MB

     Dynamical RAM for                 psi:      15.76 MB

     Dynamical RAM for                hpsi:      15.76 MB

     Dynamical RAM for                spsi:      15.76 MB

     Dynamical RAM for      wfcinit/wfcrot:      12.85 MB

     Dynamical RAM for           addusdens:     302.36 MB

     Estimated static dynamical RAM per process >     119.24 MB

     Estimated max dynamical RAM per process >     421.60 MB

     Estimated total dynamical RAM >       2.47 GB

     Check: negative core charge=   -0.000002

     Initial potential from superposition of free atoms

     starting charge   80.80665, renormalised to   81.00000


---------------------------------------------------------------------------------
Carrying out rVV10 run using the following parameters:
Nqs =      20    Nr_points =    1024   r_max =   100.000
b_value =  6.30000    beta =  0.00901
     q_mesh =  0.00010000  0.00030000  0.00058939  0.00100810
               0.00161396  0.00249058  0.00375900  0.00559430
               0.00824984  0.01209221  0.01765183  0.02569619
               0.03733578  0.05417739  0.07854596  0.11380545
               0.16482331  0.23864234  0.34545298  0.50000000

Gradients computed in Reciprocal space

---------------------------------------------------------------------------------


     Starting wfcs are   79 randomized atomic wfcs

     total cpu time spent up to now is       19.3 secs

     Self-consistent Calculation

     iteration #  1     ecut=    70.00 Ry     beta= 0.70
     Davidson diagonalization with overlap
     ethr =  1.00E-02,  avg # of iterations =  2.1

     total cpu time spent up to now is       43.2 secs

     total energy              =    -333.82115407 Ry
     Harris-Foulkes estimate   =    -337.33191778 Ry
     estimated scf accuracy    <       4.78121988 Ry

     iteration #  2     ecut=    70.00 Ry     beta= 0.70
     Davidson diagonalization with overlap
     ethr =  5.90E-03,  avg # of iterations =  4.0

     total cpu time spent up to now is       66.9 secs

     total energy              =    -333.79718943 Ry
     Harris-Foulkes estimate   =    -339.17227697 Ry
     estimated scf accuracy    <      12.93854497 Ry

     iteration #  3     ecut=    70.00 Ry     beta= 0.70
     Davidson diagonalization with overlap
     ethr =  5.90E-03,  avg # of iterations =  2.7

     total cpu time spent up to now is       88.2 secs

     total energy              =    -335.56436804 Ry
     Harris-Foulkes estimate   =    -336.19221447 Ry
     estimated scf accuracy    <       1.24405016 Ry

     iteration #  4     ecut=    70.00 Ry     beta= 0.70
     Davidson diagonalization with overlap
     ethr =  1.54E-03,  avg # of iterations =  2.3

     total cpu time spent up to now is      109.5 secs

     total energy              =    -335.83114642 Ry
     Harris-Foulkes estimate   =    -335.95165284 Ry
     estimated scf accuracy    <       0.33378079 Ry

     iteration #  5     ecut=    70.00 Ry     beta= 0.70
     Davidson diagonalization with overlap
     ethr =  4.12E-04,  avg # of iterations =  3.4

     negative rho (up, down):  6.424E-08 0.000E+00

     total cpu time spent up to now is      128.6 secs

     total energy              =    -335.90413070 Ry
     Harris-Foulkes estimate   =    -335.91283797 Ry
     estimated scf accuracy    <       0.03099079 Ry

     iteration #  6     ecut=    70.00 Ry     beta= 0.70
     Davidson diagonalization with overlap
     ethr =  3.83E-05,  avg # of iterations =  7.3

     negative rho (up, down):  4.549E-06 0.000E+00

     total cpu time spent up to now is      148.8 secs

     total energy              =    -335.90781472 Ry
     Harris-Foulkes estimate   =    -335.90895632 Ry
     estimated scf accuracy    <       0.00248434 Ry

     iteration #  7     ecut=    70.00 Ry     beta= 0.70
     Davidson diagonalization with overlap
     ethr =  3.07E-06,  avg # of iterations =  4.9

     negative rho (up, down):  4.895E-05 0.000E+00

     total cpu time spent up to now is      172.5 secs

     total energy              =    -335.90803746 Ry
     Harris-Foulkes estimate   =    -335.90911163 Ry
     estimated scf accuracy    <       0.00314253 Ry

     iteration #  8     ecut=    70.00 Ry     beta= 0.70
     Davidson diagonalization with overlap
     ethr =  3.07E-06,  avg # of iterations =  3.0

     negative rho (up, down):  8.089E-05 0.000E+00

     total cpu time spent up to now is      191.3 secs

     total energy              =    -335.90838864 Ry
     Harris-Foulkes estimate   =    -335.90864780 Ry
     estimated scf accuracy    <       0.00084589 Ry

     iteration #  9     ecut=    70.00 Ry     beta= 0.70
     Davidson diagonalization with overlap
     ethr =  1.04E-06,  avg # of iterations =  2.0

     negative rho (up, down):  1.029E-04 0.000E+00

     total cpu time spent up to now is      208.6 secs

     total energy              =    -335.90850880 Ry
     Harris-Foulkes estimate   =    -335.90855927 Ry
     estimated scf accuracy    <       0.00016545 Ry

     iteration # 10     ecut=    70.00 Ry     beta= 0.70
     Davidson diagonalization with overlap
     ethr =  2.04E-07,  avg # of iterations =  2.0

     negative rho (up, down):  1.143E-04 0.000E+00

     total cpu time spent up to now is      227.1 secs

     total energy              =    -335.90852708 Ry
     Harris-Foulkes estimate   =    -335.90853893 Ry
     estimated scf accuracy    <       0.00003267 Ry

     iteration # 11     ecut=    70.00 Ry     beta= 0.70
     Davidson diagonalization with overlap
     ethr =  4.03E-08,  avg # of iterations =  2.0

     negative rho (up, down):  1.153E-04 0.000E+00

     total cpu time spent up to now is      244.9 secs

     total energy              =    -335.90852987 Ry
     Harris-Foulkes estimate   =    -335.90853138 Ry
     estimated scf accuracy    <       0.00000396 Ry

     iteration # 12     ecut=    70.00 Ry     beta= 0.70
     Davidson diagonalization with overlap
     ethr =  4.88E-09,  avg # of iterations =  2.0

     negative rho (up, down):  1.153E-04 0.000E+00

     total cpu time spent up to now is      264.1 secs

     End of self-consistent calculation

          k = 0.0000 0.0000 0.0000 ( 31593 PWs)   bands (ev):

   -19.6717 -17.3404 -17.3384 -17.1821 -17.1812 -17.1342 -16.1106 -13.4253
   -13.4233 -13.0390 -11.8988 -11.5222 -11.5213 -10.5648 -10.5647  -9.9434
    -9.4454  -9.4453  -8.8033  -8.6181  -8.6087  -8.3564  -8.3559  -7.8176
    -6.4874  -6.4347  -6.1284  -5.9564  -5.9561  -5.0791  -4.8924  -4.8914
    -4.8016  -4.4682  -4.4680  -4.2614  -4.2566  -3.8323  -0.3094   0.0496
     0.0566   0.1714   0.1722   0.9484   2.8404   4.3916   4.5676   4.6055
     4.6214

     occupation numbers 
     1.0000   1.0000   1.0000   1.0000   1.0000   1.0000   1.0000   1.0000
     1.0000   1.0000   1.0000   1.0000   1.0000   1.0000   1.0000   1.0000
     1.0000   1.0000   1.0000   1.0000   1.0000   1.0000   1.0000   1.0000
     1.0000   1.0000   1.0000   1.0000   1.0000   1.0000   1.0000   1.0000
     1.0000   1.0000   1.0000   1.0000   1.0000   1.0000   0.0000   0.0000
     0.0000   0.0000   0.0000   0.0000   0.0000   0.0000   0.0000   0.0000
     0.0000

          k = 0.0000 0.2887 0.0000 ( 31638 PWs)   bands (ev):

   -19.5122 -18.2387 -17.7119 -17.4019 -16.5321 -16.1759 -15.4756 -14.3893
   -13.7176 -12.7536 -12.3751 -11.7065 -11.6304 -10.7618 -10.0460  -9.9039
    -9.6976  -9.3264  -8.6622  -8.6220  -8.3419  -7.8336  -7.5544  -7.3271
    -7.0232  -6.5009  -6.4115  -6.3937  -5.8552  -5.7668  -5.0868  -5.0473
    -4.9692  -4.6766  -4.4907  -3.7581  -3.6967  -2.8085  -1.4891  -0.8719
    -0.3632  -0.0312   1.1981   1.7042   2.8512   3.0242   3.6274   4.2093
     4.5037

     occupation numbers 
     1.0000   1.0000   1.0000   1.0000   1.0000   1.0000   1.0000   1.0000
     1.0000   1.0000   1.0000   1.0000   1.0000   1.0000   1.0000   1.0000
     1.0000   1.0000   1.0000   1.0000   1.0000   1.0000   1.0000   1.0000
     1.0000   1.0000   1.0000   1.0000   1.0000   1.0000   1.0000   1.0000
     1.0000   1.0000   1.0000   1.0000   1.0000   1.0000   1.0000   1.0000
     0.0000   0.0000   0.0000   0.0000   0.0000   0.0000   0.0000   0.0000
     0.0000

          k = 0.0000-0.5774 0.0000 ( 31614 PWs)   bands (ev):

   -19.1256 -18.9189 -17.8602 -17.5406 -15.7140 -15.3743 -15.3236 -14.9788
   -14.1837 -13.2890 -12.2581 -12.0763 -11.3960 -11.1241 -10.6185  -9.9632
    -8.6996  -8.6288  -8.3988  -8.1713  -8.0149  -7.8616  -7.6566  -7.4427
    -7.0213  -6.7485  -6.3911  -6.3834  -6.2236  -5.9874  -5.8836  -5.2422
    -5.1898  -4.4022  -4.2680  -2.9113  -2.7400  -2.5801  -2.3589  -1.5750
    -1.0002  -0.2443   1.6864   2.2531   2.4791   2.6268   3.4344   3.6243
     3.9396

     occupation numbers 
     1.0000   1.0000   1.0000   1.0000   1.0000   1.0000   1.0000   1.0000
     1.0000   1.0000   1.0000   1.0000   1.0000   1.0000   1.0000   1.0000
     1.0000   1.0000   1.0000   1.0000   1.0000   1.0000   1.0000   1.0000
     1.0000   1.0000   1.0000   1.0000   1.0000   1.0000   1.0000   1.0000
     1.0000   1.0000   1.0000   1.0000   1.0000   1.0000   1.0000   1.0000
     1.0000   0.0000   0.0000   0.0000   0.0000   0.0000   0.0000   0.0000
     0.0000

          k = 0.2500 0.4330 0.0000 ( 31601 PWs)   bands (ev):

   -19.2038 -18.6428 -18.3773 -16.7599 -16.5192 -15.4401 -15.1434 -14.8330
   -13.7872 -13.1627 -12.8819 -12.2052 -11.4278 -11.1605 -10.0993  -9.4632
    -8.9457  -8.6905  -8.6494  -8.6388  -8.2186  -7.6463  -7.4348  -7.1936
    -7.0904  -6.8009  -6.5084  -6.2854  -6.2629  -6.0414  -5.9615  -5.1061
    -4.8411  -4.3113  -4.0992  -3.8783  -2.8108  -2.4780  -2.0738  -1.3579
    -0.7935  -0.4274   1.5626   1.8449   2.2538   3.1468   3.3895   4.0970
     4.2834

     occupation numbers 
     1.0000   1.0000   1.0000   1.0000   1.0000   1.0000   1.0000   1.0000
     1.0000   1.0000   1.0000   1.0000   1.0000   1.0000   1.0000   1.0000
     1.0000   1.0000   1.0000   1.0000   1.0000   1.0000   1.0000   1.0000
     1.0000   1.0000   1.0000   1.0000   1.0000   1.0000   1.0000   1.0000
     1.0000   1.0000   1.0000   1.0000   1.0000   1.0000   1.0000   1.0000
     1.0000   0.1610   0.0000   0.0000   0.0000   0.0000   0.0000   0.0000
     0.0000

          k = 0.2500 0.1443 0.0000 ( 31638 PWs)   bands (ev):

   -19.5121 -18.2391 -17.7114 -17.4018 -16.5317 -16.1768 -15.4754 -14.3887
   -13.7186 -12.7535 -12.3740 -11.7071 -11.6305 -10.7611 -10.0460  -9.9041
    -9.6976  -9.3267  -8.6685  -8.6154  -8.3427  -7.8334  -7.5542  -7.3261
    -7.0235  -6.5089  -6.3985  -6.3969  -5.8590  -5.7670  -5.0877  -5.0506
    -4.9652  -4.6746  -4.4907  -3.7592  -3.6941  -2.8106  -1.4873  -0.8735
    -0.3639  -0.0305   1.2009   1.7026   2.8374   3.0353   3.6296   4.2100
     4.5003

     occupation numbers 
     1.0000   1.0000   1.0000   1.0000   1.0000   1.0000   1.0000   1.0000
     1.0000   1.0000   1.0000   1.0000   1.0000   1.0000   1.0000   1.0000
     1.0000   1.0000   1.0000   1.0000   1.0000   1.0000   1.0000   1.0000
     1.0000   1.0000   1.0000   1.0000   1.0000   1.0000   1.0000   1.0000
     1.0000   1.0000   1.0000   1.0000   1.0000   1.0000   1.0000   1.0000
     0.0000   0.0000   0.0000   0.0000   0.0000   0.0000   0.0000   0.0000
     0.0000

          k =-0.5000-0.2887 0.0000 ( 31614 PWs)   bands (ev):

   -19.1250 -18.9198 -17.8597 -17.5406 -15.7130 -15.3744 -15.3249 -14.9797
   -14.1823 -13.2892 -12.2573 -12.0775 -11.3961 -11.1229 -10.6185  -9.9636
    -8.7060  -8.6220  -8.3985  -8.1719  -8.0139  -7.8619  -7.6607  -7.4431
    -7.0182  -6.7440  -6.3841  -6.3833  -6.2362  -5.9880  -5.8868  -5.2278
    -5.1992  -4.4021  -4.2677  -2.9109  -2.7402  -2.5787  -2.3589  -1.5765
    -1.0006  -0.2436   1.6880   2.2546   2.4700   2.6307   3.4366   3.6284
     3.9306

     occupation numbers 
     1.0000   1.0000   1.0000   1.0000   1.0000   1.0000   1.0000   1.0000
     1.0000   1.0000   1.0000   1.0000   1.0000   1.0000   1.0000   1.0000
     1.0000   1.0000   1.0000   1.0000   1.0000   1.0000   1.0000   1.0000
     1.0000   1.0000   1.0000   1.0000   1.0000   1.0000   1.0000   1.0000
     1.0000   1.0000   1.0000   1.0000   1.0000   1.0000   1.0000   1.0000
     1.0000   0.0000   0.0000   0.0000   0.0000   0.0000   0.0000   0.0000
     0.0000

          k =-0.2500 0.4330 0.0000 ( 31601 PWs)   bands (ev):

   -19.2040 -18.6421 -18.3779 -16.7600 -16.5195 -15.4394 -15.1423 -14.8348
   -13.7867 -13.1624 -12.8822 -12.2055 -11.4284 -11.1598 -10.0995  -9.4634
    -8.9455  -8.6849  -8.6495  -8.6439  -8.2184  -7.6466  -7.4345  -7.1946
    -7.0906  -6.8009  -6.5127  -6.2876  -6.2464  -6.0394  -5.9735  -5.1055
    -4.8401  -4.3122  -4.0899  -3.8896  -2.8117  -2.4749  -2.0728  -1.3592
    -0.7931  -0.4280   1.5586   1.8426   2.2609   3.1585   3.3843   4.1004
     4.2748

     occupation numbers 
     1.0000   1.0000   1.0000   1.0000   1.0000   1.0000   1.0000   1.0000
     1.0000   1.0000   1.0000   1.0000   1.0000   1.0000   1.0000   1.0000
     1.0000   1.0000   1.0000   1.0000   1.0000   1.0000   1.0000   1.0000
     1.0000   1.0000   1.0000   1.0000   1.0000   1.0000   1.0000   1.0000
     1.0000   1.0000   1.0000   1.0000   1.0000   1.0000   1.0000   1.0000
     1.0000   0.1781   0.0000   0.0000   0.0000   0.0000   0.0000   0.0000
     0.0000

     the Fermi energy is    -0.4334 ev

!    total energy              =    -335.90853042 Ry
     Harris-Foulkes estimate   =    -335.90853055 Ry
     estimated scf accuracy    <       0.00000016 Ry

     The total energy is the sum of the following terms:

     one-electron contribution =   -1037.41333951 Ry
     hartree contribution      =     545.13534505 Ry
     xc contribution           =    -126.20827244 Ry
     ewald contribution        =     282.57783083 Ry
     smearing contrib. (-TS)   =      -0.00009436 Ry

     convergence has been achieved in  12 iterations

     Writing output data file gr-12.save/

     init_run     :     17.72s CPU     18.12s WALL (       1 calls)
     electrons    :    238.98s CPU    244.83s WALL (       1 calls)

     Called by init_run:
     wfcinit      :      8.87s CPU      8.96s WALL (       1 calls)
     wfcinit:atom :      0.04s CPU      0.04s WALL (       7 calls)
     wfcinit:wfcr :      8.64s CPU      8.73s WALL (       7 calls)
     potinit      :      4.13s CPU      4.25s WALL (       1 calls)
     hinit0       :      3.92s CPU      3.94s WALL (       1 calls)

     Called by electrons:
     c_bands      :    174.72s CPU    175.80s WALL (      12 calls)
     sum_band     :     32.26s CPU     34.21s WALL (      12 calls)
     v_of_rho     :     24.98s CPU     26.29s WALL (      13 calls)
     v_h          :      0.27s CPU      0.29s WALL (      13 calls)
     v_xc         :     24.71s CPU     26.01s WALL (      13 calls)
     newd         :      8.47s CPU     10.20s WALL (      13 calls)
     mix_rho      :      0.65s CPU      0.66s WALL (      12 calls)

     Called by c_bands:
     init_us_2    :      1.26s CPU      1.26s WALL (     175 calls)
     cegterg      :    171.02s CPU    172.08s WALL (      84 calls)

     Called by sum_band:
     sum_band:bec :      0.01s CPU      0.01s WALL (      84 calls)
     addusdens    :     10.09s CPU     11.84s WALL (      12 calls)

     Called by *egterg:
     h_psi        :    105.37s CPU    106.39s WALL (     355 calls)
     s_psi        :     30.51s CPU     30.55s WALL (     355 calls)
     g_psi        :      0.24s CPU      0.24s WALL (     264 calls)
     cdiaghg      :      2.21s CPU      2.21s WALL (     348 calls)
     cegterg:over :     14.72s CPU     14.75s WALL (     264 calls)
     cegterg:upda :      9.86s CPU      9.89s WALL (     264 calls)
     cegterg:last :      8.13s CPU      8.14s WALL (      84 calls)

     Called by h_psi:
     h_psi:pot    :    105.00s CPU    106.00s WALL (     355 calls)
     h_psi:calbec :     32.27s CPU     32.33s WALL (     355 calls)
     vloc_psi     :     40.10s CPU     41.00s WALL (     355 calls)
     add_vuspsi   :     32.62s CPU     32.67s WALL (     355 calls)

     General routines
     calbec       :     44.43s CPU     44.51s WALL (     439 calls)
     fft          :     13.39s CPU     13.81s WALL (     817 calls)
     ffts         :      0.10s CPU      0.10s WALL (      25 calls)
     fftw         :     42.88s CPU     43.83s WALL (   25646 calls)
     interpolate  :      0.32s CPU      0.33s WALL (      13 calls)

     Parallel routines
     fft_scatt_xy :      6.83s CPU      6.95s WALL (   26488 calls)
     fft_scatt_yz :     23.35s CPU     24.11s WALL (   26488 calls)

     PWSCF        :   4m17.93s CPU   4m24.37s WALL


   This run was terminated on:  23:59:23  29Sep2023            

=------------------------------------------------------------------------------=
   JOB DONE.
=------------------------------------------------------------------------------=
