
     Program PWSCF v.6.4.1 starts on 29Sep2023 at 23:37:43 

     This program is part of the open-source Quantum ESPRESSO suite
     for quantum simulation of materials; please cite
         "P. Giannozzi et al., J. Phys.:Condens. Matter 21 395502 (2009);
         "P. Giannozzi et al., J. Phys.:Condens. Matter 29 465901 (2017);
          URL http://www.quantum-espresso.org", 
     in publications or presentations arising from this work. More details at
     http://www.quantum-espresso.org/quote

     Parallel version (MPI), running on     6 processors

     MPI processes distributed on     1 nodes
     R & G space division:  proc/nbgrp/npool/nimage =       6
     Reading input from distance-4.0.in

     Current dimensions of program PWSCF are:
     Max number of different atomic species (ntypx) = 10
     Max number of k-points (npk) =  40000
     Max angular momentum in pseudopotentials (lmaxx) =  3

     IMPORTANT: XC functional enforced from input :
     Exchange-correlation      = RVV10 ( 1  4 13  4 3 0)
     Any further DFT definition will be discarded
     Please, verify this is what you really want

               file H.pbe-rrkjus.UPF: wavefunction(s)  1S renormalized
               file Cu.pbe-dn-rrkjus_psl.1.0.0.UPF: wavefunction(s)  3D renormalized

     Subspace diagonalization in iterative solution of the eigenvalue problem:
     a serial algorithm will be used


     Parallelization info
     --------------------
     sticks:   dense  smooth     PW     G-vecs:    dense   smooth      PW
     Min        1102     631    167                97606    42156    5775
     Max        1103     633    168                97613    42157    5780
     Sum        6613    3793   1003               585649   252941   34665



     bravais-lattice index     =            4
     lattice parameter (alat)  =      13.9762  a.u.
     unit-cell volume          =    3196.7546 (a.u.)^3
     number of atoms/cell      =           20
     number of atomic types    =            3
     number of electrons       =        81.00
     number of Kohn-Sham states=           49
     kinetic-energy cutoff     =      70.0000  Ry
     charge density cutoff     =     490.0000  Ry
     convergence threshold     =      1.0E-06
     mixing beta               =       0.7000
     number of iterations used =            8  plain     mixing
     Exchange-correlation      = RVV10 ( 1  4 13  4 3 0)

     celldm(1)=  13.976226  celldm(2)=   0.000000  celldm(3)=   1.352100
     celldm(4)=   0.000000  celldm(5)=   0.000000  celldm(6)=   0.000000

     crystal axes: (cart. coord. in units of alat)
               a(1) = (   1.000000   0.000000   0.000000 )  
               a(2) = (  -0.500000   0.866025   0.000000 )  
               a(3) = (   0.000000   0.000000   1.352100 )  

     reciprocal axes: (cart. coord. in units 2 pi/alat)
               b(1) = (  1.000000  0.577350 -0.000000 )  
               b(2) = (  0.000000  1.154701  0.000000 )  
               b(3) = (  0.000000 -0.000000  0.739590 )  


     PseudoPot. # 1 for H  read from file:
     /home/cristian/Escritorio/Proyecto_Grafeno/pseudopotenciales/H.pbe-rrkjus.UPF
     MD5 check sum: 7cc9d459525c9a0585f487a71c3c9563
     Pseudo is Ultrasoft, Zval =  1.0
     Generated by new atomic code, or converted to UPF format
     Using radial grid of 1061 points,  2 beta functions with: 
                l(1) =   0
                l(2) =   0
     Q(r) pseudized with 0 coefficients 


     PseudoPot. # 2 for C  read from file:
     /home/cristian/Escritorio/Proyecto_Grafeno/pseudopotenciales/C.pbe-n-rrkjus_psl.1.0.0.UPF
     MD5 check sum: 1fdd950c42eb37d8afe3dd2f8d12311e
     Pseudo is Ultrasoft + core correction, Zval =  4.0
     Generated using "atomic" code by A. Dal Corso v.6.3MaX
     Using radial grid of 1073 points,  4 beta functions with: 
                l(1) =   0
                l(2) =   0
                l(3) =   1
                l(4) =   1
     Q(r) pseudized with 0 coefficients 


     PseudoPot. # 3 for Cu read from file:
     /home/cristian/Escritorio/Proyecto_Grafeno/pseudopotenciales/Cu.pbe-dn-rrkjus_psl.1.0.0.UPF
     MD5 check sum: ba3d6c84e19846e79d48cdc68ff7152b
     Pseudo is Ultrasoft + core correction, Zval = 11.0
     Generated using "atomic" code by A. Dal Corso v.6.3
     Using radial grid of 1199 points,  6 beta functions with: 
                l(1) =   0
                l(2) =   0
                l(3) =   1
                l(4) =   1
                l(5) =   2
                l(6) =   2
     Q(r) pseudized with 0 coefficients 


     vdW kernel table read from file rVV10_kernel_table
     MD5 check sum: b8e2538accc0c0b3206b45ba4daaba6c

     atomic species   valence    mass     pseudopotential
        H              1.00     1.00794     H ( 1.00)
        C              4.00    12.01070     C ( 1.00)
        Cu            11.00    63.54600     Cu( 1.00)

      2 Sym. Ops. (no inversion) found ( 1 have fractional translation)


                                    s                        frac. trans.

      isym =  1     identity                                     

 cryst.   s( 1) = (     1          0          0      )
                  (     0          1          0      )
                  (     0          0          1      )

 cart.    s( 1) = (  1.0000000  0.0000000  0.0000000 )
                  (  0.0000000  1.0000000  0.0000000 )
                  (  0.0000000  0.0000000  1.0000000 )


      isym =  2     inv. 180 deg rotation - cryst. axis [0,1,0]  

 cryst.   s( 2) = (     1          1          0      )    f =(  0.0000000 )
                  (     0         -1          0      )       (  0.3333340 )
                  (     0          0          1      )       (  0.0000000 )

 cart.    s( 2) = (  0.5000000  0.8660254  0.0000000 )    f =( -0.1666670 )
                  (  0.8660254 -0.5000000  0.0000000 )       (  0.2886757 )
                  (  0.0000000  0.0000000  1.0000000 )       (  0.0000000 )


     point group C_s (m)    
     there are  2 classes
     the character table:

       E     s    
A'     1.00  1.00
A''    1.00 -1.00

     the symmetry operations in each class and the name of the first element:

     E        1
          identity                                               
     s        2
          inv. 180 deg rotation - cryst. axis [0,1,0]            

   Cartesian axes

     site n.     atom                  positions (alat units)
         1           H   tau(   1) = (   0.2499997   0.5292372   0.5408402  )
         2           H   tau(   2) = (   0.2499997   0.5292372   0.6425279  )
         3           C   tau(   3) = (   0.0000000   0.0000000   0.0000000  )
         4           C   tau(   4) = (   0.0000000   0.1924499   0.0000000  )
         5           C   tau(   5) = (  -0.1666665   0.2886748   0.0000000  )
         6           C   tau(   6) = (  -0.1666665   0.4811247   0.0000000  )
         7           C   tau(   7) = (  -0.3333330   0.5773496   0.0000000  )
         8           C   tau(   8) = (  -0.3333330   0.7697995   0.0000000  )
         9           C   tau(   9) = (   0.3333330   0.0000000   0.0000000  )
        10           C   tau(  10) = (   0.3333330   0.1924499   0.0000000  )
        11           C   tau(  11) = (   0.1666665   0.2886748   0.0000000  )
        12           Cu  tau(  12) = (   0.1666665   0.4811247   0.0000000  )
        13           C   tau(  13) = (   0.0000000   0.5773496   0.0000000  )
        14           C   tau(  14) = (   0.0000000   0.7697995   0.0000000  )
        15           C   tau(  15) = (   0.6666660   0.0000000   0.0000000  )
        16           C   tau(  16) = (   0.6666660   0.1924499   0.0000000  )
        17           C   tau(  17) = (   0.4999995   0.2886748   0.0000000  )
        18           C   tau(  18) = (   0.4999995   0.4811247   0.0000000  )
        19           C   tau(  19) = (   0.3333330   0.5773496   0.0000000  )
        20           C   tau(  20) = (   0.3333330   0.7697995   0.0000000  )

   Crystallographic axes

     site n.     atom                  positions (cryst. coord.)
         1           H   tau(   1) = (  0.5555549  0.6111105  0.4000000  )
         2           H   tau(   2) = (  0.5555549  0.6111105  0.4752072  )
         3           C   tau(   3) = (  0.0000000  0.0000000  0.0000000  )
         4           C   tau(   4) = (  0.1111110  0.2222220  0.0000000  )
         5           C   tau(   5) = (  0.0000000  0.3333330  0.0000000  )
         6           C   tau(   6) = (  0.1111110  0.5555550  0.0000000  )
         7           C   tau(   7) = (  0.0000000  0.6666660  0.0000000  )
         8           C   tau(   8) = (  0.1111110  0.8888879  0.0000000  )
         9           C   tau(   9) = (  0.3333330  0.0000000  0.0000000  )
        10           C   tau(  10) = (  0.4444440  0.2222220  0.0000000  )
        11           C   tau(  11) = (  0.3333330  0.3333330  0.0000000  )
        12           Cu  tau(  12) = (  0.4444440  0.5555550  0.0000000  )
        13           C   tau(  13) = (  0.3333330  0.6666660  0.0000000  )
        14           C   tau(  14) = (  0.4444440  0.8888879  0.0000000  )
        15           C   tau(  15) = (  0.6666660  0.0000000  0.0000000  )
        16           C   tau(  16) = (  0.7777769  0.2222220  0.0000000  )
        17           C   tau(  17) = (  0.6666660  0.3333330  0.0000000  )
        18           C   tau(  18) = (  0.7777769  0.5555550  0.0000000  )
        19           C   tau(  19) = (  0.6666660  0.6666660  0.0000000  )
        20           C   tau(  20) = (  0.7777769  0.8888879  0.0000000  )

     number of k points=     7  Marzari-Vanderbilt smearing, width (Ry)=  0.0010
                       cart. coord. in units 2pi/alat
        k(    1) = (   0.0000000   0.0000000   0.0000000), wk =   0.1250000
        k(    2) = (   0.0000000   0.2886751   0.0000000), wk =   0.5000000
        k(    3) = (   0.0000000  -0.5773503   0.0000000), wk =   0.2500000
        k(    4) = (   0.2500000   0.4330127   0.0000000), wk =   0.5000000
        k(    5) = (   0.2500000   0.1443376   0.0000000), wk =   0.2500000
        k(    6) = (  -0.5000000  -0.2886751   0.0000000), wk =   0.1250000
        k(    7) = (  -0.2500000   0.4330127   0.0000000), wk =   0.2500000

                       cryst. coord.
        k(    1) = (   0.0000000   0.0000000   0.0000000), wk =   0.1250000
        k(    2) = (   0.0000000   0.2500000   0.0000000), wk =   0.5000000
        k(    3) = (   0.0000000  -0.5000000   0.0000000), wk =   0.2500000
        k(    4) = (   0.2500000   0.2500000   0.0000000), wk =   0.5000000
        k(    5) = (   0.2500000   0.0000000   0.0000000), wk =   0.2500000
        k(    6) = (  -0.5000000   0.0000000   0.0000000), wk =   0.1250000
        k(    7) = (  -0.2500000   0.5000000   0.0000000), wk =   0.2500000

     Dense  grid:   585649 G-vectors     FFT dimensions: ( 100, 108, 135)

     Smooth grid:   252941 G-vectors     FFT dimensions: (  75,  75, 108)

     Dynamical RAM for                 wfc:       3.94 MB

     Dynamical RAM for     wfc (w. buffer):      31.52 MB

     Dynamical RAM for           str. fact:       4.47 MB

     Dynamical RAM for           local pot:       0.00 MB

     Dynamical RAM for          nlocal pot:      12.70 MB

     Dynamical RAM for                qrad:      11.84 MB

     Dynamical RAM for          rho,v,vnew:      10.15 MB

     Dynamical RAM for               rhoin:       3.38 MB

     Dynamical RAM for            rho*nmix:      23.83 MB

     Dynamical RAM for           G-vectors:       5.91 MB

     Dynamical RAM for          h,s,v(r/c):       1.76 MB

     Dynamical RAM for          <psi|beta>:       0.12 MB

     Dynamical RAM for                 psi:      15.76 MB

     Dynamical RAM for                hpsi:      15.76 MB

     Dynamical RAM for                spsi:      15.76 MB

     Dynamical RAM for      wfcinit/wfcrot:      12.85 MB

     Dynamical RAM for           addusdens:     302.36 MB

     Estimated static dynamical RAM per process >     119.24 MB

     Estimated max dynamical RAM per process >     421.60 MB

     Estimated total dynamical RAM >       2.47 GB

     Check: negative core charge=   -0.000002

     Initial potential from superposition of free atoms

     starting charge   80.80665, renormalised to   81.00000


---------------------------------------------------------------------------------
Carrying out rVV10 run using the following parameters:
Nqs =      20    Nr_points =    1024   r_max =   100.000
b_value =  6.30000    beta =  0.00901
     q_mesh =  0.00010000  0.00030000  0.00058939  0.00100810
               0.00161396  0.00249058  0.00375900  0.00559430
               0.00824984  0.01209221  0.01765183  0.02569619
               0.03733578  0.05417739  0.07854596  0.11380545
               0.16482331  0.23864234  0.34545298  0.50000000

Gradients computed in Reciprocal space

---------------------------------------------------------------------------------


     Starting wfcs are   79 randomized atomic wfcs

     total cpu time spent up to now is       19.0 secs

     Self-consistent Calculation

     iteration #  1     ecut=    70.00 Ry     beta= 0.70
     Davidson diagonalization with overlap
     ethr =  1.00E-02,  avg # of iterations =  2.0

     total cpu time spent up to now is       42.5 secs

     total energy              =    -333.70599196 Ry
     Harris-Foulkes estimate   =    -337.36245599 Ry
     estimated scf accuracy    <       4.94592597 Ry

     iteration #  2     ecut=    70.00 Ry     beta= 0.70
     Davidson diagonalization with overlap
     ethr =  6.11E-03,  avg # of iterations =  4.1

     total cpu time spent up to now is       66.4 secs

     total energy              =    -333.70738202 Ry
     Harris-Foulkes estimate   =    -339.49220357 Ry
     estimated scf accuracy    <      14.11486017 Ry

     iteration #  3     ecut=    70.00 Ry     beta= 0.70
     Davidson diagonalization with overlap
     ethr =  6.11E-03,  avg # of iterations =  2.6

     total cpu time spent up to now is       87.0 secs

     total energy              =    -335.57707438 Ry
     Harris-Foulkes estimate   =    -336.18076385 Ry
     estimated scf accuracy    <       1.15906180 Ry

     iteration #  4     ecut=    70.00 Ry     beta= 0.70
     Davidson diagonalization with overlap
     ethr =  1.43E-03,  avg # of iterations =  2.9

     total cpu time spent up to now is      108.3 secs

     total energy              =    -335.84744229 Ry
     Harris-Foulkes estimate   =    -335.95097903 Ry
     estimated scf accuracy    <       0.26315670 Ry

     iteration #  5     ecut=    70.00 Ry     beta= 0.70
     Davidson diagonalization with overlap
     ethr =  3.25E-04,  avg # of iterations =  2.4

     total cpu time spent up to now is      127.5 secs

     total energy              =    -335.90335085 Ry
     Harris-Foulkes estimate   =    -335.91068492 Ry
     estimated scf accuracy    <       0.01720896 Ry

     iteration #  6     ecut=    70.00 Ry     beta= 0.70
     Davidson diagonalization with overlap
     ethr =  2.12E-05,  avg # of iterations =  5.9

     negative rho (up, down):  4.600E-08 0.000E+00

     total cpu time spent up to now is      150.3 secs

     total energy              =    -335.90530293 Ry
     Harris-Foulkes estimate   =    -335.91027916 Ry
     estimated scf accuracy    <       0.01409415 Ry

     iteration #  7     ecut=    70.00 Ry     beta= 0.70
     Davidson diagonalization with overlap
     ethr =  1.74E-05,  avg # of iterations =  2.0

     negative rho (up, down):  7.685E-06 0.000E+00

     total cpu time spent up to now is      167.6 secs

     total energy              =    -335.90731462 Ry
     Harris-Foulkes estimate   =    -335.90802844 Ry
     estimated scf accuracy    <       0.00203528 Ry

     iteration #  8     ecut=    70.00 Ry     beta= 0.70
     Davidson diagonalization with overlap
     ethr =  2.51E-06,  avg # of iterations =  5.4

     negative rho (up, down):  3.490E-05 0.000E+00

     total cpu time spent up to now is      187.6 secs

     total energy              =    -335.90766233 Ry
     Harris-Foulkes estimate   =    -335.90774998 Ry
     estimated scf accuracy    <       0.00026031 Ry

     iteration #  9     ecut=    70.00 Ry     beta= 0.70
     Davidson diagonalization with overlap
     ethr =  3.21E-07,  avg # of iterations =  3.3

     negative rho (up, down):  5.593E-05 0.000E+00

     total cpu time spent up to now is      207.1 secs

     total energy              =    -335.90769151 Ry
     Harris-Foulkes estimate   =    -335.90771631 Ry
     estimated scf accuracy    <       0.00004002 Ry

     iteration # 10     ecut=    70.00 Ry     beta= 0.70
     Davidson diagonalization with overlap
     ethr =  4.94E-08,  avg # of iterations =  2.3

     negative rho (up, down):  6.068E-05 0.000E+00

     total cpu time spent up to now is      227.0 secs

     total energy              =    -335.90769941 Ry
     Harris-Foulkes estimate   =    -335.90770277 Ry
     estimated scf accuracy    <       0.00000524 Ry

     iteration # 11     ecut=    70.00 Ry     beta= 0.70
     Davidson diagonalization with overlap
     ethr =  6.46E-09,  avg # of iterations =  2.0

     negative rho (up, down):  5.954E-05 0.000E+00

     total cpu time spent up to now is      246.5 secs

     total energy              =    -335.90770063 Ry
     Harris-Foulkes estimate   =    -335.90770074 Ry
     estimated scf accuracy    <       0.00000103 Ry

     iteration # 12     ecut=    70.00 Ry     beta= 0.70
     Davidson diagonalization with overlap
     ethr =  1.28E-09,  avg # of iterations =  2.0

     negative rho (up, down):  5.950E-05 0.000E+00

     total cpu time spent up to now is      265.5 secs

     End of self-consistent calculation

          k = 0.0000 0.0000 0.0000 ( 31593 PWs)   bands (ev):

   -19.6634 -17.3317 -17.3312 -17.1733 -17.1731 -17.1263 -16.0999 -13.4151
   -13.4148 -13.0312 -11.8898 -11.5130 -11.5128 -10.5564 -10.5563  -9.9351
    -9.4363  -9.4361  -8.7918  -8.5956  -8.5953  -8.3474  -8.3473  -7.7780
    -6.4794  -6.3163  -6.1203  -5.9481  -5.9479  -5.1370  -4.8851  -4.8845
    -4.7953  -4.4595  -4.4594  -4.2537  -4.2529  -3.8705  -0.3022   0.0633
     0.0640   0.1844   0.1845   0.9601   2.7745   3.7605   4.6207   4.6208
     4.7042

     occupation numbers 
     1.0000   1.0000   1.0000   1.0000   1.0000   1.0000   1.0000   1.0000
     1.0000   1.0000   1.0000   1.0000   1.0000   1.0000   1.0000   1.0000
     1.0000   1.0000   1.0000   1.0000   1.0000   1.0000   1.0000   1.0000
     1.0000   1.0000   1.0000   1.0000   1.0000   1.0000   1.0000   1.0000
     1.0000   1.0000   1.0000   1.0000   1.0000   1.0000   0.0000   0.0000
     0.0000   0.0000   0.0000   0.0000   0.0000   0.0000   0.0000   0.0000
     0.0000

          k = 0.0000 0.2887 0.0000 ( 31638 PWs)   bands (ev):

   -19.5039 -18.2306 -17.7036 -17.3930 -16.5237 -16.1678 -15.4659 -14.3807
   -13.7087 -12.7445 -12.3660 -11.6979 -11.6220 -10.7522 -10.0369  -9.8952
    -9.6893  -9.3178  -8.6460  -8.6022  -8.3306  -7.8248  -7.5067  -7.3089
    -7.0152  -6.4778  -6.3888  -6.3158  -5.8670  -5.7586  -5.0797  -5.0528
    -5.0078  -4.6961  -4.4821  -3.7515  -3.6933  -2.8099  -1.4802  -0.8652
    -0.3510  -0.0183   1.2085   1.7160   2.8647   2.9660   3.6415   3.8651
     4.4478

     occupation numbers 
     1.0000   1.0000   1.0000   1.0000   1.0000   1.0000   1.0000   1.0000
     1.0000   1.0000   1.0000   1.0000   1.0000   1.0000   1.0000   1.0000
     1.0000   1.0000   1.0000   1.0000   1.0000   1.0000   1.0000   1.0000
     1.0000   1.0000   1.0000   1.0000   1.0000   1.0000   1.0000   1.0000
     1.0000   1.0000   1.0000   1.0000   1.0000   1.0000   1.0000   1.0000
     0.0000   0.0000   0.0000   0.0000   0.0000   0.0000   0.0000   0.0000
     0.0000

          k = 0.0000-0.5774 0.0000 ( 31614 PWs)   bands (ev):

   -19.1174 -18.9105 -17.8519 -17.5316 -15.7053 -15.3662 -15.3151 -14.9709
   -14.1736 -13.2804 -12.2489 -12.0674 -11.3873 -11.1146 -10.6093  -9.9542
    -8.6838  -8.6089  -8.3907  -8.1633  -8.0008  -7.8533  -7.6438  -7.4344
    -6.9058  -6.7365  -6.3753  -6.3156  -6.2432  -5.9793  -5.9258  -5.2739
    -5.1911  -4.3937  -4.2858  -2.9035  -2.7338  -2.5714  -2.3502  -1.5744
    -0.9878  -0.2314   1.6990   2.2608   2.4892   2.6439   3.4185   3.6716
     3.7382

     occupation numbers 
     1.0000   1.0000   1.0000   1.0000   1.0000   1.0000   1.0000   1.0000
     1.0000   1.0000   1.0000   1.0000   1.0000   1.0000   1.0000   1.0000
     1.0000   1.0000   1.0000   1.0000   1.0000   1.0000   1.0000   1.0000
     1.0000   1.0000   1.0000   1.0000   1.0000   1.0000   1.0000   1.0000
     1.0000   1.0000   1.0000   1.0000   1.0000   1.0000   1.0000   1.0000
     1.0000   0.0000   0.0000   0.0000   0.0000   0.0000   0.0000   0.0000
     0.0000

          k = 0.2500 0.4330 0.0000 ( 31601 PWs)   bands (ev):

   -19.1957 -18.6347 -18.3684 -16.7515 -16.5108 -15.4315 -15.1347 -14.8246
   -13.7780 -13.1537 -12.8737 -12.1958 -11.4181 -11.1512 -10.0907  -9.4548
    -8.9365  -8.6706  -8.6404  -8.6234  -8.2093  -7.6381  -7.4253  -7.1472
    -7.0365  -6.7923  -6.3213  -6.2782  -6.2774  -6.1186  -6.0309  -5.1040
    -4.8341  -4.3277  -4.0954  -3.8808  -2.8043  -2.4692  -2.0662  -1.3543
    -0.7809  -0.4150   1.5741   1.8548   2.2698   3.1663   3.3421   4.0827
     4.1412

     occupation numbers 
     1.0000   1.0000   1.0000   1.0000   1.0000   1.0000   1.0000   1.0000
     1.0000   1.0000   1.0000   1.0000   1.0000   1.0000   1.0000   1.0000
     1.0000   1.0000   1.0000   1.0000   1.0000   1.0000   1.0000   1.0000
     1.0000   1.0000   1.0000   1.0000   1.0000   1.0000   1.0000   1.0000
     1.0000   1.0000   1.0000   1.0000   1.0000   1.0000   1.0000   1.0000
     1.0000   0.1659   0.0000   0.0000   0.0000   0.0000   0.0000   0.0000
     0.0000

          k = 0.2500 0.1443 0.0000 ( 31638 PWs)   bands (ev):

   -19.5039 -18.2307 -17.7035 -17.3931 -16.5236 -16.1680 -15.4659 -14.3806
   -13.7088 -12.7444 -12.3657 -11.6982 -11.6220 -10.7522 -10.0370  -9.8952
    -9.6892  -9.3179  -8.6462  -8.6020  -8.3306  -7.8248  -7.5067  -7.3088
    -7.0152  -6.4777  -6.3888  -6.3157  -5.8669  -5.7587  -5.0800  -5.0527
    -5.0079  -4.6961  -4.4823  -3.7512  -3.6935  -2.8100  -1.4799  -0.8654
    -0.3510  -0.0182   1.2088   1.7163   2.8616   2.9662   3.6421   3.8730
     4.4415

     occupation numbers 
     1.0000   1.0000   1.0000   1.0000   1.0000   1.0000   1.0000   1.0000
     1.0000   1.0000   1.0000   1.0000   1.0000   1.0000   1.0000   1.0000
     1.0000   1.0000   1.0000   1.0000   1.0000   1.0000   1.0000   1.0000
     1.0000   1.0000   1.0000   1.0000   1.0000   1.0000   1.0000   1.0000
     1.0000   1.0000   1.0000   1.0000   1.0000   1.0000   1.0000   1.0000
     0.0000   0.0000   0.0000   0.0000   0.0000   0.0000   0.0000   0.0000
     0.0000

          k =-0.5000-0.2887 0.0000 ( 31614 PWs)   bands (ev):

   -19.1174 -18.9106 -17.8518 -17.5317 -15.7051 -15.3661 -15.3155 -14.9711
   -14.1733 -13.2802 -12.2487 -12.0676 -11.3876 -11.1146 -10.6094  -9.9543
    -8.6841  -8.6086  -8.3905  -8.1632  -8.0009  -7.8533  -7.6436  -7.4346
    -6.9058  -6.7363  -6.3751  -6.3155  -6.2433  -5.9795  -5.9255  -5.2739
    -5.1913  -4.3940  -4.2858  -2.9033  -2.7335  -2.5710  -2.3515  -1.5736
    -0.9878  -0.2313   1.6984   2.2612   2.4883   2.6439   3.4207   3.6796
     3.7349

     occupation numbers 
     1.0000   1.0000   1.0000   1.0000   1.0000   1.0000   1.0000   1.0000
     1.0000   1.0000   1.0000   1.0000   1.0000   1.0000   1.0000   1.0000
     1.0000   1.0000   1.0000   1.0000   1.0000   1.0000   1.0000   1.0000
     1.0000   1.0000   1.0000   1.0000   1.0000   1.0000   1.0000   1.0000
     1.0000   1.0000   1.0000   1.0000   1.0000   1.0000   1.0000   1.0000
     1.0000   0.0000   0.0000   0.0000   0.0000   0.0000   0.0000   0.0000
     0.0000

          k =-0.2500 0.4330 0.0000 ( 31601 PWs)   bands (ev):

   -19.1957 -18.6345 -18.3686 -16.7516 -16.5107 -15.4313 -15.1345 -14.8249
   -13.7780 -13.1536 -12.8738 -12.1957 -11.4183 -11.1510 -10.0907  -9.4549
    -8.9365  -8.6704  -8.6403  -8.6236  -8.2094  -7.6382  -7.4253  -7.1471
    -7.0365  -6.7924  -6.3231  -6.2798  -6.2737  -6.1189  -6.0310  -5.1039
    -4.8342  -4.3276  -4.0953  -3.8807  -2.8047  -2.4685  -2.0669  -1.3540
    -0.7808  -0.4151   1.5731   1.8546   2.2710   3.1689   3.3418   4.0827
     4.1325

     occupation numbers 
     1.0000   1.0000   1.0000   1.0000   1.0000   1.0000   1.0000   1.0000
     1.0000   1.0000   1.0000   1.0000   1.0000   1.0000   1.0000   1.0000
     1.0000   1.0000   1.0000   1.0000   1.0000   1.0000   1.0000   1.0000
     1.0000   1.0000   1.0000   1.0000   1.0000   1.0000   1.0000   1.0000
     1.0000   1.0000   1.0000   1.0000   1.0000   1.0000   1.0000   1.0000
     1.0000   0.1681   0.0000   0.0000   0.0000   0.0000   0.0000   0.0000
     0.0000

     the Fermi energy is    -0.4208 ev

!    total energy              =    -335.90770076 Ry
     Harris-Foulkes estimate   =    -335.90770080 Ry
     estimated scf accuracy    <       0.00000005 Ry

     The total energy is the sum of the following terms:

     one-electron contribution =   -1020.09239948 Ry
     hartree contribution      =     536.49170993 Ry
     xc contribution           =    -126.19228511 Ry
     ewald contribution        =     273.88536831 Ry
     smearing contrib. (-TS)   =      -0.00009442 Ry

     convergence has been achieved in  12 iterations

     Writing output data file gr-12.save/

     init_run     :     17.47s CPU     17.86s WALL (       1 calls)
     electrons    :    240.64s CPU    246.57s WALL (       1 calls)

     Called by init_run:
     wfcinit      :      8.77s CPU      8.82s WALL (       1 calls)
     wfcinit:atom :      0.03s CPU      0.03s WALL (       7 calls)
     wfcinit:wfcr :      8.56s CPU      8.62s WALL (       7 calls)
     potinit      :      4.07s CPU      4.19s WALL (       1 calls)
     hinit0       :      3.90s CPU      3.91s WALL (       1 calls)

     Called by electrons:
     c_bands      :    178.35s CPU    179.50s WALL (      12 calls)
     sum_band     :     31.52s CPU     33.40s WALL (      12 calls)
     v_of_rho     :     23.82s CPU     25.30s WALL (      13 calls)
     v_h          :      0.25s CPU      0.28s WALL (      13 calls)
     v_xc         :     23.56s CPU     25.02s WALL (      13 calls)
     newd         :      8.30s CPU      9.99s WALL (      13 calls)
     mix_rho      :      0.63s CPU      0.65s WALL (      12 calls)

     Called by c_bands:
     init_us_2    :      1.25s CPU      1.26s WALL (     175 calls)
     cegterg      :    174.79s CPU    175.92s WALL (      84 calls)

     Called by sum_band:
     sum_band:bec :      0.01s CPU      0.01s WALL (      84 calls)
     addusdens    :     10.05s CPU     11.66s WALL (      12 calls)

     Called by *egterg:
     h_psi        :    106.09s CPU    107.11s WALL (     349 calls)
     s_psi        :     32.00s CPU     32.04s WALL (     349 calls)
     g_psi        :      0.25s CPU      0.25s WALL (     258 calls)
     cdiaghg      :      2.17s CPU      2.18s WALL (     342 calls)
     cegterg:over :     14.79s CPU     14.81s WALL (     258 calls)
     cegterg:upda :     10.60s CPU     10.61s WALL (     258 calls)
     cegterg:last :      8.80s CPU      8.80s WALL (      84 calls)

     Called by h_psi:
     h_psi:pot    :    105.73s CPU    106.72s WALL (     349 calls)
     h_psi:calbec :     33.62s CPU     33.68s WALL (     349 calls)
     vloc_psi     :     37.85s CPU     38.74s WALL (     349 calls)
     add_vuspsi   :     34.26s CPU     34.29s WALL (     349 calls)

     General routines
     calbec       :     46.04s CPU     46.11s WALL (     433 calls)
     fft          :     12.18s CPU     12.68s WALL (     817 calls)
     ffts         :      0.09s CPU      0.10s WALL (      25 calls)
     fftw         :     40.56s CPU     41.54s WALL (   26180 calls)
     interpolate  :      0.28s CPU      0.29s WALL (      13 calls)

     Parallel routines
     fft_scatt_xy :      6.08s CPU      6.19s WALL (   27022 calls)
     fft_scatt_yz :     21.34s CPU     22.22s WALL (   27022 calls)

     PWSCF        :   4m19.35s CPU   4m25.83s WALL


   This run was terminated on:  23:42: 9  29Sep2023            

=------------------------------------------------------------------------------=
   JOB DONE.
=------------------------------------------------------------------------------=
