
     Program PWSCF v.6.4.1 starts on 30Sep2023 at  0: 3:47 

     This program is part of the open-source Quantum ESPRESSO suite
     for quantum simulation of materials; please cite
         "P. Giannozzi et al., J. Phys.:Condens. Matter 21 395502 (2009);
         "P. Giannozzi et al., J. Phys.:Condens. Matter 29 465901 (2017);
          URL http://www.quantum-espresso.org", 
     in publications or presentations arising from this work. More details at
     http://www.quantum-espresso.org/quote

     Parallel version (MPI), running on     6 processors

     MPI processes distributed on     1 nodes
     R & G space division:  proc/nbgrp/npool/nimage =       6
     Reading input from distance-2.2.in

     Current dimensions of program PWSCF are:
     Max number of different atomic species (ntypx) = 10
     Max number of k-points (npk) =  40000
     Max angular momentum in pseudopotentials (lmaxx) =  3

     IMPORTANT: XC functional enforced from input :
     Exchange-correlation      = RVV10 ( 1  4 13  4 3 0)
     Any further DFT definition will be discarded
     Please, verify this is what you really want

               file H.pbe-rrkjus.UPF: wavefunction(s)  1S renormalized
               file Cu.pbe-dn-rrkjus_psl.1.0.0.UPF: wavefunction(s)  3D renormalized

     Subspace diagonalization in iterative solution of the eigenvalue problem:
     a serial algorithm will be used


     Parallelization info
     --------------------
     sticks:   dense  smooth     PW     G-vecs:    dense   smooth      PW
     Min        1102     631    167                97606    42156    5775
     Max        1103     633    168                97613    42157    5780
     Sum        6613    3793   1003               585649   252941   34665



     bravais-lattice index     =            4
     lattice parameter (alat)  =      13.9762  a.u.
     unit-cell volume          =    3196.7546 (a.u.)^3
     number of atoms/cell      =           20
     number of atomic types    =            3
     number of electrons       =        81.00
     number of Kohn-Sham states=           49
     kinetic-energy cutoff     =      70.0000  Ry
     charge density cutoff     =     490.0000  Ry
     convergence threshold     =      1.0E-06
     mixing beta               =       0.7000
     number of iterations used =            8  plain     mixing
     Exchange-correlation      = RVV10 ( 1  4 13  4 3 0)

     celldm(1)=  13.976226  celldm(2)=   0.000000  celldm(3)=   1.352100
     celldm(4)=   0.000000  celldm(5)=   0.000000  celldm(6)=   0.000000

     crystal axes: (cart. coord. in units of alat)
               a(1) = (   1.000000   0.000000   0.000000 )  
               a(2) = (  -0.500000   0.866025   0.000000 )  
               a(3) = (   0.000000   0.000000   1.352100 )  

     reciprocal axes: (cart. coord. in units 2 pi/alat)
               b(1) = (  1.000000  0.577350 -0.000000 )  
               b(2) = (  0.000000  1.154701  0.000000 )  
               b(3) = (  0.000000 -0.000000  0.739590 )  


     PseudoPot. # 1 for H  read from file:
     /home/cristian/Escritorio/Proyecto_Grafeno/pseudopotenciales/H.pbe-rrkjus.UPF
     MD5 check sum: 7cc9d459525c9a0585f487a71c3c9563
     Pseudo is Ultrasoft, Zval =  1.0
     Generated by new atomic code, or converted to UPF format
     Using radial grid of 1061 points,  2 beta functions with: 
                l(1) =   0
                l(2) =   0
     Q(r) pseudized with 0 coefficients 


     PseudoPot. # 2 for C  read from file:
     /home/cristian/Escritorio/Proyecto_Grafeno/pseudopotenciales/C.pbe-n-rrkjus_psl.1.0.0.UPF
     MD5 check sum: 1fdd950c42eb37d8afe3dd2f8d12311e
     Pseudo is Ultrasoft + core correction, Zval =  4.0
     Generated using "atomic" code by A. Dal Corso v.6.3MaX
     Using radial grid of 1073 points,  4 beta functions with: 
                l(1) =   0
                l(2) =   0
                l(3) =   1
                l(4) =   1
     Q(r) pseudized with 0 coefficients 


     PseudoPot. # 3 for Cu read from file:
     /home/cristian/Escritorio/Proyecto_Grafeno/pseudopotenciales/Cu.pbe-dn-rrkjus_psl.1.0.0.UPF
     MD5 check sum: ba3d6c84e19846e79d48cdc68ff7152b
     Pseudo is Ultrasoft + core correction, Zval = 11.0
     Generated using "atomic" code by A. Dal Corso v.6.3
     Using radial grid of 1199 points,  6 beta functions with: 
                l(1) =   0
                l(2) =   0
                l(3) =   1
                l(4) =   1
                l(5) =   2
                l(6) =   2
     Q(r) pseudized with 0 coefficients 


     vdW kernel table read from file rVV10_kernel_table
     MD5 check sum: b8e2538accc0c0b3206b45ba4daaba6c

     atomic species   valence    mass     pseudopotential
        H              1.00     1.00794     H ( 1.00)
        C              4.00    12.01070     C ( 1.00)
        Cu            11.00    63.54600     Cu( 1.00)

      2 Sym. Ops. (no inversion) found ( 1 have fractional translation)


                                    s                        frac. trans.

      isym =  1     identity                                     

 cryst.   s( 1) = (     1          0          0      )
                  (     0          1          0      )
                  (     0          0          1      )

 cart.    s( 1) = (  1.0000000  0.0000000  0.0000000 )
                  (  0.0000000  1.0000000  0.0000000 )
                  (  0.0000000  0.0000000  1.0000000 )


      isym =  2     inv. 180 deg rotation - cryst. axis [0,1,0]  

 cryst.   s( 2) = (     1          1          0      )    f =(  0.0000000 )
                  (     0         -1          0      )       (  0.3333340 )
                  (     0          0          1      )       (  0.0000000 )

 cart.    s( 2) = (  0.5000000  0.8660254  0.0000000 )    f =( -0.1666670 )
                  (  0.8660254 -0.5000000  0.0000000 )       (  0.2886757 )
                  (  0.0000000  0.0000000  1.0000000 )       (  0.0000000 )


     point group C_s (m)    
     there are  2 classes
     the character table:

       E     s    
A'     1.00  1.00
A''    1.00 -1.00

     the symmetry operations in each class and the name of the first element:

     E        1
          identity                                               
     s        2
          inv. 180 deg rotation - cryst. axis [0,1,0]            

   Cartesian axes

     site n.     atom                  positions (alat units)
         1           H   tau(   1) = (   0.2499997   0.5292372   0.2974621  )
         2           H   tau(   2) = (   0.2499997   0.5292372   0.3991498  )
         3           C   tau(   3) = (   0.0000000   0.0000000   0.0000000  )
         4           C   tau(   4) = (   0.0000000   0.1924499   0.0000000  )
         5           C   tau(   5) = (  -0.1666665   0.2886748   0.0000000  )
         6           C   tau(   6) = (  -0.1666665   0.4811247   0.0000000  )
         7           C   tau(   7) = (  -0.3333330   0.5773496   0.0000000  )
         8           C   tau(   8) = (  -0.3333330   0.7697995   0.0000000  )
         9           C   tau(   9) = (   0.3333330   0.0000000   0.0000000  )
        10           C   tau(  10) = (   0.3333330   0.1924499   0.0000000  )
        11           C   tau(  11) = (   0.1666665   0.2886748   0.0000000  )
        12           Cu  tau(  12) = (   0.1666665   0.4811247   0.0000000  )
        13           C   tau(  13) = (   0.0000000   0.5773496   0.0000000  )
        14           C   tau(  14) = (   0.0000000   0.7697995   0.0000000  )
        15           C   tau(  15) = (   0.6666660   0.0000000   0.0000000  )
        16           C   tau(  16) = (   0.6666660   0.1924499   0.0000000  )
        17           C   tau(  17) = (   0.4999995   0.2886748   0.0000000  )
        18           C   tau(  18) = (   0.4999995   0.4811247   0.0000000  )
        19           C   tau(  19) = (   0.3333330   0.5773496   0.0000000  )
        20           C   tau(  20) = (   0.3333330   0.7697995   0.0000000  )

   Crystallographic axes

     site n.     atom                  positions (cryst. coord.)
         1           H   tau(   1) = (  0.5555549  0.6111105  0.2200000  )
         2           H   tau(   2) = (  0.5555549  0.6111105  0.2952072  )
         3           C   tau(   3) = (  0.0000000  0.0000000  0.0000000  )
         4           C   tau(   4) = (  0.1111110  0.2222220  0.0000000  )
         5           C   tau(   5) = (  0.0000000  0.3333330  0.0000000  )
         6           C   tau(   6) = (  0.1111110  0.5555550  0.0000000  )
         7           C   tau(   7) = (  0.0000000  0.6666660  0.0000000  )
         8           C   tau(   8) = (  0.1111110  0.8888879  0.0000000  )
         9           C   tau(   9) = (  0.3333330  0.0000000  0.0000000  )
        10           C   tau(  10) = (  0.4444440  0.2222220  0.0000000  )
        11           C   tau(  11) = (  0.3333330  0.3333330  0.0000000  )
        12           Cu  tau(  12) = (  0.4444440  0.5555550  0.0000000  )
        13           C   tau(  13) = (  0.3333330  0.6666660  0.0000000  )
        14           C   tau(  14) = (  0.4444440  0.8888879  0.0000000  )
        15           C   tau(  15) = (  0.6666660  0.0000000  0.0000000  )
        16           C   tau(  16) = (  0.7777769  0.2222220  0.0000000  )
        17           C   tau(  17) = (  0.6666660  0.3333330  0.0000000  )
        18           C   tau(  18) = (  0.7777769  0.5555550  0.0000000  )
        19           C   tau(  19) = (  0.6666660  0.6666660  0.0000000  )
        20           C   tau(  20) = (  0.7777769  0.8888879  0.0000000  )

     number of k points=     7  Marzari-Vanderbilt smearing, width (Ry)=  0.0010
                       cart. coord. in units 2pi/alat
        k(    1) = (   0.0000000   0.0000000   0.0000000), wk =   0.1250000
        k(    2) = (   0.0000000   0.2886751   0.0000000), wk =   0.5000000
        k(    3) = (   0.0000000  -0.5773503   0.0000000), wk =   0.2500000
        k(    4) = (   0.2500000   0.4330127   0.0000000), wk =   0.5000000
        k(    5) = (   0.2500000   0.1443376   0.0000000), wk =   0.2500000
        k(    6) = (  -0.5000000  -0.2886751   0.0000000), wk =   0.1250000
        k(    7) = (  -0.2500000   0.4330127   0.0000000), wk =   0.2500000

                       cryst. coord.
        k(    1) = (   0.0000000   0.0000000   0.0000000), wk =   0.1250000
        k(    2) = (   0.0000000   0.2500000   0.0000000), wk =   0.5000000
        k(    3) = (   0.0000000  -0.5000000   0.0000000), wk =   0.2500000
        k(    4) = (   0.2500000   0.2500000   0.0000000), wk =   0.5000000
        k(    5) = (   0.2500000   0.0000000   0.0000000), wk =   0.2500000
        k(    6) = (  -0.5000000   0.0000000   0.0000000), wk =   0.1250000
        k(    7) = (  -0.2500000   0.5000000   0.0000000), wk =   0.2500000

     Dense  grid:   585649 G-vectors     FFT dimensions: ( 100, 108, 135)

     Smooth grid:   252941 G-vectors     FFT dimensions: (  75,  75, 108)

     Dynamical RAM for                 wfc:       3.94 MB

     Dynamical RAM for     wfc (w. buffer):      31.52 MB

     Dynamical RAM for           str. fact:       4.47 MB

     Dynamical RAM for           local pot:       0.00 MB

     Dynamical RAM for          nlocal pot:      12.70 MB

     Dynamical RAM for                qrad:      11.84 MB

     Dynamical RAM for          rho,v,vnew:      10.15 MB

     Dynamical RAM for               rhoin:       3.38 MB

     Dynamical RAM for            rho*nmix:      23.83 MB

     Dynamical RAM for           G-vectors:       5.91 MB

     Dynamical RAM for          h,s,v(r/c):       1.76 MB

     Dynamical RAM for          <psi|beta>:       0.12 MB

     Dynamical RAM for                 psi:      15.76 MB

     Dynamical RAM for                hpsi:      15.76 MB

     Dynamical RAM for                spsi:      15.76 MB

     Dynamical RAM for      wfcinit/wfcrot:      12.85 MB

     Dynamical RAM for           addusdens:     302.36 MB

     Estimated static dynamical RAM per process >     119.24 MB

     Estimated max dynamical RAM per process >     421.60 MB

     Estimated total dynamical RAM >       2.47 GB

     Check: negative core charge=   -0.000002

     Initial potential from superposition of free atoms

     starting charge   80.80665, renormalised to   81.00000


---------------------------------------------------------------------------------
Carrying out rVV10 run using the following parameters:
Nqs =      20    Nr_points =    1024   r_max =   100.000
b_value =  6.30000    beta =  0.00901
     q_mesh =  0.00010000  0.00030000  0.00058939  0.00100810
               0.00161396  0.00249058  0.00375900  0.00559430
               0.00824984  0.01209221  0.01765183  0.02569619
               0.03733578  0.05417739  0.07854596  0.11380545
               0.16482331  0.23864234  0.34545298  0.50000000

Gradients computed in Reciprocal space

---------------------------------------------------------------------------------


     Starting wfcs are   79 randomized atomic wfcs

     total cpu time spent up to now is       18.7 secs

     Self-consistent Calculation

     iteration #  1     ecut=    70.00 Ry     beta= 0.70
     Davidson diagonalization with overlap
     ethr =  1.00E-02,  avg # of iterations =  2.3

     total cpu time spent up to now is       42.8 secs

     total energy              =    -333.91314665 Ry
     Harris-Foulkes estimate   =    -337.32697268 Ry
     estimated scf accuracy    <       4.67948454 Ry

     iteration #  2     ecut=    70.00 Ry     beta= 0.70
     Davidson diagonalization with overlap
     ethr =  5.78E-03,  avg # of iterations =  4.0

     total cpu time spent up to now is       66.9 secs

     total energy              =    -333.85402463 Ry
     Harris-Foulkes estimate   =    -338.84899883 Ry
     estimated scf accuracy    <      11.78791534 Ry

     iteration #  3     ecut=    70.00 Ry     beta= 0.70
     Davidson diagonalization with overlap
     ethr =  5.78E-03,  avg # of iterations =  3.3

     total cpu time spent up to now is       88.5 secs

     total energy              =    -335.52832639 Ry
     Harris-Foulkes estimate   =    -336.19785288 Ry
     estimated scf accuracy    <       1.40347932 Ry

     iteration #  4     ecut=    70.00 Ry     beta= 0.70
     Davidson diagonalization with overlap
     ethr =  1.73E-03,  avg # of iterations =  2.7

     negative rho (up, down):  2.931E-08 0.000E+00

     total cpu time spent up to now is      108.9 secs

     total energy              =    -335.81203867 Ry
     Harris-Foulkes estimate   =    -335.94443864 Ry
     estimated scf accuracy    <       0.38768763 Ry

     iteration #  5     ecut=    70.00 Ry     beta= 0.70
     Davidson diagonalization with overlap
     ethr =  4.79E-04,  avg # of iterations =  2.6

     negative rho (up, down):  2.979E-07 0.000E+00

     total cpu time spent up to now is      127.1 secs

     total energy              =    -335.89446948 Ry
     Harris-Foulkes estimate   =    -335.90411696 Ry
     estimated scf accuracy    <       0.03491346 Ry

     iteration #  6     ecut=    70.00 Ry     beta= 0.70
     Davidson diagonalization with overlap
     ethr =  4.31E-05,  avg # of iterations =  6.9

     negative rho (up, down):  1.735E-06 0.000E+00

     total cpu time spent up to now is      147.7 secs

     total energy              =    -335.89753690 Ry
     Harris-Foulkes estimate   =    -335.90040036 Ry
     estimated scf accuracy    <       0.00784672 Ry

     iteration #  7     ecut=    70.00 Ry     beta= 0.70
     Davidson diagonalization with overlap
     ethr =  9.69E-06,  avg # of iterations =  4.7

     negative rho (up, down):  4.402E-05 0.000E+00

     total cpu time spent up to now is      167.0 secs

     total energy              =    -335.89845188 Ry
     Harris-Foulkes estimate   =    -335.89948897 Ry
     estimated scf accuracy    <       0.00310253 Ry

     iteration #  8     ecut=    70.00 Ry     beta= 0.70
     Davidson diagonalization with overlap
     ethr =  3.83E-06,  avg # of iterations =  3.7

     negative rho (up, down):  1.035E-04 0.000E+00

     total cpu time spent up to now is      186.3 secs

     total energy              =    -335.89871850 Ry
     Harris-Foulkes estimate   =    -335.89912254 Ry
     estimated scf accuracy    <       0.00117805 Ry

     iteration #  9     ecut=    70.00 Ry     beta= 0.70
     Davidson diagonalization with overlap
     ethr =  1.45E-06,  avg # of iterations =  3.3

     negative rho (up, down):  1.186E-04 0.000E+00

     total cpu time spent up to now is      204.6 secs

     total energy              =    -335.89889056 Ry
     Harris-Foulkes estimate   =    -335.89893157 Ry
     estimated scf accuracy    <       0.00012122 Ry

     iteration # 10     ecut=    70.00 Ry     beta= 0.70
     Davidson diagonalization with overlap
     ethr =  1.50E-07,  avg # of iterations =  2.1

     negative rho (up, down):  1.304E-04 0.000E+00

     total cpu time spent up to now is      224.1 secs

     total energy              =    -335.89890979 Ry
     Harris-Foulkes estimate   =    -335.89891755 Ry
     estimated scf accuracy    <       0.00001618 Ry

     iteration # 11     ecut=    70.00 Ry     beta= 0.70
     Davidson diagonalization with overlap
     ethr =  2.00E-08,  avg # of iterations =  2.0

     negative rho (up, down):  1.306E-04 0.000E+00

     total cpu time spent up to now is      243.8 secs

     total energy              =    -335.89891167 Ry
     Harris-Foulkes estimate   =    -335.89891256 Ry
     estimated scf accuracy    <       0.00000267 Ry

     iteration # 12     ecut=    70.00 Ry     beta= 0.70
     Davidson diagonalization with overlap
     ethr =  3.30E-09,  avg # of iterations =  2.0

     negative rho (up, down):  1.299E-04 0.000E+00

     total cpu time spent up to now is      261.9 secs

     End of self-consistent calculation

          k = 0.0000 0.0000 0.0000 ( 31593 PWs)   bands (ev):

   -19.6849 -17.3545 -17.3488 -17.1961 -17.1944 -17.1459 -16.1291 -13.4429
   -13.4359 -13.0510 -11.9132 -11.5365 -11.5341 -10.5775 -10.5772  -9.9558
    -9.4611  -9.4594  -8.8248  -8.6744  -8.6316  -8.3707  -8.3687  -7.8902
    -6.6125  -6.4994  -6.1404  -5.9686  -5.9681  -4.9694  -4.9044  -4.9030
    -4.8113  -4.4810  -4.4800  -4.2753  -4.2601  -3.7266  -0.3219   0.0290
     0.0448   0.1514   0.1537   0.9394   2.8455   4.4254   4.5873   4.6024
     4.6779

     occupation numbers 
     1.0000   1.0000   1.0000   1.0000   1.0000   1.0000   1.0000   1.0000
     1.0000   1.0000   1.0000   1.0000   1.0000   1.0000   1.0000   1.0000
     1.0000   1.0000   1.0000   1.0000   1.0000   1.0000   1.0000   1.0000
     1.0000   1.0000   1.0000   1.0000   1.0000   1.0000   1.0000   1.0000
     1.0000   1.0000   1.0000   1.0000   1.0000   1.0000   0.0000   0.0000
     0.0000   0.0000   0.0000   0.0000   0.0000   0.0000   0.0000   0.0000
     0.0000

          k = 0.0000 0.2887 0.0000 ( 31638 PWs)   bands (ev):

   -19.5252 -18.2512 -17.7251 -17.4159 -16.5455 -16.1878 -15.4919 -14.4031
   -13.7317 -12.7679 -12.3899 -11.7198 -11.6431 -10.7771 -10.0607  -9.9174
    -9.7100  -9.3393  -8.7052  -8.6598  -8.3616  -7.8483  -7.6509  -7.3568
    -7.0352  -6.5878  -6.4671  -6.4072  -5.8504  -5.7786  -5.1009  -5.0547
    -4.9088  -4.5873  -4.5016  -3.7674  -3.6977  -2.7917  -1.5028  -0.8754
    -0.3821  -0.0515   1.1819   1.6895   2.8340   3.0278   3.6074   4.2562
     4.4976

     occupation numbers 
     1.0000   1.0000   1.0000   1.0000   1.0000   1.0000   1.0000   1.0000
     1.0000   1.0000   1.0000   1.0000   1.0000   1.0000   1.0000   1.0000
     1.0000   1.0000   1.0000   1.0000   1.0000   1.0000   1.0000   1.0000
     1.0000   1.0000   1.0000   1.0000   1.0000   1.0000   1.0000   1.0000
     1.0000   1.0000   1.0000   1.0000   1.0000   1.0000   1.0000   1.0000
     0.0000   0.0000   0.0000   0.0000   0.0000   0.0000   0.0000   0.0000
     0.0000

          k = 0.0000-0.5774 0.0000 ( 31614 PWs)   bands (ev):

   -19.1381 -18.9322 -17.8734 -17.5549 -15.7282 -15.3870 -15.3364 -14.9905
   -14.2016 -13.3024 -12.2728 -12.0899 -11.4105 -11.1389 -10.6326  -9.9774
    -8.7370  -8.6715  -8.4108  -8.1835  -8.0438  -7.8741  -7.6816  -7.4565
    -7.2095  -6.7628  -6.4602  -6.3963  -6.2212  -5.9996  -5.8202  -5.2265
    -5.1472  -4.4145  -4.2034  -2.9240  -2.7500  -2.5912  -2.3721  -1.5564
    -1.0194  -0.2646   1.6697   2.2406   2.4635   2.6021   3.4475   3.5806
     3.9969

     occupation numbers 
     1.0000   1.0000   1.0000   1.0000   1.0000   1.0000   1.0000   1.0000
     1.0000   1.0000   1.0000   1.0000   1.0000   1.0000   1.0000   1.0000
     1.0000   1.0000   1.0000   1.0000   1.0000   1.0000   1.0000   1.0000
     1.0000   1.0000   1.0000   1.0000   1.0000   1.0000   1.0000   1.0000
     1.0000   1.0000   1.0000   1.0000   1.0000   1.0000   1.0000   1.0000
     1.0000   0.0000   0.0000   0.0000   0.0000   0.0000   0.0000   0.0000
     0.0000

          k = 0.2500 0.4330 0.0000 ( 31601 PWs)   bands (ev):

   -19.2164 -18.6554 -18.3917 -16.7731 -16.5327 -15.4539 -15.1571 -14.8461
   -13.8023 -13.1771 -12.8942 -12.2205 -11.4434 -11.1754 -10.1125  -9.4761
    -8.9601  -8.7419  -8.6692  -8.6597  -8.2333  -7.6586  -7.4558  -7.3524
    -7.1251  -6.8141  -6.6259  -6.2976  -6.2685  -6.0539  -5.8224  -5.1040
    -4.8505  -4.2648  -4.0990  -3.8589  -2.8215  -2.4900  -2.0831  -1.3505
    -0.8132  -0.4468   1.5459   1.8314   2.2325   3.1219   3.4062   4.1109
     4.2819

     occupation numbers 
     1.0000   1.0000   1.0000   1.0000   1.0000   1.0000   1.0000   1.0000
     1.0000   1.0000   1.0000   1.0000   1.0000   1.0000   1.0000   1.0000
     1.0000   1.0000   1.0000   1.0000   1.0000   1.0000   1.0000   1.0000
     1.0000   1.0000   1.0000   1.0000   1.0000   1.0000   1.0000   1.0000
     1.0000   1.0000   1.0000   1.0000   1.0000   1.0000   1.0000   1.0000
     1.0000   0.1494   0.0000   0.0000   0.0000   0.0000   0.0000   0.0000
     0.0000

          k = 0.2500 0.1443 0.0000 ( 31638 PWs)   bands (ev):

   -19.5251 -18.2524 -17.7234 -17.4161 -16.5441 -16.1908 -15.4910 -14.4012
   -13.7349 -12.7682 -12.3862 -11.7213 -11.6438 -10.7758 -10.0601  -9.9182
    -9.7101  -9.3405  -8.7252  -8.6382  -8.3646  -7.8464  -7.6504  -7.3535
    -7.0358  -6.6074  -6.4439  -6.4090  -5.8588  -5.7792  -5.1003  -5.0612
    -4.9083  -4.5753  -4.5033  -3.7724  -3.6873  -2.7993  -1.4996  -0.8780
    -0.3840  -0.0492   1.1884   1.6826   2.8096   3.0524   3.6131   4.2378
     4.4984

     occupation numbers 
     1.0000   1.0000   1.0000   1.0000   1.0000   1.0000   1.0000   1.0000
     1.0000   1.0000   1.0000   1.0000   1.0000   1.0000   1.0000   1.0000
     1.0000   1.0000   1.0000   1.0000   1.0000   1.0000   1.0000   1.0000
     1.0000   1.0000   1.0000   1.0000   1.0000   1.0000   1.0000   1.0000
     1.0000   1.0000   1.0000   1.0000   1.0000   1.0000   1.0000   1.0000
     0.0000   0.0000   0.0000   0.0000   0.0000   0.0000   0.0000   0.0000
     0.0000

          k =-0.5000-0.2887 0.0000 ( 31614 PWs)   bands (ev):

   -19.1363 -18.9348 -17.8718 -17.5553 -15.7249 -15.3873 -15.3407 -14.9935
   -14.1962 -13.3037 -12.2701 -12.0952 -11.4094 -11.1358 -10.6328  -9.9780
    -8.7612  -8.6448  -8.4100  -8.1851  -8.0400  -7.8751  -7.7029  -7.4562
    -7.1921  -6.7563  -6.4457  -6.3951  -6.2436  -6.0007  -5.8361  -5.2120
    -5.1478  -4.4141  -4.2008  -2.9236  -2.7516  -2.5914  -2.3622  -1.5680
    -1.0206  -0.2624   1.6758   2.2433   2.4405   2.6131   3.4488   3.5812
     3.9893

     occupation numbers 
     1.0000   1.0000   1.0000   1.0000   1.0000   1.0000   1.0000   1.0000
     1.0000   1.0000   1.0000   1.0000   1.0000   1.0000   1.0000   1.0000
     1.0000   1.0000   1.0000   1.0000   1.0000   1.0000   1.0000   1.0000
     1.0000   1.0000   1.0000   1.0000   1.0000   1.0000   1.0000   1.0000
     1.0000   1.0000   1.0000   1.0000   1.0000   1.0000   1.0000   1.0000
     1.0000   0.0000   0.0000   0.0000   0.0000   0.0000   0.0000   0.0000
     0.0000

          k =-0.2500 0.4330 0.0000 ( 31601 PWs)   bands (ev):

   -19.2168 -18.6534 -18.3933 -16.7732 -16.5333 -15.4520 -15.1536 -14.8519
   -13.8002 -13.1766 -12.8950 -12.2221 -11.4446 -11.1732 -10.1130  -9.4764
    -8.9602  -8.7207  -8.6903  -8.6596  -8.2323  -7.6594  -7.4553  -7.3554
    -7.1245  -6.8138  -6.6254  -6.3001  -6.2535  -6.0519  -5.8391  -5.1008
    -4.8454  -4.2720  -4.0607  -3.9033  -2.8219  -2.4835  -2.0729  -1.3585
    -0.8120  -0.4484   1.5404   1.8268   2.2472   3.1418   3.3950   4.1162
     4.2669

     occupation numbers 
     1.0000   1.0000   1.0000   1.0000   1.0000   1.0000   1.0000   1.0000
     1.0000   1.0000   1.0000   1.0000   1.0000   1.0000   1.0000   1.0000
     1.0000   1.0000   1.0000   1.0000   1.0000   1.0000   1.0000   1.0000
     1.0000   1.0000   1.0000   1.0000   1.0000   1.0000   1.0000   1.0000
     1.0000   1.0000   1.0000   1.0000   1.0000   1.0000   1.0000   1.0000
     1.0000   0.2012   0.0000   0.0000   0.0000   0.0000   0.0000   0.0000
     0.0000

     the Fermi energy is    -0.4531 ev

!    total energy              =    -335.89891201 Ry
     Harris-Foulkes estimate   =    -335.89891204 Ry
     estimated scf accuracy    <       0.00000017 Ry

     The total energy is the sum of the following terms:

     one-electron contribution =   -1045.87971960 Ry
     hartree contribution      =     549.34335311 Ry
     xc contribution           =    -126.23407215 Ry
     ewald contribution        =     286.87162052 Ry
     smearing contrib. (-TS)   =      -0.00009388 Ry

     convergence has been achieved in  12 iterations

     Writing output data file gr-12.save/

     init_run     :     17.24s CPU     17.53s WALL (       1 calls)
     electrons    :    237.28s CPU    243.17s WALL (       1 calls)

     Called by init_run:
     wfcinit      :      9.04s CPU      9.09s WALL (       1 calls)
     wfcinit:atom :      0.04s CPU      0.04s WALL (       7 calls)
     wfcinit:wfcr :      8.83s CPU      8.86s WALL (       7 calls)
     potinit      :      3.89s CPU      3.97s WALL (       1 calls)
     hinit0       :      3.48s CPU      3.50s WALL (       1 calls)

     Called by electrons:
     c_bands      :    172.99s CPU    174.01s WALL (      12 calls)
     sum_band     :     32.25s CPU     34.27s WALL (      12 calls)
     v_of_rho     :     25.09s CPU     26.38s WALL (      13 calls)
     v_h          :      0.26s CPU      0.28s WALL (      13 calls)
     v_xc         :     24.84s CPU     26.10s WALL (      13 calls)
     newd         :      8.50s CPU     10.23s WALL (      13 calls)
     mix_rho      :      0.65s CPU      0.67s WALL (      12 calls)

     Called by c_bands:
     init_us_2    :      1.22s CPU      1.24s WALL (     175 calls)
     cegterg      :    169.46s CPU    170.46s WALL (      84 calls)

     Called by sum_band:
     sum_band:bec :      0.01s CPU      0.01s WALL (      84 calls)
     addusdens    :     10.19s CPU     11.97s WALL (      12 calls)

     Called by *egterg:
     h_psi        :    103.65s CPU    104.59s WALL (     368 calls)
     s_psi        :     30.72s CPU     30.75s WALL (     368 calls)
     g_psi        :      0.24s CPU      0.24s WALL (     277 calls)
     cdiaghg      :      2.23s CPU      2.24s WALL (     361 calls)
     cegterg:over :     14.88s CPU     14.89s WALL (     277 calls)
     cegterg:upda :      9.67s CPU      9.69s WALL (     277 calls)
     cegterg:last :      8.09s CPU      8.09s WALL (      84 calls)

     Called by h_psi:
     h_psi:pot    :    103.30s CPU    104.22s WALL (     368 calls)
     h_psi:calbec :     32.12s CPU     32.16s WALL (     368 calls)
     vloc_psi     :     39.25s CPU     40.10s WALL (     368 calls)
     add_vuspsi   :     31.93s CPU     31.95s WALL (     368 calls)

     General routines
     calbec       :     44.46s CPU     44.52s WALL (     452 calls)
     fft          :     13.06s CPU     13.52s WALL (     817 calls)
     ffts         :      0.11s CPU      0.11s WALL (      25 calls)
     fftw         :     41.71s CPU     42.64s WALL (   25368 calls)
     interpolate  :      0.29s CPU      0.29s WALL (      13 calls)

     Parallel routines
     fft_scatt_xy :      6.50s CPU      6.60s WALL (   26210 calls)
     fft_scatt_yz :     22.18s CPU     22.97s WALL (   26210 calls)

     PWSCF        :   4m15.84s CPU   4m22.18s WALL


   This run was terminated on:   0: 8: 9  30Sep2023            

=------------------------------------------------------------------------------=
   JOB DONE.
=------------------------------------------------------------------------------=
