
     Program PWSCF v.6.4.1 starts on 29Sep2023 at 23:46:20 

     This program is part of the open-source Quantum ESPRESSO suite
     for quantum simulation of materials; please cite
         "P. Giannozzi et al., J. Phys.:Condens. Matter 21 395502 (2009);
         "P. Giannozzi et al., J. Phys.:Condens. Matter 29 465901 (2017);
          URL http://www.quantum-espresso.org", 
     in publications or presentations arising from this work. More details at
     http://www.quantum-espresso.org/quote

     Parallel version (MPI), running on     6 processors

     MPI processes distributed on     1 nodes
     R & G space division:  proc/nbgrp/npool/nimage =       6
     Reading input from distance-3.0.in

     Current dimensions of program PWSCF are:
     Max number of different atomic species (ntypx) = 10
     Max number of k-points (npk) =  40000
     Max angular momentum in pseudopotentials (lmaxx) =  3

     IMPORTANT: XC functional enforced from input :
     Exchange-correlation      = RVV10 ( 1  4 13  4 3 0)
     Any further DFT definition will be discarded
     Please, verify this is what you really want

               file H.pbe-rrkjus.UPF: wavefunction(s)  1S renormalized
               file Cu.pbe-dn-rrkjus_psl.1.0.0.UPF: wavefunction(s)  3D renormalized

     Subspace diagonalization in iterative solution of the eigenvalue problem:
     a serial algorithm will be used


     Parallelization info
     --------------------
     sticks:   dense  smooth     PW     G-vecs:    dense   smooth      PW
     Min        1102     631    167                97606    42156    5775
     Max        1103     633    168                97613    42157    5780
     Sum        6613    3793   1003               585649   252941   34665



     bravais-lattice index     =            4
     lattice parameter (alat)  =      13.9762  a.u.
     unit-cell volume          =    3196.7546 (a.u.)^3
     number of atoms/cell      =           20
     number of atomic types    =            3
     number of electrons       =        81.00
     number of Kohn-Sham states=           49
     kinetic-energy cutoff     =      70.0000  Ry
     charge density cutoff     =     490.0000  Ry
     convergence threshold     =      1.0E-06
     mixing beta               =       0.7000
     number of iterations used =            8  plain     mixing
     Exchange-correlation      = RVV10 ( 1  4 13  4 3 0)

     celldm(1)=  13.976226  celldm(2)=   0.000000  celldm(3)=   1.352100
     celldm(4)=   0.000000  celldm(5)=   0.000000  celldm(6)=   0.000000

     crystal axes: (cart. coord. in units of alat)
               a(1) = (   1.000000   0.000000   0.000000 )  
               a(2) = (  -0.500000   0.866025   0.000000 )  
               a(3) = (   0.000000   0.000000   1.352100 )  

     reciprocal axes: (cart. coord. in units 2 pi/alat)
               b(1) = (  1.000000  0.577350 -0.000000 )  
               b(2) = (  0.000000  1.154701  0.000000 )  
               b(3) = (  0.000000 -0.000000  0.739590 )  


     PseudoPot. # 1 for H  read from file:
     /home/cristian/Escritorio/Proyecto_Grafeno/pseudopotenciales/H.pbe-rrkjus.UPF
     MD5 check sum: 7cc9d459525c9a0585f487a71c3c9563
     Pseudo is Ultrasoft, Zval =  1.0
     Generated by new atomic code, or converted to UPF format
     Using radial grid of 1061 points,  2 beta functions with: 
                l(1) =   0
                l(2) =   0
     Q(r) pseudized with 0 coefficients 


     PseudoPot. # 2 for C  read from file:
     /home/cristian/Escritorio/Proyecto_Grafeno/pseudopotenciales/C.pbe-n-rrkjus_psl.1.0.0.UPF
     MD5 check sum: 1fdd950c42eb37d8afe3dd2f8d12311e
     Pseudo is Ultrasoft + core correction, Zval =  4.0
     Generated using "atomic" code by A. Dal Corso v.6.3MaX
     Using radial grid of 1073 points,  4 beta functions with: 
                l(1) =   0
                l(2) =   0
                l(3) =   1
                l(4) =   1
     Q(r) pseudized with 0 coefficients 


     PseudoPot. # 3 for Cu read from file:
     /home/cristian/Escritorio/Proyecto_Grafeno/pseudopotenciales/Cu.pbe-dn-rrkjus_psl.1.0.0.UPF
     MD5 check sum: ba3d6c84e19846e79d48cdc68ff7152b
     Pseudo is Ultrasoft + core correction, Zval = 11.0
     Generated using "atomic" code by A. Dal Corso v.6.3
     Using radial grid of 1199 points,  6 beta functions with: 
                l(1) =   0
                l(2) =   0
                l(3) =   1
                l(4) =   1
                l(5) =   2
                l(6) =   2
     Q(r) pseudized with 0 coefficients 


     vdW kernel table read from file rVV10_kernel_table
     MD5 check sum: b8e2538accc0c0b3206b45ba4daaba6c

     atomic species   valence    mass     pseudopotential
        H              1.00     1.00794     H ( 1.00)
        C              4.00    12.01070     C ( 1.00)
        Cu            11.00    63.54600     Cu( 1.00)

      2 Sym. Ops. (no inversion) found ( 1 have fractional translation)


                                    s                        frac. trans.

      isym =  1     identity                                     

 cryst.   s( 1) = (     1          0          0      )
                  (     0          1          0      )
                  (     0          0          1      )

 cart.    s( 1) = (  1.0000000  0.0000000  0.0000000 )
                  (  0.0000000  1.0000000  0.0000000 )
                  (  0.0000000  0.0000000  1.0000000 )


      isym =  2     inv. 180 deg rotation - cryst. axis [0,1,0]  

 cryst.   s( 2) = (     1          1          0      )    f =(  0.0000000 )
                  (     0         -1          0      )       (  0.3333340 )
                  (     0          0          1      )       (  0.0000000 )

 cart.    s( 2) = (  0.5000000  0.8660254  0.0000000 )    f =( -0.1666670 )
                  (  0.8660254 -0.5000000  0.0000000 )       (  0.2886757 )
                  (  0.0000000  0.0000000  1.0000000 )       (  0.0000000 )


     point group C_s (m)    
     there are  2 classes
     the character table:

       E     s    
A'     1.00  1.00
A''    1.00 -1.00

     the symmetry operations in each class and the name of the first element:

     E        1
          identity                                               
     s        2
          inv. 180 deg rotation - cryst. axis [0,1,0]            

   Cartesian axes

     site n.     atom                  positions (alat units)
         1           H   tau(   1) = (   0.2499997   0.5292372   0.4056301  )
         2           H   tau(   2) = (   0.2499997   0.5292372   0.5073178  )
         3           C   tau(   3) = (   0.0000000   0.0000000   0.0000000  )
         4           C   tau(   4) = (   0.0000000   0.1924499   0.0000000  )
         5           C   tau(   5) = (  -0.1666665   0.2886748   0.0000000  )
         6           C   tau(   6) = (  -0.1666665   0.4811247   0.0000000  )
         7           C   tau(   7) = (  -0.3333330   0.5773496   0.0000000  )
         8           C   tau(   8) = (  -0.3333330   0.7697995   0.0000000  )
         9           C   tau(   9) = (   0.3333330   0.0000000   0.0000000  )
        10           C   tau(  10) = (   0.3333330   0.1924499   0.0000000  )
        11           C   tau(  11) = (   0.1666665   0.2886748   0.0000000  )
        12           Cu  tau(  12) = (   0.1666665   0.4811247   0.0000000  )
        13           C   tau(  13) = (   0.0000000   0.5773496   0.0000000  )
        14           C   tau(  14) = (   0.0000000   0.7697995   0.0000000  )
        15           C   tau(  15) = (   0.6666660   0.0000000   0.0000000  )
        16           C   tau(  16) = (   0.6666660   0.1924499   0.0000000  )
        17           C   tau(  17) = (   0.4999995   0.2886748   0.0000000  )
        18           C   tau(  18) = (   0.4999995   0.4811247   0.0000000  )
        19           C   tau(  19) = (   0.3333330   0.5773496   0.0000000  )
        20           C   tau(  20) = (   0.3333330   0.7697995   0.0000000  )

   Crystallographic axes

     site n.     atom                  positions (cryst. coord.)
         1           H   tau(   1) = (  0.5555549  0.6111105  0.3000000  )
         2           H   tau(   2) = (  0.5555549  0.6111105  0.3752072  )
         3           C   tau(   3) = (  0.0000000  0.0000000  0.0000000  )
         4           C   tau(   4) = (  0.1111110  0.2222220  0.0000000  )
         5           C   tau(   5) = (  0.0000000  0.3333330  0.0000000  )
         6           C   tau(   6) = (  0.1111110  0.5555550  0.0000000  )
         7           C   tau(   7) = (  0.0000000  0.6666660  0.0000000  )
         8           C   tau(   8) = (  0.1111110  0.8888879  0.0000000  )
         9           C   tau(   9) = (  0.3333330  0.0000000  0.0000000  )
        10           C   tau(  10) = (  0.4444440  0.2222220  0.0000000  )
        11           C   tau(  11) = (  0.3333330  0.3333330  0.0000000  )
        12           Cu  tau(  12) = (  0.4444440  0.5555550  0.0000000  )
        13           C   tau(  13) = (  0.3333330  0.6666660  0.0000000  )
        14           C   tau(  14) = (  0.4444440  0.8888879  0.0000000  )
        15           C   tau(  15) = (  0.6666660  0.0000000  0.0000000  )
        16           C   tau(  16) = (  0.7777769  0.2222220  0.0000000  )
        17           C   tau(  17) = (  0.6666660  0.3333330  0.0000000  )
        18           C   tau(  18) = (  0.7777769  0.5555550  0.0000000  )
        19           C   tau(  19) = (  0.6666660  0.6666660  0.0000000  )
        20           C   tau(  20) = (  0.7777769  0.8888879  0.0000000  )

     number of k points=     7  Marzari-Vanderbilt smearing, width (Ry)=  0.0010
                       cart. coord. in units 2pi/alat
        k(    1) = (   0.0000000   0.0000000   0.0000000), wk =   0.1250000
        k(    2) = (   0.0000000   0.2886751   0.0000000), wk =   0.5000000
        k(    3) = (   0.0000000  -0.5773503   0.0000000), wk =   0.2500000
        k(    4) = (   0.2500000   0.4330127   0.0000000), wk =   0.5000000
        k(    5) = (   0.2500000   0.1443376   0.0000000), wk =   0.2500000
        k(    6) = (  -0.5000000  -0.2886751   0.0000000), wk =   0.1250000
        k(    7) = (  -0.2500000   0.4330127   0.0000000), wk =   0.2500000

                       cryst. coord.
        k(    1) = (   0.0000000   0.0000000   0.0000000), wk =   0.1250000
        k(    2) = (   0.0000000   0.2500000   0.0000000), wk =   0.5000000
        k(    3) = (   0.0000000  -0.5000000   0.0000000), wk =   0.2500000
        k(    4) = (   0.2500000   0.2500000   0.0000000), wk =   0.5000000
        k(    5) = (   0.2500000   0.0000000   0.0000000), wk =   0.2500000
        k(    6) = (  -0.5000000   0.0000000   0.0000000), wk =   0.1250000
        k(    7) = (  -0.2500000   0.5000000   0.0000000), wk =   0.2500000

     Dense  grid:   585649 G-vectors     FFT dimensions: ( 100, 108, 135)

     Smooth grid:   252941 G-vectors     FFT dimensions: (  75,  75, 108)

     Dynamical RAM for                 wfc:       3.94 MB

     Dynamical RAM for     wfc (w. buffer):      31.52 MB

     Dynamical RAM for           str. fact:       4.47 MB

     Dynamical RAM for           local pot:       0.00 MB

     Dynamical RAM for          nlocal pot:      12.70 MB

     Dynamical RAM for                qrad:      11.84 MB

     Dynamical RAM for          rho,v,vnew:      10.15 MB

     Dynamical RAM for               rhoin:       3.38 MB

     Dynamical RAM for            rho*nmix:      23.83 MB

     Dynamical RAM for           G-vectors:       5.91 MB

     Dynamical RAM for          h,s,v(r/c):       1.76 MB

     Dynamical RAM for          <psi|beta>:       0.12 MB

     Dynamical RAM for                 psi:      15.76 MB

     Dynamical RAM for                hpsi:      15.76 MB

     Dynamical RAM for                spsi:      15.76 MB

     Dynamical RAM for      wfcinit/wfcrot:      12.85 MB

     Dynamical RAM for           addusdens:     302.36 MB

     Estimated static dynamical RAM per process >     119.24 MB

     Estimated max dynamical RAM per process >     421.60 MB

     Estimated total dynamical RAM >       2.47 GB

     Check: negative core charge=   -0.000002

     Initial potential from superposition of free atoms

     starting charge   80.80665, renormalised to   81.00000


---------------------------------------------------------------------------------
Carrying out rVV10 run using the following parameters:
Nqs =      20    Nr_points =    1024   r_max =   100.000
b_value =  6.30000    beta =  0.00901
     q_mesh =  0.00010000  0.00030000  0.00058939  0.00100810
               0.00161396  0.00249058  0.00375900  0.00559430
               0.00824984  0.01209221  0.01765183  0.02569619
               0.03733578  0.05417739  0.07854596  0.11380545
               0.16482331  0.23864234  0.34545298  0.50000000

Gradients computed in Reciprocal space

---------------------------------------------------------------------------------


     Starting wfcs are   79 randomized atomic wfcs

     total cpu time spent up to now is       19.3 secs

     Self-consistent Calculation

     iteration #  1     ecut=    70.00 Ry     beta= 0.70
     Davidson diagonalization with overlap
     ethr =  1.00E-02,  avg # of iterations =  2.1

     total cpu time spent up to now is       44.3 secs

     total energy              =    -333.76814835 Ry
     Harris-Foulkes estimate   =    -337.33963295 Ry
     estimated scf accuracy    <       4.84740988 Ry

     iteration #  2     ecut=    70.00 Ry     beta= 0.70
     Davidson diagonalization with overlap
     ethr =  5.98E-03,  avg # of iterations =  3.6

     total cpu time spent up to now is       68.0 secs

     total energy              =    -333.76208582 Ry
     Harris-Foulkes estimate   =    -339.33910810 Ry
     estimated scf accuracy    <      13.53501683 Ry

     iteration #  3     ecut=    70.00 Ry     beta= 0.70
     Davidson diagonalization with overlap
     ethr =  5.98E-03,  avg # of iterations =  2.7

     total cpu time spent up to now is       89.2 secs

     total energy              =    -335.57387051 Ry
     Harris-Foulkes estimate   =    -336.18644355 Ry
     estimated scf accuracy    <       1.18995613 Ry

     iteration #  4     ecut=    70.00 Ry     beta= 0.70
     Davidson diagonalization with overlap
     ethr =  1.47E-03,  avg # of iterations =  2.4

     total cpu time spent up to now is      110.5 secs

     total energy              =    -335.83292362 Ry
     Harris-Foulkes estimate   =    -335.95254752 Ry
     estimated scf accuracy    <       0.32665571 Ry

     iteration #  5     ecut=    70.00 Ry     beta= 0.70
     Davidson diagonalization with overlap
     ethr =  4.03E-04,  avg # of iterations =  2.7

     negative rho (up, down):  1.882E-08 0.000E+00

     total cpu time spent up to now is      129.1 secs

     total energy              =    -335.90503518 Ry
     Harris-Foulkes estimate   =    -335.91400111 Ry
     estimated scf accuracy    <       0.03127861 Ry

     iteration #  6     ecut=    70.00 Ry     beta= 0.70
     Davidson diagonalization with overlap
     ethr =  3.86E-05,  avg # of iterations =  8.7

     negative rho (up, down):  1.838E-06 0.000E+00

     total cpu time spent up to now is      149.8 secs

     total energy              =    -335.90892832 Ry
     Harris-Foulkes estimate   =    -335.91015008 Ry
     estimated scf accuracy    <       0.00265278 Ry

     iteration #  7     ecut=    70.00 Ry     beta= 0.70
     Davidson diagonalization with overlap
     ethr =  3.28E-06,  avg # of iterations =  4.7

     negative rho (up, down):  3.111E-05 0.000E+00

     total cpu time spent up to now is      172.7 secs

     total energy              =    -335.90920722 Ry
     Harris-Foulkes estimate   =    -335.91042475 Ry
     estimated scf accuracy    <       0.00379309 Ry

     iteration #  8     ecut=    70.00 Ry     beta= 0.70
     Davidson diagonalization with overlap
     ethr =  3.28E-06,  avg # of iterations =  4.0

     negative rho (up, down):  6.648E-05 0.000E+00

     total cpu time spent up to now is      191.4 secs

     total energy              =    -335.90963861 Ry
     Harris-Foulkes estimate   =    -335.90978256 Ry
     estimated scf accuracy    <       0.00034053 Ry

     iteration #  9     ecut=    70.00 Ry     beta= 0.70
     Davidson diagonalization with overlap
     ethr =  4.20E-07,  avg # of iterations =  3.1

     negative rho (up, down):  8.545E-05 0.000E+00

     total cpu time spent up to now is      211.6 secs

     total energy              =    -335.90970447 Ry
     Harris-Foulkes estimate   =    -335.90975035 Ry
     estimated scf accuracy    <       0.00015986 Ry

     iteration # 10     ecut=    70.00 Ry     beta= 0.70
     Davidson diagonalization with overlap
     ethr =  1.97E-07,  avg # of iterations =  1.6

     negative rho (up, down):  9.513E-05 0.000E+00

     total cpu time spent up to now is      228.5 secs

     total energy              =    -335.90971776 Ry
     Harris-Foulkes estimate   =    -335.90972652 Ry
     estimated scf accuracy    <       0.00002071 Ry

     iteration # 11     ecut=    70.00 Ry     beta= 0.70
     Davidson diagonalization with overlap
     ethr =  2.56E-08,  avg # of iterations =  2.0

     negative rho (up, down):  9.586E-05 0.000E+00

     total cpu time spent up to now is      248.5 secs

     total energy              =    -335.90972062 Ry
     Harris-Foulkes estimate   =    -335.90972170 Ry
     estimated scf accuracy    <       0.00000218 Ry

     iteration # 12     ecut=    70.00 Ry     beta= 0.70
     Davidson diagonalization with overlap
     ethr =  2.69E-09,  avg # of iterations =  2.0

     negative rho (up, down):  9.613E-05 0.000E+00

     total cpu time spent up to now is      268.4 secs

     End of self-consistent calculation

          k = 0.0000 0.0000 0.0000 ( 31593 PWs)   bands (ev):

   -19.6667 -17.3352 -17.3344 -17.1766 -17.1764 -17.1294 -16.1042 -13.4192
   -13.4185 -13.0344 -11.8934 -11.5167 -11.5163 -10.5599 -10.5597  -9.9384
    -9.4400  -9.4398  -8.7965  -8.6031  -8.6006  -8.3513  -8.3509  -7.7911
    -6.4829  -6.3627  -6.1236  -5.9515  -5.9512  -5.1227  -4.8880  -4.8867
    -4.7975  -4.4631  -4.4629  -4.2560  -4.2558  -3.8622  -0.3048   0.0579
     0.0612   0.1787   0.1794   0.9539   2.8249   4.1202   4.6129   4.6140
     4.6811

     occupation numbers 
     1.0000   1.0000   1.0000   1.0000   1.0000   1.0000   1.0000   1.0000
     1.0000   1.0000   1.0000   1.0000   1.0000   1.0000   1.0000   1.0000
     1.0000   1.0000   1.0000   1.0000   1.0000   1.0000   1.0000   1.0000
     1.0000   1.0000   1.0000   1.0000   1.0000   1.0000   1.0000   1.0000
     1.0000   1.0000   1.0000   1.0000   1.0000   1.0000   0.0000   0.0000
     0.0000   0.0000   0.0000   0.0000   0.0000   0.0000   0.0000   0.0000
     0.0000

          k = 0.0000 0.2887 0.0000 ( 31638 PWs)   bands (ev):

   -19.5072 -18.2339 -17.7070 -17.3964 -16.5271 -16.1711 -15.4698 -14.3843
   -13.7123 -12.7482 -12.3697 -11.7014 -11.6254 -10.7561 -10.0406  -9.8988
    -9.6928  -9.3214  -8.6518  -8.6091  -8.3351  -7.8285  -7.5220  -7.3154
    -7.0186  -6.4842  -6.3925  -6.3577  -5.8626  -5.7620  -5.0819  -5.0504
    -4.9989  -4.6938  -4.4856  -3.7544  -3.6950  -2.8114  -1.4837  -0.8689
    -0.3562  -0.0239   1.2045   1.7107   2.8590   3.0105   3.6357   4.1056
     4.4941

     occupation numbers 
     1.0000   1.0000   1.0000   1.0000   1.0000   1.0000   1.0000   1.0000
     1.0000   1.0000   1.0000   1.0000   1.0000   1.0000   1.0000   1.0000
     1.0000   1.0000   1.0000   1.0000   1.0000   1.0000   1.0000   1.0000
     1.0000   1.0000   1.0000   1.0000   1.0000   1.0000   1.0000   1.0000
     1.0000   1.0000   1.0000   1.0000   1.0000   1.0000   1.0000   1.0000
     0.0000   0.0000   0.0000   0.0000   0.0000   0.0000   0.0000   0.0000
     0.0000

          k = 0.0000-0.5774 0.0000 ( 31614 PWs)   bands (ev):

   -19.1206 -18.9140 -17.8553 -17.5351 -15.7088 -15.3695 -15.3187 -14.9742
   -14.1776 -13.2839 -12.2527 -12.0711 -11.3907 -11.1185 -10.6132  -9.9580
    -8.6896  -8.6158  -8.3941  -8.1666  -8.0059  -7.8567  -7.6485  -7.4380
    -6.9436  -6.7414  -6.3789  -6.3515  -6.2345  -5.9826  -5.9141  -5.2638
    -5.1921  -4.3971  -4.2836  -2.9064  -2.7361  -2.5752  -2.3537  -1.5775
    -0.9929  -0.2369   1.6938   2.2580   2.4852   2.6371   3.4251   3.6504
     3.8739

     occupation numbers 
     1.0000   1.0000   1.0000   1.0000   1.0000   1.0000   1.0000   1.0000
     1.0000   1.0000   1.0000   1.0000   1.0000   1.0000   1.0000   1.0000
     1.0000   1.0000   1.0000   1.0000   1.0000   1.0000   1.0000   1.0000
     1.0000   1.0000   1.0000   1.0000   1.0000   1.0000   1.0000   1.0000
     1.0000   1.0000   1.0000   1.0000   1.0000   1.0000   1.0000   1.0000
     1.0000   0.0000   0.0000   0.0000   0.0000   0.0000   0.0000   0.0000
     0.0000

          k = 0.2500 0.4330 0.0000 ( 31601 PWs)   bands (ev):

   -19.1990 -18.6378 -18.3721 -16.7549 -16.5142 -15.4350 -15.1382 -14.8281
   -13.7817 -13.1573 -12.8770 -12.1996 -11.4223 -11.1551 -10.0944  -9.4583
    -8.9403  -8.6773  -8.6440  -8.6292  -8.2130  -7.6413  -7.4291  -7.1580
    -7.0573  -6.7959  -6.4155  -6.2807  -6.2659  -6.0570  -6.0322  -5.1059
    -4.8373  -4.3256  -4.0974  -3.8813  -2.8065  -2.4729  -2.0697  -1.3576
    -0.7863  -0.4202   1.5695   1.8508   2.2629   3.1579   3.3735   4.0878
     4.2670

     occupation numbers 
     1.0000   1.0000   1.0000   1.0000   1.0000   1.0000   1.0000   1.0000
     1.0000   1.0000   1.0000   1.0000   1.0000   1.0000   1.0000   1.0000
     1.0000   1.0000   1.0000   1.0000   1.0000   1.0000   1.0000   1.0000
     1.0000   1.0000   1.0000   1.0000   1.0000   1.0000   1.0000   1.0000
     1.0000   1.0000   1.0000   1.0000   1.0000   1.0000   1.0000   1.0000
     1.0000   0.1622   0.0000   0.0000   0.0000   0.0000   0.0000   0.0000
     0.0000

          k = 0.2500 0.1443 0.0000 ( 31638 PWs)   bands (ev):

   -19.5072 -18.2339 -17.7067 -17.3968 -16.5269 -16.1713 -15.4698 -14.3840
   -13.7126 -12.7480 -12.3692 -11.7019 -11.6256 -10.7560 -10.0407  -9.8989
    -9.6927  -9.3215  -8.6536  -8.6073  -8.3352  -7.8283  -7.5219  -7.3150
    -7.0186  -6.4856  -6.3922  -6.3558  -5.8636  -5.7622  -5.0829  -5.0511
    -4.9973  -4.6936  -4.4859  -3.7541  -3.6944  -2.8121  -1.4827  -0.8698
    -0.3566  -0.0233   1.2058   1.7107   2.8511   3.0147   3.6368   4.1143
     4.4859

     occupation numbers 
     1.0000   1.0000   1.0000   1.0000   1.0000   1.0000   1.0000   1.0000
     1.0000   1.0000   1.0000   1.0000   1.0000   1.0000   1.0000   1.0000
     1.0000   1.0000   1.0000   1.0000   1.0000   1.0000   1.0000   1.0000
     1.0000   1.0000   1.0000   1.0000   1.0000   1.0000   1.0000   1.0000
     1.0000   1.0000   1.0000   1.0000   1.0000   1.0000   1.0000   1.0000
     0.0000   0.0000   0.0000   0.0000   0.0000   0.0000   0.0000   0.0000
     0.0000

          k =-0.5000-0.2887 0.0000 ( 31614 PWs)   bands (ev):

   -19.1207 -18.9139 -17.8550 -17.5355 -15.7085 -15.3694 -15.3193 -14.9743
   -14.1769 -13.2838 -12.2523 -12.0716 -11.3911 -11.1184 -10.6134  -9.9582
    -8.6914  -8.6139  -8.3940  -8.1664  -8.0059  -7.8566  -7.6492  -7.4380
    -6.9430  -6.7395  -6.3786  -6.3491  -6.2391  -5.9830  -5.9143  -5.2606
    -5.1943  -4.3975  -4.2838  -2.9060  -2.7356  -2.5740  -2.3557  -1.5767
    -0.9933  -0.2364   1.6938   2.2589   2.4813   2.6383   3.4278   3.6562
     3.8660

     occupation numbers 
     1.0000   1.0000   1.0000   1.0000   1.0000   1.0000   1.0000   1.0000
     1.0000   1.0000   1.0000   1.0000   1.0000   1.0000   1.0000   1.0000
     1.0000   1.0000   1.0000   1.0000   1.0000   1.0000   1.0000   1.0000
     1.0000   1.0000   1.0000   1.0000   1.0000   1.0000   1.0000   1.0000
     1.0000   1.0000   1.0000   1.0000   1.0000   1.0000   1.0000   1.0000
     1.0000   0.0000   0.0000   0.0000   0.0000   0.0000   0.0000   0.0000
     0.0000

          k =-0.2500 0.4330 0.0000 ( 31601 PWs)   bands (ev):

   -19.1990 -18.6378 -18.3721 -16.7550 -16.5141 -15.4347 -15.1379 -14.8288
   -13.7814 -13.1573 -12.8772 -12.1997 -11.4224 -11.1547 -10.0942  -9.4582
    -8.9403  -8.6758  -8.6438  -8.6307  -8.2132  -7.6417  -7.4290  -7.1581
    -7.0575  -6.7958  -6.4213  -6.2828  -6.2514  -6.0614  -6.0344  -5.1058
    -4.8370  -4.3255  -4.0948  -3.8840  -2.8077  -2.4712  -2.0704  -1.3572
    -0.7859  -0.4206   1.5668   1.8495   2.2668   3.1653   3.3710   4.0901
     4.2588

     occupation numbers 
     1.0000   1.0000   1.0000   1.0000   1.0000   1.0000   1.0000   1.0000
     1.0000   1.0000   1.0000   1.0000   1.0000   1.0000   1.0000   1.0000
     1.0000   1.0000   1.0000   1.0000   1.0000   1.0000   1.0000   1.0000
     1.0000   1.0000   1.0000   1.0000   1.0000   1.0000   1.0000   1.0000
     1.0000   1.0000   1.0000   1.0000   1.0000   1.0000   1.0000   1.0000
     1.0000   0.1757   0.0000   0.0000   0.0000   0.0000   0.0000   0.0000
     0.0000

     the Fermi energy is    -0.4261 ev

!    total energy              =    -335.90972090 Ry
     Harris-Foulkes estimate   =    -335.90972116 Ry
     estimated scf accuracy    <       0.00000022 Ry

     The total energy is the sum of the following terms:

     one-electron contribution =   -1030.54019468 Ry
     hartree contribution      =     541.70605055 Ry
     xc contribution           =    -126.19695445 Ry
     ewald contribution        =     279.12147207 Ry
     smearing contrib. (-TS)   =      -0.00009438 Ry

     convergence has been achieved in  12 iterations

     Writing output data file gr-12.save/

     init_run     :     17.74s CPU     18.15s WALL (       1 calls)
     electrons    :    243.15s CPU    249.11s WALL (       1 calls)

     Called by init_run:
     wfcinit      :      8.73s CPU      8.82s WALL (       1 calls)
     wfcinit:atom :      0.03s CPU      0.03s WALL (       7 calls)
     wfcinit:wfcr :      8.52s CPU      8.61s WALL (       7 calls)
     potinit      :      4.24s CPU      4.37s WALL (       1 calls)
     hinit0       :      3.99s CPU      4.00s WALL (       1 calls)

     Called by electrons:
     c_bands      :    179.25s CPU    180.40s WALL (      12 calls)
     sum_band     :     32.29s CPU     34.18s WALL (      12 calls)
     v_of_rho     :     24.61s CPU     26.01s WALL (      13 calls)
     v_h          :      0.25s CPU      0.27s WALL (      13 calls)
     v_xc         :     24.35s CPU     25.74s WALL (      13 calls)
     newd         :      8.36s CPU     10.11s WALL (      13 calls)
     mix_rho      :      0.63s CPU      0.65s WALL (      12 calls)

     Called by c_bands:
     init_us_2    :      1.22s CPU      1.23s WALL (     175 calls)
     cegterg      :    175.48s CPU    176.62s WALL (      84 calls)

     Called by sum_band:
     sum_band:bec :      0.01s CPU      0.01s WALL (      84 calls)
     addusdens    :     10.07s CPU     11.77s WALL (      12 calls)

     Called by *egterg:
     h_psi        :    106.35s CPU    107.42s WALL (     369 calls)
     s_psi        :     31.53s CPU     31.56s WALL (     369 calls)
     g_psi        :      0.25s CPU      0.25s WALL (     278 calls)
     cdiaghg      :      2.36s CPU      2.36s WALL (     362 calls)
     cegterg:over :     15.89s CPU     15.91s WALL (     278 calls)
     cegterg:upda :     10.48s CPU     10.51s WALL (     278 calls)
     cegterg:last :      8.27s CPU      8.27s WALL (      84 calls)

     Called by h_psi:
     h_psi:pot    :    106.00s CPU    107.05s WALL (     369 calls)
     h_psi:calbec :     33.08s CPU     33.14s WALL (     369 calls)
     vloc_psi     :     40.29s CPU     41.27s WALL (     369 calls)
     add_vuspsi   :     32.62s CPU     32.64s WALL (     369 calls)

     General routines
     calbec       :     45.34s CPU     45.41s WALL (     453 calls)
     fft          :     12.74s CPU     13.22s WALL (     817 calls)
     ffts         :      0.11s CPU      0.11s WALL (      25 calls)
     fftw         :     43.18s CPU     44.20s WALL (   26050 calls)
     interpolate  :      0.31s CPU      0.32s WALL (      13 calls)

     Parallel routines
     fft_scatt_xy :      6.66s CPU      6.77s WALL (   26892 calls)
     fft_scatt_yz :     23.29s CPU     24.18s WALL (   26892 calls)

     PWSCF        :   4m22.21s CPU   4m28.74s WALL


   This run was terminated on:  23:50:49  29Sep2023            

=------------------------------------------------------------------------------=
   JOB DONE.
=------------------------------------------------------------------------------=
