
     Program PWSCF v.6.4.1 starts on 30Sep2023 at  0: 8: 9 

     This program is part of the open-source Quantum ESPRESSO suite
     for quantum simulation of materials; please cite
         "P. Giannozzi et al., J. Phys.:Condens. Matter 21 395502 (2009);
         "P. Giannozzi et al., J. Phys.:Condens. Matter 29 465901 (2017);
          URL http://www.quantum-espresso.org", 
     in publications or presentations arising from this work. More details at
     http://www.quantum-espresso.org/quote

     Parallel version (MPI), running on     6 processors

     MPI processes distributed on     1 nodes
     R & G space division:  proc/nbgrp/npool/nimage =       6
     Reading input from distance-2.0.in

     Current dimensions of program PWSCF are:
     Max number of different atomic species (ntypx) = 10
     Max number of k-points (npk) =  40000
     Max angular momentum in pseudopotentials (lmaxx) =  3

     IMPORTANT: XC functional enforced from input :
     Exchange-correlation      = RVV10 ( 1  4 13  4 3 0)
     Any further DFT definition will be discarded
     Please, verify this is what you really want

               file H.pbe-rrkjus.UPF: wavefunction(s)  1S renormalized
               file Cu.pbe-dn-rrkjus_psl.1.0.0.UPF: wavefunction(s)  3D renormalized

     Subspace diagonalization in iterative solution of the eigenvalue problem:
     a serial algorithm will be used


     Parallelization info
     --------------------
     sticks:   dense  smooth     PW     G-vecs:    dense   smooth      PW
     Min        1102     631    167                97606    42156    5775
     Max        1103     633    168                97613    42157    5780
     Sum        6613    3793   1003               585649   252941   34665



     bravais-lattice index     =            4
     lattice parameter (alat)  =      13.9762  a.u.
     unit-cell volume          =    3196.7546 (a.u.)^3
     number of atoms/cell      =           20
     number of atomic types    =            3
     number of electrons       =        81.00
     number of Kohn-Sham states=           49
     kinetic-energy cutoff     =      70.0000  Ry
     charge density cutoff     =     490.0000  Ry
     convergence threshold     =      1.0E-06
     mixing beta               =       0.7000
     number of iterations used =            8  plain     mixing
     Exchange-correlation      = RVV10 ( 1  4 13  4 3 0)

     celldm(1)=  13.976226  celldm(2)=   0.000000  celldm(3)=   1.352100
     celldm(4)=   0.000000  celldm(5)=   0.000000  celldm(6)=   0.000000

     crystal axes: (cart. coord. in units of alat)
               a(1) = (   1.000000   0.000000   0.000000 )  
               a(2) = (  -0.500000   0.866025   0.000000 )  
               a(3) = (   0.000000   0.000000   1.352100 )  

     reciprocal axes: (cart. coord. in units 2 pi/alat)
               b(1) = (  1.000000  0.577350 -0.000000 )  
               b(2) = (  0.000000  1.154701  0.000000 )  
               b(3) = (  0.000000 -0.000000  0.739590 )  


     PseudoPot. # 1 for H  read from file:
     /home/cristian/Escritorio/Proyecto_Grafeno/pseudopotenciales/H.pbe-rrkjus.UPF
     MD5 check sum: 7cc9d459525c9a0585f487a71c3c9563
     Pseudo is Ultrasoft, Zval =  1.0
     Generated by new atomic code, or converted to UPF format
     Using radial grid of 1061 points,  2 beta functions with: 
                l(1) =   0
                l(2) =   0
     Q(r) pseudized with 0 coefficients 


     PseudoPot. # 2 for C  read from file:
     /home/cristian/Escritorio/Proyecto_Grafeno/pseudopotenciales/C.pbe-n-rrkjus_psl.1.0.0.UPF
     MD5 check sum: 1fdd950c42eb37d8afe3dd2f8d12311e
     Pseudo is Ultrasoft + core correction, Zval =  4.0
     Generated using "atomic" code by A. Dal Corso v.6.3MaX
     Using radial grid of 1073 points,  4 beta functions with: 
                l(1) =   0
                l(2) =   0
                l(3) =   1
                l(4) =   1
     Q(r) pseudized with 0 coefficients 


     PseudoPot. # 3 for Cu read from file:
     /home/cristian/Escritorio/Proyecto_Grafeno/pseudopotenciales/Cu.pbe-dn-rrkjus_psl.1.0.0.UPF
     MD5 check sum: ba3d6c84e19846e79d48cdc68ff7152b
     Pseudo is Ultrasoft + core correction, Zval = 11.0
     Generated using "atomic" code by A. Dal Corso v.6.3
     Using radial grid of 1199 points,  6 beta functions with: 
                l(1) =   0
                l(2) =   0
                l(3) =   1
                l(4) =   1
                l(5) =   2
                l(6) =   2
     Q(r) pseudized with 0 coefficients 


     vdW kernel table read from file rVV10_kernel_table
     MD5 check sum: b8e2538accc0c0b3206b45ba4daaba6c

     atomic species   valence    mass     pseudopotential
        H              1.00     1.00794     H ( 1.00)
        C              4.00    12.01070     C ( 1.00)
        Cu            11.00    63.54600     Cu( 1.00)

      2 Sym. Ops. (no inversion) found ( 1 have fractional translation)


                                    s                        frac. trans.

      isym =  1     identity                                     

 cryst.   s( 1) = (     1          0          0      )
                  (     0          1          0      )
                  (     0          0          1      )

 cart.    s( 1) = (  1.0000000  0.0000000  0.0000000 )
                  (  0.0000000  1.0000000  0.0000000 )
                  (  0.0000000  0.0000000  1.0000000 )


      isym =  2     inv. 180 deg rotation - cryst. axis [0,1,0]  

 cryst.   s( 2) = (     1          1          0      )    f =(  0.0000000 )
                  (     0         -1          0      )       (  0.3333340 )
                  (     0          0          1      )       (  0.0000000 )

 cart.    s( 2) = (  0.5000000  0.8660254  0.0000000 )    f =( -0.1666670 )
                  (  0.8660254 -0.5000000  0.0000000 )       (  0.2886757 )
                  (  0.0000000  0.0000000  1.0000000 )       (  0.0000000 )


     point group C_s (m)    
     there are  2 classes
     the character table:

       E     s    
A'     1.00  1.00
A''    1.00 -1.00

     the symmetry operations in each class and the name of the first element:

     E        1
          identity                                               
     s        2
          inv. 180 deg rotation - cryst. axis [0,1,0]            

   Cartesian axes

     site n.     atom                  positions (alat units)
         1           H   tau(   1) = (   0.2499997   0.5292372   0.2704201  )
         2           H   tau(   2) = (   0.2499997   0.5292372   0.3721078  )
         3           C   tau(   3) = (   0.0000000   0.0000000   0.0000000  )
         4           C   tau(   4) = (   0.0000000   0.1924499   0.0000000  )
         5           C   tau(   5) = (  -0.1666665   0.2886748   0.0000000  )
         6           C   tau(   6) = (  -0.1666665   0.4811247   0.0000000  )
         7           C   tau(   7) = (  -0.3333330   0.5773496   0.0000000  )
         8           C   tau(   8) = (  -0.3333330   0.7697995   0.0000000  )
         9           C   tau(   9) = (   0.3333330   0.0000000   0.0000000  )
        10           C   tau(  10) = (   0.3333330   0.1924499   0.0000000  )
        11           C   tau(  11) = (   0.1666665   0.2886748   0.0000000  )
        12           Cu  tau(  12) = (   0.1666665   0.4811247   0.0000000  )
        13           C   tau(  13) = (   0.0000000   0.5773496   0.0000000  )
        14           C   tau(  14) = (   0.0000000   0.7697995   0.0000000  )
        15           C   tau(  15) = (   0.6666660   0.0000000   0.0000000  )
        16           C   tau(  16) = (   0.6666660   0.1924499   0.0000000  )
        17           C   tau(  17) = (   0.4999995   0.2886748   0.0000000  )
        18           C   tau(  18) = (   0.4999995   0.4811247   0.0000000  )
        19           C   tau(  19) = (   0.3333330   0.5773496   0.0000000  )
        20           C   tau(  20) = (   0.3333330   0.7697995   0.0000000  )

   Crystallographic axes

     site n.     atom                  positions (cryst. coord.)
         1           H   tau(   1) = (  0.5555549  0.6111105  0.2000000  )
         2           H   tau(   2) = (  0.5555549  0.6111105  0.2752072  )
         3           C   tau(   3) = (  0.0000000  0.0000000  0.0000000  )
         4           C   tau(   4) = (  0.1111110  0.2222220  0.0000000  )
         5           C   tau(   5) = (  0.0000000  0.3333330  0.0000000  )
         6           C   tau(   6) = (  0.1111110  0.5555550  0.0000000  )
         7           C   tau(   7) = (  0.0000000  0.6666660  0.0000000  )
         8           C   tau(   8) = (  0.1111110  0.8888879  0.0000000  )
         9           C   tau(   9) = (  0.3333330  0.0000000  0.0000000  )
        10           C   tau(  10) = (  0.4444440  0.2222220  0.0000000  )
        11           C   tau(  11) = (  0.3333330  0.3333330  0.0000000  )
        12           Cu  tau(  12) = (  0.4444440  0.5555550  0.0000000  )
        13           C   tau(  13) = (  0.3333330  0.6666660  0.0000000  )
        14           C   tau(  14) = (  0.4444440  0.8888879  0.0000000  )
        15           C   tau(  15) = (  0.6666660  0.0000000  0.0000000  )
        16           C   tau(  16) = (  0.7777769  0.2222220  0.0000000  )
        17           C   tau(  17) = (  0.6666660  0.3333330  0.0000000  )
        18           C   tau(  18) = (  0.7777769  0.5555550  0.0000000  )
        19           C   tau(  19) = (  0.6666660  0.6666660  0.0000000  )
        20           C   tau(  20) = (  0.7777769  0.8888879  0.0000000  )

     number of k points=     7  Marzari-Vanderbilt smearing, width (Ry)=  0.0010
                       cart. coord. in units 2pi/alat
        k(    1) = (   0.0000000   0.0000000   0.0000000), wk =   0.1250000
        k(    2) = (   0.0000000   0.2886751   0.0000000), wk =   0.5000000
        k(    3) = (   0.0000000  -0.5773503   0.0000000), wk =   0.2500000
        k(    4) = (   0.2500000   0.4330127   0.0000000), wk =   0.5000000
        k(    5) = (   0.2500000   0.1443376   0.0000000), wk =   0.2500000
        k(    6) = (  -0.5000000  -0.2886751   0.0000000), wk =   0.1250000
        k(    7) = (  -0.2500000   0.4330127   0.0000000), wk =   0.2500000

                       cryst. coord.
        k(    1) = (   0.0000000   0.0000000   0.0000000), wk =   0.1250000
        k(    2) = (   0.0000000   0.2500000   0.0000000), wk =   0.5000000
        k(    3) = (   0.0000000  -0.5000000   0.0000000), wk =   0.2500000
        k(    4) = (   0.2500000   0.2500000   0.0000000), wk =   0.5000000
        k(    5) = (   0.2500000   0.0000000   0.0000000), wk =   0.2500000
        k(    6) = (  -0.5000000   0.0000000   0.0000000), wk =   0.1250000
        k(    7) = (  -0.2500000   0.5000000   0.0000000), wk =   0.2500000

     Dense  grid:   585649 G-vectors     FFT dimensions: ( 100, 108, 135)

     Smooth grid:   252941 G-vectors     FFT dimensions: (  75,  75, 108)

     Dynamical RAM for                 wfc:       3.94 MB

     Dynamical RAM for     wfc (w. buffer):      31.52 MB

     Dynamical RAM for           str. fact:       4.47 MB

     Dynamical RAM for           local pot:       0.00 MB

     Dynamical RAM for          nlocal pot:      12.70 MB

     Dynamical RAM for                qrad:      11.84 MB

     Dynamical RAM for          rho,v,vnew:      10.15 MB

     Dynamical RAM for               rhoin:       3.38 MB

     Dynamical RAM for            rho*nmix:      23.83 MB

     Dynamical RAM for           G-vectors:       5.91 MB

     Dynamical RAM for          h,s,v(r/c):       1.76 MB

     Dynamical RAM for          <psi|beta>:       0.12 MB

     Dynamical RAM for                 psi:      15.76 MB

     Dynamical RAM for                hpsi:      15.76 MB

     Dynamical RAM for                spsi:      15.76 MB

     Dynamical RAM for      wfcinit/wfcrot:      12.85 MB

     Dynamical RAM for           addusdens:     302.36 MB

     Estimated static dynamical RAM per process >     119.24 MB

     Estimated max dynamical RAM per process >     421.60 MB

     Estimated total dynamical RAM >       2.47 GB

     Check: negative core charge=   -0.000002

     Initial potential from superposition of free atoms

     starting charge   80.80665, renormalised to   81.00000


---------------------------------------------------------------------------------
Carrying out rVV10 run using the following parameters:
Nqs =      20    Nr_points =    1024   r_max =   100.000
b_value =  6.30000    beta =  0.00901
     q_mesh =  0.00010000  0.00030000  0.00058939  0.00100810
               0.00161396  0.00249058  0.00375900  0.00559430
               0.00824984  0.01209221  0.01765183  0.02569619
               0.03733578  0.05417739  0.07854596  0.11380545
               0.16482331  0.23864234  0.34545298  0.50000000

Gradients computed in Reciprocal space

---------------------------------------------------------------------------------


     Starting wfcs are   79 randomized atomic wfcs

     total cpu time spent up to now is       19.4 secs

     Self-consistent Calculation

     iteration #  1     ecut=    70.00 Ry     beta= 0.70
     Davidson diagonalization with overlap
     ethr =  1.00E-02,  avg # of iterations =  2.7

     total cpu time spent up to now is       43.2 secs

     total energy              =    -333.97628573 Ry
     Harris-Foulkes estimate   =    -337.32386998 Ry
     estimated scf accuracy    <       4.61144233 Ry

     iteration #  2     ecut=    70.00 Ry     beta= 0.70
     Davidson diagonalization with overlap
     ethr =  5.69E-03,  avg # of iterations =  3.4

     total cpu time spent up to now is       66.4 secs

     total energy              =    -333.93568739 Ry
     Harris-Foulkes estimate   =    -338.60266426 Ry
     estimated scf accuracy    <      10.75831059 Ry

     iteration #  3     ecut=    70.00 Ry     beta= 0.70
     Davidson diagonalization with overlap
     ethr =  5.69E-03,  avg # of iterations =  3.3

     total cpu time spent up to now is       87.4 secs

     total energy              =    -335.49914444 Ry
     Harris-Foulkes estimate   =    -336.18471972 Ry
     estimated scf accuracy    <       1.50409547 Ry

     iteration #  4     ecut=    70.00 Ry     beta= 0.70
     Davidson diagonalization with overlap
     ethr =  1.86E-03,  avg # of iterations =  3.0

     negative rho (up, down):  1.230E-07 0.000E+00

     total cpu time spent up to now is      107.4 secs

     total energy              =    -335.79717159 Ry
     Harris-Foulkes estimate   =    -335.93900058 Ry
     estimated scf accuracy    <       0.42936477 Ry

     iteration #  5     ecut=    70.00 Ry     beta= 0.70
     Davidson diagonalization with overlap
     ethr =  5.30E-04,  avg # of iterations =  2.0

     negative rho (up, down):  5.837E-07 0.000E+00

     total cpu time spent up to now is      125.0 secs

     total energy              =    -335.88093912 Ry
     Harris-Foulkes estimate   =    -335.89146825 Ry
     estimated scf accuracy    <       0.03300169 Ry

     iteration #  6     ecut=    70.00 Ry     beta= 0.70
     Davidson diagonalization with overlap
     ethr =  4.07E-05,  avg # of iterations =  6.9

     negative rho (up, down):  3.058E-06 0.000E+00

     total cpu time spent up to now is      146.7 secs

     total energy              =    -335.88454573 Ry
     Harris-Foulkes estimate   =    -335.88863375 Ry
     estimated scf accuracy    <       0.01225382 Ry

     iteration #  7     ecut=    70.00 Ry     beta= 0.70
     Davidson diagonalization with overlap
     ethr =  1.51E-05,  avg # of iterations =  3.3

     negative rho (up, down):  5.099E-05 0.000E+00

     total cpu time spent up to now is      164.3 secs

     total energy              =    -335.88573337 Ry
     Harris-Foulkes estimate   =    -335.88662859 Ry
     estimated scf accuracy    <       0.00259498 Ry

     iteration #  8     ecut=    70.00 Ry     beta= 0.70
     Davidson diagonalization with overlap
     ethr =  3.20E-06,  avg # of iterations =  4.3

     negative rho (up, down):  1.111E-04 0.000E+00

     total cpu time spent up to now is      184.9 secs

     total energy              =    -335.88596571 Ry
     Harris-Foulkes estimate   =    -335.88642877 Ry
     estimated scf accuracy    <       0.00139004 Ry

     iteration #  9     ecut=    70.00 Ry     beta= 0.70
     Davidson diagonalization with overlap
     ethr =  1.72E-06,  avg # of iterations =  2.1

     negative rho (up, down):  1.272E-04 0.000E+00

     total cpu time spent up to now is      202.6 secs

     total energy              =    -335.88616161 Ry
     Harris-Foulkes estimate   =    -335.88617835 Ry
     estimated scf accuracy    <       0.00003769 Ry

     iteration # 10     ecut=    70.00 Ry     beta= 0.70
     Davidson diagonalization with overlap
     ethr =  4.65E-08,  avg # of iterations =  3.0

     negative rho (up, down):  1.345E-04 0.000E+00

     total cpu time spent up to now is      225.0 secs

     total energy              =    -335.88617118 Ry
     Harris-Foulkes estimate   =    -335.88617608 Ry
     estimated scf accuracy    <       0.00001034 Ry

     iteration # 11     ecut=    70.00 Ry     beta= 0.70
     Davidson diagonalization with overlap
     ethr =  1.28E-08,  avg # of iterations =  2.0

     negative rho (up, down):  1.335E-04 0.000E+00

     total cpu time spent up to now is      243.3 secs

     End of self-consistent calculation

          k = 0.0000 0.0000 0.0000 ( 31593 PWs)   bands (ev):

   -19.6977 -17.3692 -17.3582 -17.2097 -17.2072 -17.1565 -16.1492 -13.4630
   -13.4488 -13.0624 -11.9281 -11.5518 -11.5472 -10.5901 -10.5889  -9.9676
    -9.4794  -9.4734  -8.8561  -8.7490  -8.6572  -8.3859  -8.3820  -7.9580
    -6.7587  -6.5115  -6.1514  -5.9804  -5.9795  -4.9177  -4.9150  -4.8913
    -4.8183  -4.4933  -4.4909  -4.2887  -4.2661  -3.6030  -0.3334   0.0096
     0.0338   0.1304   0.1343   0.9338   2.8444   4.3747   4.5722   4.5906
     4.6762

     occupation numbers 
     1.0000   1.0000   1.0000   1.0000   1.0000   1.0000   1.0000   1.0000
     1.0000   1.0000   1.0000   1.0000   1.0000   1.0000   1.0000   1.0000
     1.0000   1.0000   1.0000   1.0000   1.0000   1.0000   1.0000   1.0000
     1.0000   1.0000   1.0000   1.0000   1.0000   1.0000   1.0000   1.0000
     1.0000   1.0000   1.0000   1.0000   1.0000   1.0000   0.0000   0.0000
     0.0000   0.0000   0.0000   0.0000   0.0000   0.0000   0.0000   0.0000
     0.0000

          k = 0.0000 0.2887 0.0000 ( 31638 PWs)   bands (ev):

   -19.5379 -18.2632 -17.7383 -17.4298 -16.5589 -16.1991 -15.5093 -14.4173
   -13.7463 -12.7831 -12.4059 -11.7334 -11.6554 -10.7937 -10.0765  -9.9311
    -9.7223  -9.3523  -8.7832  -8.6913  -8.3831  -7.8674  -7.7452  -7.3825
    -7.0469  -6.6740  -6.4866  -6.4184  -5.8554  -5.7901  -5.1146  -5.0660
    -4.8919  -4.5226  -4.4628  -3.7765  -3.6933  -2.7675  -1.5150  -0.8755
    -0.4019  -0.0731   1.1669   1.6768   2.8192   3.0253   3.5893   4.2596
     4.4915

     occupation numbers 
     1.0000   1.0000   1.0000   1.0000   1.0000   1.0000   1.0000   1.0000
     1.0000   1.0000   1.0000   1.0000   1.0000   1.0000   1.0000   1.0000
     1.0000   1.0000   1.0000   1.0000   1.0000   1.0000   1.0000   1.0000
     1.0000   1.0000   1.0000   1.0000   1.0000   1.0000   1.0000   1.0000
     1.0000   1.0000   1.0000   1.0000   1.0000   1.0000   1.0000   1.0000
     0.0000   0.0000   0.0000   0.0000   0.0000   0.0000   0.0000   0.0000
     0.0000

          k = 0.0000-0.5774 0.0000 ( 31614 PWs)   bands (ev):

   -19.1500 -18.9453 -17.8865 -17.5690 -15.7429 -15.3995 -15.3488 -15.0015
   -14.2214 -13.3155 -12.2888 -12.1036 -11.4256 -11.1546 -10.6477  -9.9930
    -8.8046  -8.7121  -8.4225  -8.1954  -8.0797  -7.8863  -7.7121  -7.4740
    -7.3500  -6.7753  -6.5073  -6.4089  -6.2284  -6.0116  -5.7858  -5.2346
    -5.1014  -4.4261  -4.1233  -2.9357  -2.7591  -2.6002  -2.3846  -1.5298
    -1.0397  -0.2861   1.6552   2.2290   2.4484   2.5799   3.4549   3.5502
     4.0225

     occupation numbers 
     1.0000   1.0000   1.0000   1.0000   1.0000   1.0000   1.0000   1.0000
     1.0000   1.0000   1.0000   1.0000   1.0000   1.0000   1.0000   1.0000
     1.0000   1.0000   1.0000   1.0000   1.0000   1.0000   1.0000   1.0000
     1.0000   1.0000   1.0000   1.0000   1.0000   1.0000   1.0000   1.0000
     1.0000   1.0000   1.0000   1.0000   1.0000   1.0000   1.0000   1.0000
     1.0000   0.0000   0.0000   0.0000   0.0000   0.0000   0.0000   0.0000
     0.0000

          k = 0.2500 0.4330 0.0000 ( 31601 PWs)   bands (ev):

   -19.2286 -18.6675 -18.4062 -16.7861 -16.5461 -15.4678 -15.1708 -14.8593
   -13.8179 -13.1920 -12.9060 -12.2370 -11.4614 -11.1916 -10.1262  -9.4889
    -8.9758  -8.8192  -8.6964  -8.6736  -8.2485  -7.6704  -7.5514  -7.4412
    -7.1419  -6.8270  -6.6814  -6.3093  -6.2777  -6.0663  -5.7533  -5.1025
    -4.8596  -4.2312  -4.0920  -3.8207  -2.8312  -2.5005  -2.0907  -1.3369
    -0.8337  -0.4672   1.5308   1.8194   2.2134   3.1007   3.4148   4.1190
     4.2696

     occupation numbers 
     1.0000   1.0000   1.0000   1.0000   1.0000   1.0000   1.0000   1.0000
     1.0000   1.0000   1.0000   1.0000   1.0000   1.0000   1.0000   1.0000
     1.0000   1.0000   1.0000   1.0000   1.0000   1.0000   1.0000   1.0000
     1.0000   1.0000   1.0000   1.0000   1.0000   1.0000   1.0000   1.0000
     1.0000   1.0000   1.0000   1.0000   1.0000   1.0000   1.0000   1.0000
     1.0000   0.1373   0.0000   0.0000   0.0000   0.0000   0.0000   0.0000
     0.0000

          k = 0.2500 0.1443 0.0000 ( 31638 PWs)   bands (ev):

   -19.5378 -18.2653 -17.7346 -17.4308 -16.5559 -16.2051 -15.5074 -14.4132
   -13.7526 -12.7840 -12.3984 -11.7362 -11.6569 -10.7920 -10.0745  -9.9331
    -9.7219  -9.3552  -8.8073  -8.6637  -8.3888  -7.8594  -7.7473  -7.3772
    -7.0477  -6.6981  -6.4608  -6.4203  -5.8663  -5.7910  -5.1119  -5.0748
    -4.8956  -4.5152  -4.4535  -3.7846  -3.6743  -2.7816  -1.5110  -0.8786
    -0.4053  -0.0688   1.1769   1.6641   2.7873   3.0599   3.5988   4.2260
     4.4958

     occupation numbers 
     1.0000   1.0000   1.0000   1.0000   1.0000   1.0000   1.0000   1.0000
     1.0000   1.0000   1.0000   1.0000   1.0000   1.0000   1.0000   1.0000
     1.0000   1.0000   1.0000   1.0000   1.0000   1.0000   1.0000   1.0000
     1.0000   1.0000   1.0000   1.0000   1.0000   1.0000   1.0000   1.0000
     1.0000   1.0000   1.0000   1.0000   1.0000   1.0000   1.0000   1.0000
     0.0000   0.0000   0.0000   0.0000   0.0000   0.0000   0.0000   0.0000
     0.0000

          k =-0.5000-0.2887 0.0000 ( 31614 PWs)   bands (ev):

   -19.1469 -18.9499 -17.8831 -17.5706 -15.7363 -15.3993 -15.3579 -15.0073
   -14.2099 -13.3183 -12.2832 -12.1155 -11.4226 -11.1495 -10.6484  -9.9933
    -8.8405  -8.6703  -8.4207  -8.1977  -8.0740  -7.8882  -7.7595  -7.4694
    -7.3145  -6.7687  -6.4868  -6.4064  -6.2558  -6.0128  -5.8127  -5.2240
    -5.0933  -4.4257  -4.1169  -2.9348  -2.7623  -2.6037  -2.3626  -1.5534
    -1.0412  -0.2823   1.6656   2.2331   2.4120   2.5977   3.4540   3.5497
     4.0168

     occupation numbers 
     1.0000   1.0000   1.0000   1.0000   1.0000   1.0000   1.0000   1.0000
     1.0000   1.0000   1.0000   1.0000   1.0000   1.0000   1.0000   1.0000
     1.0000   1.0000   1.0000   1.0000   1.0000   1.0000   1.0000   1.0000
     1.0000   1.0000   1.0000   1.0000   1.0000   1.0000   1.0000   1.0000
     1.0000   1.0000   1.0000   1.0000   1.0000   1.0000   1.0000   1.0000
     1.0000   0.0000   0.0000   0.0000   0.0000   0.0000   0.0000   0.0000
     0.0000

          k =-0.2500 0.4330 0.0000 ( 31601 PWs)   bands (ev):

   -19.2293 -18.6640 -18.4092 -16.7866 -16.5467 -15.4645 -15.1645 -14.8707
   -13.8132 -13.1913 -12.9072 -12.2404 -11.4629 -11.1874 -10.1270  -9.4891
    -8.9771  -8.7956  -8.7227  -8.6712  -8.2466  -7.6731  -7.5520  -7.4423
    -7.1407  -6.8262  -6.6781  -6.3121  -6.2643  -6.0641  -5.7747  -5.0964
    -4.8496  -4.2472  -4.0072  -3.9149  -2.8307  -2.4907  -2.0689  -1.3529
    -0.8321  -0.4700   1.5247   1.8134   2.2350   3.1269   3.3989   4.1254
     4.2472

     occupation numbers 
     1.0000   1.0000   1.0000   1.0000   1.0000   1.0000   1.0000   1.0000
     1.0000   1.0000   1.0000   1.0000   1.0000   1.0000   1.0000   1.0000
     1.0000   1.0000   1.0000   1.0000   1.0000   1.0000   1.0000   1.0000
     1.0000   1.0000   1.0000   1.0000   1.0000   1.0000   1.0000   1.0000
     1.0000   1.0000   1.0000   1.0000   1.0000   1.0000   1.0000   1.0000
     1.0000   0.2254   0.0000   0.0000   0.0000   0.0000   0.0000   0.0000
     0.0000

     the Fermi energy is    -0.4740 ev

!    total energy              =    -335.88617234 Ry
     Harris-Foulkes estimate   =    -335.88617263 Ry
     estimated scf accuracy    <       0.00000054 Ry

     The total energy is the sum of the following terms:

     one-electron contribution =   -1050.72800266 Ry
     hartree contribution      =     551.74242119 Ry
     xc contribution           =    -126.25646592 Ry
     ewald contribution        =     289.35596794 Ry
     smearing contrib. (-TS)   =      -0.00009289 Ry

     convergence has been achieved in  11 iterations

     Writing output data file gr-12.save/

     init_run     :     17.96s CPU     18.29s WALL (       1 calls)
     electrons    :    218.47s CPU    223.89s WALL (       1 calls)

     Called by init_run:
     wfcinit      :      8.84s CPU      8.88s WALL (       1 calls)
     wfcinit:atom :      0.03s CPU      0.03s WALL (       7 calls)
     wfcinit:wfcr :      8.62s CPU      8.66s WALL (       7 calls)
     potinit      :      4.26s CPU      4.39s WALL (       1 calls)
     hinit0       :      4.07s CPU      4.07s WALL (       1 calls)

     Called by electrons:
     c_bands      :    160.47s CPU    161.42s WALL (      11 calls)
     sum_band     :     29.19s CPU     31.06s WALL (      11 calls)
     v_of_rho     :     22.54s CPU     23.83s WALL (      12 calls)
     v_h          :      0.23s CPU      0.24s WALL (      12 calls)
     v_xc         :     22.31s CPU     23.59s WALL (      12 calls)
     newd         :      7.73s CPU      9.29s WALL (      12 calls)
     mix_rho      :      0.56s CPU      0.57s WALL (      11 calls)

     Called by c_bands:
     init_us_2    :      1.15s CPU      1.15s WALL (     161 calls)
     cegterg      :    156.99s CPU    157.92s WALL (      77 calls)

     Called by sum_band:
     sum_band:bec :      0.01s CPU      0.01s WALL (      77 calls)
     addusdens    :      9.09s CPU     10.70s WALL (      11 calls)

     Called by *egterg:
     h_psi        :     96.25s CPU     97.05s WALL (     336 calls)
     s_psi        :     28.14s CPU     28.17s WALL (     336 calls)
     g_psi        :      0.23s CPU      0.23s WALL (     252 calls)
     cdiaghg      :      2.12s CPU      2.12s WALL (     329 calls)
     cegterg:over :     13.84s CPU     13.87s WALL (     252 calls)
     cegterg:upda :      9.21s CPU      9.24s WALL (     252 calls)
     cegterg:last :      7.47s CPU      7.47s WALL (      77 calls)

     Called by h_psi:
     h_psi:pot    :     95.92s CPU     96.69s WALL (     336 calls)
     h_psi:calbec :     29.91s CPU     29.95s WALL (     336 calls)
     vloc_psi     :     35.93s CPU     36.64s WALL (     336 calls)
     add_vuspsi   :     30.07s CPU     30.10s WALL (     336 calls)

     General routines
     calbec       :     41.12s CPU     41.18s WALL (     413 calls)
     fft          :     11.70s CPU     12.19s WALL (     754 calls)
     ffts         :      0.09s CPU      0.09s WALL (      23 calls)
     fftw         :     38.42s CPU     39.25s WALL (   23763 calls)
     interpolate  :      0.26s CPU      0.26s WALL (      12 calls)

     Parallel routines
     fft_scatt_xy :      6.08s CPU      6.18s WALL (   24540 calls)
     fft_scatt_yz :     20.22s CPU     21.03s WALL (   24540 calls)

     PWSCF        :   3m57.66s CPU   4m 3.60s WALL


   This run was terminated on:   0:12:13  30Sep2023            

=------------------------------------------------------------------------------=
   JOB DONE.
=------------------------------------------------------------------------------=
