
     Program PWSCF v.6.4.1 starts on  9Jan2023 at 19:48:57 

     This program is part of the open-source Quantum ESPRESSO suite
     for quantum simulation of materials; please cite
         "P. Giannozzi et al., J. Phys.:Condens. Matter 21 395502 (2009);
         "P. Giannozzi et al., J. Phys.:Condens. Matter 29 465901 (2017);
          URL http://www.quantum-espresso.org", 
     in publications or presentations arising from this work. More details at
     http://www.quantum-espresso.org/quote

     Parallel version (MPI), running on     6 processors

     MPI processes distributed on     1 nodes
     R & G space division:  proc/nbgrp/npool/nimage =       6
     Reading input from distance-4.0.in

     Current dimensions of program PWSCF are:
     Max number of different atomic species (ntypx) = 10
     Max number of k-points (npk) =  40000
     Max angular momentum in pseudopotentials (lmaxx) =  3

     IMPORTANT: XC functional enforced from input :
     Exchange-correlation      = RVV10 ( 1  4 13  4 3 0)
     Any further DFT definition will be discarded
     Please, verify this is what you really want

               file H.pbe-rrkjus.UPF: wavefunction(s)  1S renormalized

     Subspace diagonalization in iterative solution of the eigenvalue problem:
     a serial algorithm will be used


     Parallelization info
     --------------------
     sticks:   dense  smooth     PW     G-vecs:    dense   smooth      PW
     Min        3051    1746    432               270999   117096   14629
     Max        3053    1747    437               271001   117099   14630
     Sum       18313   10477   2611              1626001   702581   87777



     bravais-lattice index     =            4
     lattice parameter (alat)  =      23.2937  a.u.
     unit-cell volume          =    8879.8548 (a.u.)^3
     number of atoms/cell      =           52
     number of atomic types    =            3
     number of electrons       =       214.00
     number of Kohn-Sham states=          128
     kinetic-energy cutoff     =      70.0000  Ry
     charge density cutoff     =     490.0000  Ry
     convergence threshold     =      1.0E-06
     mixing beta               =       0.7000
     number of iterations used =            8  plain     mixing
     Exchange-correlation      = RVV10 ( 1  4 13  4 3 0)

     celldm(1)=  23.293684  celldm(2)=   0.000000  celldm(3)=   0.811261
     celldm(4)=   0.000000  celldm(5)=   0.000000  celldm(6)=   0.000000

     crystal axes: (cart. coord. in units of alat)
               a(1) = (   1.000000   0.000000   0.000000 )  
               a(2) = (  -0.500000   0.866025   0.000000 )  
               a(3) = (   0.000000   0.000000   0.811261 )  

     reciprocal axes: (cart. coord. in units 2 pi/alat)
               b(1) = (  1.000000  0.577350 -0.000000 )  
               b(2) = (  0.000000  1.154701  0.000000 )  
               b(3) = (  0.000000 -0.000000  1.232649 )  


     PseudoPot. # 1 for H  read from file:
     /home/cristian/Escritorio/Proyecto_Grafeno/pseudopotenciales/H.pbe-rrkjus.UPF
     MD5 check sum: 7cc9d459525c9a0585f487a71c3c9563
     Pseudo is Ultrasoft, Zval =  1.0
     Generated by new atomic code, or converted to UPF format
     Using radial grid of 1061 points,  2 beta functions with: 
                l(1) =   0
                l(2) =   0
     Q(r) pseudized with 0 coefficients 


     PseudoPot. # 2 for C  read from file:
     /home/cristian/Escritorio/Proyecto_Grafeno/pseudopotenciales/C.pbe-n-rrkjus_psl.1.0.0.UPF
     MD5 check sum: 1fdd950c42eb37d8afe3dd2f8d12311e
     Pseudo is Ultrasoft + core correction, Zval =  4.0
     Generated using "atomic" code by A. Dal Corso v.6.3MaX
     Using radial grid of 1073 points,  4 beta functions with: 
                l(1) =   0
                l(2) =   0
                l(3) =   1
                l(4) =   1
     Q(r) pseudized with 0 coefficients 


     PseudoPot. # 3 for Fe read from file:
     /home/cristian/Escritorio/Proyecto_Grafeno/pseudopotenciales/Fe.pbe-spn-rrkjus_psl.1.0.0.UPF
     MD5 check sum: 72ea77fed8e64ab3a2ccf2804dfc1862
     Pseudo is Ultrasoft + core correction, Zval = 16.0
     Generated using "atomic" code by A. Dal Corso v.6.3
     Using radial grid of 1191 points,  6 beta functions with: 
                l(1) =   0
                l(2) =   0
                l(3) =   1
                l(4) =   1
                l(5) =   2
                l(6) =   2
     Q(r) pseudized with 0 coefficients 


     vdW kernel table read from file rVV10_kernel_table
     MD5 check sum: b8e2538accc0c0b3206b45ba4daaba6c

     atomic species   valence    mass     pseudopotential
        H              1.00     1.00794     H ( 1.00)
        C              4.00    12.01070     C ( 1.00)
        Fe            16.00    55.84500     Fe( 1.00)

     Starting magnetic structure 
     atomic species   magnetization
        H            0.500
        C            0.300
        Fe           0.800

     No symmetry found


                                    s                        frac. trans.

      isym =  1     identity                                     

 cryst.   s( 1) = (     1          0          0      )
                  (     0          1          0      )
                  (     0          0          1      )

 cart.    s( 1) = (  1.0000000  0.0000000  0.0000000 )
                  (  0.0000000  1.0000000  0.0000000 )
                  (  0.0000000  0.0000000  1.0000000 )


     point group C_1 (1)    
     there are  1 classes
     the character table:

       E    
A      1.00

     the symmetry operations in each class and the name of the first element:

     E        1
          identity                                               

   Cartesian axes

     site n.     atom                  positions (alat units)
         1           H   tau(   1) = (   0.2194937   0.4907477   0.3245045  )
         2           H   tau(   2) = (   0.2805063   0.4907477   0.3245045  )
         3           C   tau(   3) = (   0.0000000   0.0000000   0.0000000  )
         4           C   tau(   4) = (   0.0000000   0.1154701   0.0000000  )
         5           C   tau(   5) = (  -0.1000000   0.1732051   0.0000000  )
         6           C   tau(   6) = (  -0.1000000   0.2886751   0.0000000  )
         7           C   tau(   7) = (  -0.2000000   0.3464102   0.0000000  )
         8           C   tau(   8) = (  -0.2000000   0.4618802   0.0000000  )
         9           C   tau(   9) = (  -0.3000000   0.5196152   0.0000000  )
        10           C   tau(  10) = (  -0.3000000   0.6350853   0.0000000  )
        11           C   tau(  11) = (  -0.4000000   0.6928203   0.0000000  )
        12           C   tau(  12) = (  -0.4000000   0.8082904   0.0000000  )
        13           C   tau(  13) = (   0.2000000   0.0000000   0.0000000  )
        14           C   tau(  14) = (   0.2000000   0.1154701   0.0000000  )
        15           C   tau(  15) = (   0.1000000   0.1732051   0.0000000  )
        16           C   tau(  16) = (   0.1000000   0.2886751   0.0000000  )
        17           C   tau(  17) = (   0.0000000   0.3464102   0.0000000  )
        18           C   tau(  18) = (   0.0000000   0.4618802   0.0000000  )
        19           C   tau(  19) = (  -0.1000000   0.5196152   0.0000000  )
        20           C   tau(  20) = (  -0.1000000   0.6350853   0.0000000  )
        21           C   tau(  21) = (  -0.2000000   0.6928203   0.0000000  )
        22           C   tau(  22) = (  -0.2000000   0.8082904   0.0000000  )
        23           C   tau(  23) = (   0.4000000   0.0000000   0.0000000  )
        24           C   tau(  24) = (   0.4000000   0.1154701   0.0000000  )
        25           C   tau(  25) = (   0.3000000   0.1732051   0.0000000  )
        26           C   tau(  26) = (   0.3000000   0.2886751   0.0000000  )
        27           C   tau(  27) = (   0.2000000   0.3464102   0.0000000  )
        28           Fe  tau(  28) = (   0.2000000   0.4618802   0.0000000  )
        29           C   tau(  29) = (   0.1000000   0.5196152   0.0000000  )
        30           C   tau(  30) = (   0.1000000   0.6350853   0.0000000  )
        31           C   tau(  31) = (   0.0000000   0.6928203   0.0000000  )
        32           C   tau(  32) = (   0.0000000   0.8082904   0.0000000  )
        33           C   tau(  33) = (   0.6000000   0.0000000   0.0000000  )
        34           C   tau(  34) = (   0.6000000   0.1154701   0.0000000  )
        35           C   tau(  35) = (   0.5000000   0.1732051   0.0000000  )
        36           C   tau(  36) = (   0.5000000   0.2886751   0.0000000  )
        37           C   tau(  37) = (   0.4000000   0.3464102   0.0000000  )
        38           C   tau(  38) = (   0.4000000   0.4618802   0.0000000  )
        39           C   tau(  39) = (   0.3000000   0.5196152   0.0000000  )
        40           C   tau(  40) = (   0.3000000   0.6350853   0.0000000  )
        41           C   tau(  41) = (   0.2000000   0.6928203   0.0000000  )
        42           C   tau(  42) = (   0.2000000   0.8082904   0.0000000  )
        43           C   tau(  43) = (   0.8000000   0.0000000   0.0000000  )
        44           C   tau(  44) = (   0.8000000   0.1154701   0.0000000  )
        45           C   tau(  45) = (   0.7000000   0.1732051   0.0000000  )
        46           C   tau(  46) = (   0.7000000   0.2886751   0.0000000  )
        47           C   tau(  47) = (   0.6000000   0.3464102   0.0000000  )
        48           C   tau(  48) = (   0.6000000   0.4618802   0.0000000  )
        49           C   tau(  49) = (   0.5000000   0.5196152   0.0000000  )
        50           C   tau(  50) = (   0.5000000   0.6350853   0.0000000  )
        51           C   tau(  51) = (   0.4000000   0.6928203   0.0000000  )
        52           C   tau(  52) = (   0.4000000   0.8082904   0.0000000  )

   Crystallographic axes

     site n.     atom                  positions (cryst. coord.)
         1           H   tau(   1) = (  0.5028270  0.5666667  0.4000000  )
         2           H   tau(   2) = (  0.5638397  0.5666667  0.4000000  )
         3           C   tau(   3) = (  0.0000000  0.0000000  0.0000000  )
         4           C   tau(   4) = (  0.0666667  0.1333333  0.0000000  )
         5           C   tau(   5) = (  0.0000000  0.2000000  0.0000000  )
         6           C   tau(   6) = (  0.0666667  0.3333333  0.0000000  )
         7           C   tau(   7) = (  0.0000000  0.4000000  0.0000000  )
         8           C   tau(   8) = (  0.0666667  0.5333333  0.0000000  )
         9           C   tau(   9) = (  0.0000000  0.6000000  0.0000000  )
        10           C   tau(  10) = (  0.0666667  0.7333333  0.0000000  )
        11           C   tau(  11) = (  0.0000000  0.8000000  0.0000000  )
        12           C   tau(  12) = (  0.0666667  0.9333333  0.0000000  )
        13           C   tau(  13) = (  0.2000000  0.0000000  0.0000000  )
        14           C   tau(  14) = (  0.2666667  0.1333333  0.0000000  )
        15           C   tau(  15) = (  0.2000000  0.2000000  0.0000000  )
        16           C   tau(  16) = (  0.2666667  0.3333333  0.0000000  )
        17           C   tau(  17) = (  0.2000000  0.4000000  0.0000000  )
        18           C   tau(  18) = (  0.2666667  0.5333333  0.0000000  )
        19           C   tau(  19) = (  0.2000000  0.6000000  0.0000000  )
        20           C   tau(  20) = (  0.2666667  0.7333333  0.0000000  )
        21           C   tau(  21) = (  0.2000000  0.8000000  0.0000000  )
        22           C   tau(  22) = (  0.2666667  0.9333333  0.0000000  )
        23           C   tau(  23) = (  0.4000000  0.0000000  0.0000000  )
        24           C   tau(  24) = (  0.4666667  0.1333333  0.0000000  )
        25           C   tau(  25) = (  0.4000000  0.2000000  0.0000000  )
        26           C   tau(  26) = (  0.4666667  0.3333333  0.0000000  )
        27           C   tau(  27) = (  0.4000000  0.4000000  0.0000000  )
        28           Fe  tau(  28) = (  0.4666667  0.5333333  0.0000000  )
        29           C   tau(  29) = (  0.4000000  0.6000000  0.0000000  )
        30           C   tau(  30) = (  0.4666667  0.7333333  0.0000000  )
        31           C   tau(  31) = (  0.4000000  0.8000000  0.0000000  )
        32           C   tau(  32) = (  0.4666667  0.9333333  0.0000000  )
        33           C   tau(  33) = (  0.6000000  0.0000000  0.0000000  )
        34           C   tau(  34) = (  0.6666667  0.1333333  0.0000000  )
        35           C   tau(  35) = (  0.6000000  0.2000000  0.0000000  )
        36           C   tau(  36) = (  0.6666667  0.3333333  0.0000000  )
        37           C   tau(  37) = (  0.6000000  0.4000000  0.0000000  )
        38           C   tau(  38) = (  0.6666667  0.5333333  0.0000000  )
        39           C   tau(  39) = (  0.6000000  0.6000000  0.0000000  )
        40           C   tau(  40) = (  0.6666667  0.7333333  0.0000000  )
        41           C   tau(  41) = (  0.6000000  0.8000000  0.0000000  )
        42           C   tau(  42) = (  0.6666667  0.9333333  0.0000000  )
        43           C   tau(  43) = (  0.8000000  0.0000000  0.0000000  )
        44           C   tau(  44) = (  0.8666667  0.1333333  0.0000000  )
        45           C   tau(  45) = (  0.8000000  0.2000000  0.0000000  )
        46           C   tau(  46) = (  0.8666667  0.3333333  0.0000000  )
        47           C   tau(  47) = (  0.8000000  0.4000000  0.0000000  )
        48           C   tau(  48) = (  0.8666667  0.5333333  0.0000000  )
        49           C   tau(  49) = (  0.8000000  0.6000000  0.0000000  )
        50           C   tau(  50) = (  0.8666667  0.7333333  0.0000000  )
        51           C   tau(  51) = (  0.8000000  0.8000000  0.0000000  )
        52           C   tau(  52) = (  0.8666667  0.9333333  0.0000000  )

     number of k points=     1  Marzari-Vanderbilt smearing, width (Ry)=  0.0010
                       cart. coord. in units 2pi/alat
        k(    1) = (   0.0000000   0.0000000   0.0000000), wk =   1.0000000

                       cryst. coord.
        k(    1) = (   0.0000000   0.0000000   0.0000000), wk =   1.0000000

     Dense  grid:  1626001 G-vectors     FFT dimensions: ( 180, 180, 135)

     Smooth grid:   702581 G-vectors     FFT dimensions: ( 125, 125, 108)

     Dynamical RAM for                 wfc:      28.59 MB

     Dynamical RAM for     wfc (w. buffer):      85.76 MB

     Dynamical RAM for           str. fact:      12.41 MB

     Dynamical RAM for           local pot:       0.00 MB

     Dynamical RAM for          nlocal pot:      92.46 MB

     Dynamical RAM for                qrad:      19.73 MB

     Dynamical RAM for          rho,v,vnew:      58.92 MB

     Dynamical RAM for               rhoin:      19.64 MB

     Dynamical RAM for            rho*nmix:     132.32 MB

     Dynamical RAM for           G-vectors:      16.40 MB

     Dynamical RAM for          h,s,v(r/c):      12.00 MB

     Dynamical RAM for          <psi|beta>:       0.81 MB

     Dynamical RAM for                 psi:     114.35 MB

     Dynamical RAM for                hpsi:     114.35 MB

     Dynamical RAM for                spsi:     114.35 MB

     Dynamical RAM for      wfcinit/wfcrot:      93.90 MB

     Dynamical RAM for           addusdens:     975.89 MB

     Estimated static dynamical RAM per process >     488.30 MB

     Estimated max dynamical RAM per process >       1.43 GB

     Estimated total dynamical RAM >       8.58 GB
     Generating pointlists ...
     new r_m :   0.0252 (alat units)  0.5862 (a.u.) for type    1
     new r_m :   0.0476 (alat units)  1.1095 (a.u.) for type    2
     new r_m :   0.0476 (alat units)  1.1095 (a.u.) for type    3

     Check: negative core charge=   -0.000002

     Initial potential from superposition of free atoms

     starting charge  213.80512, renormalised to  214.00000

     negative rho (up, down):  5.317E-05 8.374E-03


---------------------------------------------------------------------------------
Carrying out rVV10 run using the following parameters:
Nqs =      20    Nr_points =    1024   r_max =   100.000
b_value =  6.30000    beta =  0.00901
     q_mesh =  0.00010000  0.00030000  0.00058939  0.00100810
               0.00161396  0.00249058  0.00375900  0.00559430
               0.00824984  0.01209221  0.01765183  0.02569619
               0.03733578  0.05417739  0.07854596  0.11380545
               0.16482331  0.23864234  0.34545298  0.50000000

Gradients computed in Reciprocal space

---------------------------------------------------------------------------------


     Starting wfcs are  208 randomized atomic wfcs

     total cpu time spent up to now is       79.7 secs

     Self-consistent Calculation

     iteration #  1     ecut=    70.00 Ry     beta= 0.70
     Davidson diagonalization with overlap
     ethr =  1.00E-02,  avg # of iterations =  4.0

     negative rho (up, down):  1.095E-04 1.095E-02

     total cpu time spent up to now is      211.4 secs

     total energy              =    -857.48998802 Ry
     Harris-Foulkes estimate   =    -858.62725323 Ry
     estimated scf accuracy    <      10.06858439 Ry

     total magnetization       =     6.00 Bohr mag/cell
     absolute magnetization    =     6.66 Bohr mag/cell

     iteration #  2     ecut=    70.00 Ry     beta= 0.70
     Davidson diagonalization with overlap
     ethr =  4.70E-03,  avg # of iterations =  5.0

     negative rho (up, down):  1.978E-04 2.286E-02

     total cpu time spent up to now is      323.6 secs

     total energy              =    -857.01183248 Ry
     Harris-Foulkes estimate   =    -860.32108396 Ry
     estimated scf accuracy    <       6.42619711 Ry

     total magnetization       =     4.54 Bohr mag/cell
     absolute magnetization    =     5.30 Bohr mag/cell

     iteration #  3     ecut=    70.00 Ry     beta= 0.70
     Davidson diagonalization with overlap
     ethr =  3.00E-03,  avg # of iterations =  5.5

     negative rho (up, down):  5.525E-04 5.220E-02

     total cpu time spent up to now is      464.2 secs

     total energy              =    -855.75838280 Ry
     Harris-Foulkes estimate   =    -863.44380377 Ry
     estimated scf accuracy    <      38.20529607 Ry

     total magnetization       =    -0.00 Bohr mag/cell
     absolute magnetization    =     1.11 Bohr mag/cell

     iteration #  4     ecut=    70.00 Ry     beta= 0.70
     Davidson diagonalization with overlap
     ethr =  3.00E-03,  avg # of iterations =  4.0

     negative rho (up, down):  2.341E-04 3.842E-02

     total cpu time spent up to now is      572.4 secs

     total energy              =    -859.14240627 Ry
     Harris-Foulkes estimate   =    -860.63690035 Ry
     estimated scf accuracy    <       6.00606954 Ry

     total magnetization       =     2.00 Bohr mag/cell
     absolute magnetization    =     2.95 Bohr mag/cell

     iteration #  5     ecut=    70.00 Ry     beta= 0.70
     Davidson diagonalization with overlap
     ethr =  2.81E-03,  avg # of iterations =  3.5

     negative rho (up, down):  4.633E-04 5.638E-02

     total cpu time spent up to now is      677.5 secs

     total energy              =    -859.89370898 Ry
     Harris-Foulkes estimate   =    -860.15369785 Ry
     estimated scf accuracy    <       1.30488888 Ry

     total magnetization       =     2.00 Bohr mag/cell
     absolute magnetization    =     2.40 Bohr mag/cell

     iteration #  6     ecut=    70.00 Ry     beta= 0.70
     Davidson diagonalization with overlap
     ethr =  6.10E-04,  avg # of iterations =  4.0

     negative rho (up, down):  1.121E-03 7.472E-02

     total cpu time spent up to now is      775.9 secs

     total energy              =    -860.00249658 Ry
     Harris-Foulkes estimate   =    -860.07949559 Ry
     estimated scf accuracy    <       0.25034933 Ry

     total magnetization       =     2.00 Bohr mag/cell
     absolute magnetization    =     2.46 Bohr mag/cell

     iteration #  7     ecut=    70.00 Ry     beta= 0.70
     Davidson diagonalization with overlap
     ethr =  1.17E-04,  avg # of iterations =  6.0

     negative rho (up, down):  1.323E-03 8.395E-02

     total cpu time spent up to now is      889.2 secs

     total energy              =    -860.01870275 Ry
     Harris-Foulkes estimate   =    -860.08199351 Ry
     estimated scf accuracy    <       0.27921739 Ry

     total magnetization       =     2.00 Bohr mag/cell
     absolute magnetization    =     2.39 Bohr mag/cell

     iteration #  8     ecut=    70.00 Ry     beta= 0.70
     Davidson diagonalization with overlap
     ethr =  1.17E-04,  avg # of iterations =  6.0

     negative rho (up, down):  1.176E-03 7.052E-02

     total cpu time spent up to now is      986.4 secs

     total energy              =    -860.04635957 Ry
     Harris-Foulkes estimate   =    -860.05386999 Ry
     estimated scf accuracy    <       0.15322110 Ry

     total magnetization       =     2.00 Bohr mag/cell
     absolute magnetization    =     2.22 Bohr mag/cell

     iteration #  9     ecut=    70.00 Ry     beta= 0.70
     Davidson diagonalization with overlap
     ethr =  7.16E-05,  avg # of iterations =  1.0

     negative rho (up, down):  1.448E-03 8.639E-02

     total cpu time spent up to now is     1080.5 secs

     total energy              =    -860.04978141 Ry
     Harris-Foulkes estimate   =    -860.05444045 Ry
     estimated scf accuracy    <       0.06280322 Ry

     total magnetization       =     2.00 Bohr mag/cell
     absolute magnetization    =     2.35 Bohr mag/cell

     iteration # 10     ecut=    70.00 Ry     beta= 0.70
     Davidson diagonalization with overlap
     ethr =  2.93E-05,  avg # of iterations =  1.0

     negative rho (up, down):  1.659E-03 9.379E-02

     total cpu time spent up to now is     1174.6 secs

     total energy              =    -860.05092733 Ry
     Harris-Foulkes estimate   =    -860.05097178 Ry
     estimated scf accuracy    <       0.05609186 Ry

     total magnetization       =     2.00 Bohr mag/cell
     absolute magnetization    =     2.33 Bohr mag/cell

     iteration # 11     ecut=    70.00 Ry     beta= 0.70
     Davidson diagonalization with overlap
     ethr =  2.62E-05,  avg # of iterations =  1.0

     negative rho (up, down):  8.983E-04 7.048E-02

     total cpu time spent up to now is     1268.7 secs

     total energy              =    -860.05110890 Ry
     Harris-Foulkes estimate   =    -860.05114341 Ry
     estimated scf accuracy    <       0.03688548 Ry

     total magnetization       =     2.00 Bohr mag/cell
     absolute magnetization    =     2.38 Bohr mag/cell

     iteration # 12     ecut=    70.00 Ry     beta= 0.70
     Davidson diagonalization with overlap
     ethr =  1.72E-05,  avg # of iterations =  5.0

     negative rho (up, down):  7.383E-04 6.261E-02

     total cpu time spent up to now is     1368.1 secs

     total energy              =    -860.05363326 Ry
     Harris-Foulkes estimate   =    -860.05388581 Ry
     estimated scf accuracy    <       0.03653808 Ry

     total magnetization       =     2.00 Bohr mag/cell
     absolute magnetization    =     2.40 Bohr mag/cell

     iteration # 13     ecut=    70.00 Ry     beta= 0.70
     Davidson diagonalization with overlap
     ethr =  1.71E-05,  avg # of iterations =  1.5

     negative rho (up, down):  8.690E-04 9.922E-02

     total cpu time spent up to now is     1462.6 secs

     total energy              =    -860.05400156 Ry
     Harris-Foulkes estimate   =    -860.05470826 Ry
     estimated scf accuracy    <       0.01909832 Ry

     total magnetization       =     2.01 Bohr mag/cell
     absolute magnetization    =     2.69 Bohr mag/cell

     iteration # 14     ecut=    70.00 Ry     beta= 0.70
     Davidson diagonalization with overlap
     ethr =  8.92E-06,  avg # of iterations =  2.5

     negative rho (up, down):  8.456E-04 1.056E-01

     total cpu time spent up to now is     1557.4 secs

     total energy              =    -860.05285156 Ry
     Harris-Foulkes estimate   =    -860.05416393 Ry
     estimated scf accuracy    <       0.01576035 Ry

     total magnetization       =     2.00 Bohr mag/cell
     absolute magnetization    =     2.64 Bohr mag/cell

     iteration # 15     ecut=    70.00 Ry     beta= 0.70
     Davidson diagonalization with overlap
     ethr =  7.36E-06,  avg # of iterations =  2.0

     negative rho (up, down):  7.102E-04 8.314E-02

     total cpu time spent up to now is     1652.7 secs

     total energy              =    -860.05299337 Ry
     Harris-Foulkes estimate   =    -860.05330105 Ry
     estimated scf accuracy    <       0.01650503 Ry

     total magnetization       =     2.00 Bohr mag/cell
     absolute magnetization    =     2.67 Bohr mag/cell

     iteration # 16     ecut=    70.00 Ry     beta= 0.70
     Davidson diagonalization with overlap
     ethr =  7.36E-06,  avg # of iterations =  2.5

     negative rho (up, down):  5.780E-04 7.334E-02

     total cpu time spent up to now is     1748.3 secs

     total energy              =    -860.05274398 Ry
     Harris-Foulkes estimate   =    -860.05447396 Ry
     estimated scf accuracy    <       0.02155069 Ry

     total magnetization       =     2.00 Bohr mag/cell
     absolute magnetization    =     2.81 Bohr mag/cell

     iteration # 17     ecut=    70.00 Ry     beta= 0.70
     Davidson diagonalization with overlap
     ethr =  7.36E-06,  avg # of iterations =  8.5

     negative rho (up, down):  5.985E-04 6.565E-02

     total cpu time spent up to now is     1845.9 secs

     total energy              =    -860.05425523 Ry
     Harris-Foulkes estimate   =    -860.05396344 Ry
     estimated scf accuracy    <       0.00461713 Ry

     total magnetization       =     2.01 Bohr mag/cell
     absolute magnetization    =     2.79 Bohr mag/cell

     iteration # 18     ecut=    70.00 Ry     beta= 0.70
     Davidson diagonalization with overlap
     ethr =  2.16E-06,  avg # of iterations =  8.0

     negative rho (up, down):  5.688E-04 8.332E-02

     total cpu time spent up to now is     1956.2 secs

     total energy              =    -860.05398860 Ry
     Harris-Foulkes estimate   =    -860.05518714 Ry
     estimated scf accuracy    <       0.00649478 Ry

     total magnetization       =     2.17 Bohr mag/cell
     absolute magnetization    =     3.02 Bohr mag/cell

     iteration # 19     ecut=    70.00 Ry     beta= 0.70
     Davidson diagonalization with overlap
     ethr =  2.16E-06,  avg # of iterations =  2.5

     negative rho (up, down):  6.183E-04 8.684E-02

     total cpu time spent up to now is     2054.6 secs

     total energy              =    -860.05452316 Ry
     Harris-Foulkes estimate   =    -860.05473835 Ry
     estimated scf accuracy    <       0.00523009 Ry

     total magnetization       =     2.00 Bohr mag/cell
     absolute magnetization    =     2.77 Bohr mag/cell

     iteration # 20     ecut=    70.00 Ry     beta= 0.70
     Davidson diagonalization with overlap
     ethr =  2.16E-06,  avg # of iterations =  2.0

     negative rho (up, down):  6.017E-04 7.581E-02

     total cpu time spent up to now is     2150.0 secs

     total energy              =    -860.05462064 Ry
     Harris-Foulkes estimate   =    -860.05463387 Ry
     estimated scf accuracy    <       0.00675325 Ry

     total magnetization       =     2.00 Bohr mag/cell
     absolute magnetization    =     2.75 Bohr mag/cell

     iteration # 21     ecut=    70.00 Ry     beta= 0.70
     Davidson diagonalization with overlap
     ethr =  2.16E-06,  avg # of iterations =  2.0

     negative rho (up, down):  5.871E-04 6.207E-02

     total cpu time spent up to now is     2247.8 secs

     total energy              =    -860.05558809 Ry
     Harris-Foulkes estimate   =    -860.05492538 Ry
     estimated scf accuracy    <       0.00257937 Ry

     total magnetization       =     2.03 Bohr mag/cell
     absolute magnetization    =     2.83 Bohr mag/cell

     iteration # 22     ecut=    70.00 Ry     beta= 0.70
     Davidson diagonalization with overlap
     ethr =  1.21E-06,  avg # of iterations =  2.0

     negative rho (up, down):  6.397E-04 8.145E-02

     total cpu time spent up to now is     2352.2 secs

     total energy              =    -860.05632477 Ry
     Harris-Foulkes estimate   =    -860.05599754 Ry
     estimated scf accuracy    <       0.00338685 Ry

     total magnetization       =     2.07 Bohr mag/cell
     absolute magnetization    =     2.91 Bohr mag/cell

     iteration # 23     ecut=    70.00 Ry     beta= 0.70
     Davidson diagonalization with overlap
     ethr =  1.21E-06,  avg # of iterations =  2.0

     negative rho (up, down):  6.109E-04 1.107E-01

     total cpu time spent up to now is     2451.1 secs

     total energy              =    -860.05561772 Ry
     Harris-Foulkes estimate   =    -860.05653759 Ry
     estimated scf accuracy    <       0.00671572 Ry

     total magnetization       =     2.13 Bohr mag/cell
     absolute magnetization    =     2.91 Bohr mag/cell

     iteration # 24     ecut=    70.00 Ry     beta= 0.70
     Davidson diagonalization with overlap
     ethr =  1.21E-06,  avg # of iterations =  2.0

     negative rho (up, down):  6.468E-04 1.169E-01

     total cpu time spent up to now is     2552.3 secs

     total energy              =    -860.05445711 Ry
     Harris-Foulkes estimate   =    -860.05607303 Ry
     estimated scf accuracy    <       0.00350790 Ry

     total magnetization       =     2.16 Bohr mag/cell
     absolute magnetization    =     2.93 Bohr mag/cell

     iteration # 25     ecut=    70.00 Ry     beta= 0.70
     Davidson diagonalization with overlap
     ethr =  1.21E-06,  avg # of iterations =  3.0

     negative rho (up, down):  6.065E-04 1.054E-01

     total cpu time spent up to now is     2660.8 secs

     total energy              =    -860.05395747 Ry
     Harris-Foulkes estimate   =    -860.05524139 Ry
     estimated scf accuracy    <       0.00283083 Ry

     total magnetization       =     2.16 Bohr mag/cell
     absolute magnetization    =     2.93 Bohr mag/cell

     iteration # 26     ecut=    70.00 Ry     beta= 0.70
     Davidson diagonalization with overlap
     ethr =  1.21E-06,  avg # of iterations =  3.0

     negative rho (up, down):  7.692E-04 9.793E-02

     total cpu time spent up to now is     2770.1 secs

     total energy              =    -860.05355222 Ry
     Harris-Foulkes estimate   =    -860.05465624 Ry
     estimated scf accuracy    <       0.00259398 Ry

     total magnetization       =     2.04 Bohr mag/cell
     absolute magnetization    =     2.87 Bohr mag/cell

     iteration # 27     ecut=    70.00 Ry     beta= 0.70
     Davidson diagonalization with overlap
     ethr =  1.21E-06,  avg # of iterations =  2.0

     negative rho (up, down):  5.773E-04 3.840E-02

     total cpu time spent up to now is     2870.8 secs

     total energy              =    -860.05442092 Ry
     Harris-Foulkes estimate   =    -860.05392310 Ry
     estimated scf accuracy    <       0.00109599 Ry

     total magnetization       =     2.03 Bohr mag/cell
     absolute magnetization    =     2.88 Bohr mag/cell

     iteration # 28     ecut=    70.00 Ry     beta= 0.70
     Davidson diagonalization with overlap
     ethr =  5.12E-07,  avg # of iterations =  2.5

     negative rho (up, down):  6.430E-04 7.699E-02

     total cpu time spent up to now is     2984.6 secs

     total energy              =    -860.05420306 Ry
     Harris-Foulkes estimate   =    -860.05493474 Ry
     estimated scf accuracy    <       0.00190171 Ry

     total magnetization       =     2.04 Bohr mag/cell
     absolute magnetization    =     2.90 Bohr mag/cell

     iteration # 29     ecut=    70.00 Ry     beta= 0.70
     Davidson diagonalization with overlap
     ethr =  5.12E-07,  avg # of iterations =  2.0

     negative rho (up, down):  5.766E-04 5.432E-02

     total cpu time spent up to now is     3090.8 secs

     total energy              =    -860.05464688 Ry
     Harris-Foulkes estimate   =    -860.05442853 Ry
     estimated scf accuracy    <       0.00093701 Ry

     total magnetization       =     2.06 Bohr mag/cell
     absolute magnetization    =     2.89 Bohr mag/cell

     iteration # 30     ecut=    70.00 Ry     beta= 0.70
     Davidson diagonalization with overlap
     ethr =  4.38E-07,  avg # of iterations =  2.5

     negative rho (up, down):  6.027E-04 5.765E-02

     total cpu time spent up to now is     3200.4 secs

     total energy              =    -860.05504985 Ry
     Harris-Foulkes estimate   =    -860.05501169 Ry
     estimated scf accuracy    <       0.00285363 Ry

     total magnetization       =     2.08 Bohr mag/cell
     absolute magnetization    =     2.91 Bohr mag/cell

     iteration # 31     ecut=    70.00 Ry     beta= 0.70
     Davidson diagonalization with overlap
     ethr =  4.38E-07,  avg # of iterations =  3.0

     negative rho (up, down):  5.949E-04 7.340E-02

     total cpu time spent up to now is     3310.7 secs

     total energy              =    -860.05537725 Ry
     Harris-Foulkes estimate   =    -860.05534479 Ry
     estimated scf accuracy    <       0.00178439 Ry

     total magnetization       =     2.09 Bohr mag/cell
     absolute magnetization    =     2.94 Bohr mag/cell

     iteration # 32     ecut=    70.00 Ry     beta= 0.70
     Davidson diagonalization with overlap
     ethr =  4.38E-07,  avg # of iterations =  2.0

     negative rho (up, down):  5.638E-04 7.491E-02

     total cpu time spent up to now is     3410.0 secs

     total energy              =    -860.05570154 Ry
     Harris-Foulkes estimate   =    -860.05547675 Ry
     estimated scf accuracy    <       0.00194173 Ry

     total magnetization       =     2.04 Bohr mag/cell
     absolute magnetization    =     2.94 Bohr mag/cell

     iteration # 33     ecut=    70.00 Ry     beta= 0.70
     Davidson diagonalization with overlap
     ethr =  4.38E-07,  avg # of iterations =  2.0

     negative rho (up, down):  5.771E-04 9.893E-02

     total cpu time spent up to now is     3511.1 secs

     total energy              =    -860.05496724 Ry
     Harris-Foulkes estimate   =    -860.05580822 Ry
     estimated scf accuracy    <       0.00219533 Ry

     total magnetization       =     2.04 Bohr mag/cell
     absolute magnetization    =     2.94 Bohr mag/cell

     iteration # 34     ecut=    70.00 Ry     beta= 0.70
     Davidson diagonalization with overlap
     ethr =  4.38E-07,  avg # of iterations =  3.0

     negative rho (up, down):  5.725E-04 1.022E-01

     total cpu time spent up to now is     3618.3 secs

     total energy              =    -860.05414721 Ry
     Harris-Foulkes estimate   =    -860.05526546 Ry
     estimated scf accuracy    <       0.00185301 Ry

     total magnetization       =     2.03 Bohr mag/cell
     absolute magnetization    =     2.94 Bohr mag/cell

     iteration # 35     ecut=    70.00 Ry     beta= 0.70
     Davidson diagonalization with overlap
     ethr =  4.38E-07,  avg # of iterations =  3.0

     negative rho (up, down):  5.653E-04 7.561E-02

     total cpu time spent up to now is     3733.0 secs

     total energy              =    -860.05460021 Ry
     Harris-Foulkes estimate   =    -860.05473867 Ry
     estimated scf accuracy    <       0.00142866 Ry

     total magnetization       =     2.02 Bohr mag/cell
     absolute magnetization    =     2.94 Bohr mag/cell

     iteration # 36     ecut=    70.00 Ry     beta= 0.70
     Davidson diagonalization with overlap
     ethr =  4.38E-07,  avg # of iterations =  3.0

     negative rho (up, down):  5.808E-04 7.196E-02

     total cpu time spent up to now is     3840.9 secs

     total energy              =    -860.05478391 Ry
     Harris-Foulkes estimate   =    -860.05497199 Ry
     estimated scf accuracy    <       0.00296042 Ry

     total magnetization       =     2.08 Bohr mag/cell
     absolute magnetization    =     2.94 Bohr mag/cell

     iteration # 37     ecut=    70.00 Ry     beta= 0.70
     Davidson diagonalization with overlap
     ethr =  4.38E-07,  avg # of iterations =  2.0

     negative rho (up, down):  5.759E-04 7.104E-02

     total cpu time spent up to now is     3947.2 secs

     total energy              =    -860.05508735 Ry
     Harris-Foulkes estimate   =    -860.05510763 Ry
     estimated scf accuracy    <       0.00151805 Ry

     total magnetization       =     2.06 Bohr mag/cell
     absolute magnetization    =     2.96 Bohr mag/cell

     iteration # 38     ecut=    70.00 Ry     beta= 0.70
     Davidson diagonalization with overlap
     ethr =  4.38E-07,  avg # of iterations =  2.0

     negative rho (up, down):  5.776E-04 8.005E-02

     total cpu time spent up to now is     4053.2 secs

     total energy              =    -860.05516358 Ry
     Harris-Foulkes estimate   =    -860.05532887 Ry
     estimated scf accuracy    <       0.00231056 Ry

     total magnetization       =     2.05 Bohr mag/cell
     absolute magnetization    =     2.95 Bohr mag/cell

     iteration # 39     ecut=    70.00 Ry     beta= 0.70
     Davidson diagonalization with overlap
     ethr =  4.38E-07,  avg # of iterations =  2.0

     negative rho (up, down):  5.665E-04 7.281E-02

     total cpu time spent up to now is     4152.5 secs

     total energy              =    -860.05553260 Ry
     Harris-Foulkes estimate   =    -860.05524522 Ry
     estimated scf accuracy    <       0.00175669 Ry

     total magnetization       =     2.05 Bohr mag/cell
     absolute magnetization    =     2.96 Bohr mag/cell

     iteration # 40     ecut=    70.00 Ry     beta= 0.70
     Davidson diagonalization with overlap
     ethr =  4.38E-07,  avg # of iterations =  2.0

     negative rho (up, down):  5.757E-04 8.217E-02

     total cpu time spent up to now is     4258.8 secs

     total energy              =    -860.05584781 Ry
     Harris-Foulkes estimate   =    -860.05574947 Ry
     estimated scf accuracy    <       0.00338891 Ry

     total magnetization       =     2.09 Bohr mag/cell
     absolute magnetization    =     2.97 Bohr mag/cell

     iteration # 41     ecut=    70.00 Ry     beta= 0.70
     Davidson diagonalization with overlap
     ethr =  4.38E-07,  avg # of iterations =  1.5

     negative rho (up, down):  5.740E-04 9.383E-02

     total cpu time spent up to now is     4353.4 secs

     total energy              =    -860.05563451 Ry
     Harris-Foulkes estimate   =    -860.05586950 Ry
     estimated scf accuracy    <       0.00302882 Ry

     total magnetization       =     2.12 Bohr mag/cell
     absolute magnetization    =     2.98 Bohr mag/cell

     iteration # 42     ecut=    70.00 Ry     beta= 0.70
     Davidson diagonalization with overlap
     ethr =  4.38E-07,  avg # of iterations =  2.0

     negative rho (up, down):  5.699E-04 1.062E-01

     total cpu time spent up to now is     4449.0 secs

     total energy              =    -860.05442128 Ry
     Harris-Foulkes estimate   =    -860.05566973 Ry
     estimated scf accuracy    <       0.00259974 Ry

     total magnetization       =     2.17 Bohr mag/cell
     absolute magnetization    =     2.98 Bohr mag/cell

     iteration # 43     ecut=    70.00 Ry     beta= 0.70
     Davidson diagonalization with overlap
     ethr =  4.38E-07,  avg # of iterations =  3.0

     negative rho (up, down):  5.776E-04 1.086E-01

     total cpu time spent up to now is     4563.0 secs

     total energy              =    -860.05319762 Ry
     Harris-Foulkes estimate   =    -860.05503328 Ry
     estimated scf accuracy    <       0.00310735 Ry

     total magnetization       =     2.10 Bohr mag/cell
     absolute magnetization    =     2.97 Bohr mag/cell

     iteration # 44     ecut=    70.00 Ry     beta= 0.70
     Davidson diagonalization with overlap
     ethr =  4.38E-07,  avg # of iterations =  3.0

     negative rho (up, down):  5.593E-04 7.225E-02

     total cpu time spent up to now is     4682.3 secs

     total energy              =    -860.05392368 Ry
     Harris-Foulkes estimate   =    -860.05421048 Ry
     estimated scf accuracy    <       0.00099996 Ry

     total magnetization       =     2.01 Bohr mag/cell
     absolute magnetization    =     3.00 Bohr mag/cell

     iteration # 45     ecut=    70.00 Ry     beta= 0.70
     Davidson diagonalization with overlap
     ethr =  4.38E-07,  avg # of iterations =  2.0

     negative rho (up, down):  5.537E-04 5.771E-02

     total cpu time spent up to now is     4785.8 secs

     total energy              =    -860.05383488 Ry
     Harris-Foulkes estimate   =    -860.05410010 Ry
     estimated scf accuracy    <       0.00045441 Ry

     total magnetization       =     1.95 Bohr mag/cell
     absolute magnetization    =     3.03 Bohr mag/cell

     iteration # 46     ecut=    70.00 Ry     beta= 0.70
     Davidson diagonalization with overlap
     ethr =  2.12E-07,  avg # of iterations =  3.0

     negative rho (up, down):  5.512E-04 2.411E-02

     total cpu time spent up to now is     4897.1 secs

     total energy              =    -860.05410371 Ry
     Harris-Foulkes estimate   =    -860.05410494 Ry
     estimated scf accuracy    <       0.00040446 Ry

     total magnetization       =     1.77 Bohr mag/cell
     absolute magnetization    =     3.09 Bohr mag/cell

     iteration # 47     ecut=    70.00 Ry     beta= 0.70
     Davidson diagonalization with overlap
     ethr =  1.89E-07,  avg # of iterations =  2.5

     negative rho (up, down):  5.494E-04 1.567E-02

     total cpu time spent up to now is     4992.4 secs

     total energy              =    -860.05413510 Ry
     Harris-Foulkes estimate   =    -860.05413302 Ry
     estimated scf accuracy    <       0.00008160 Ry

     total magnetization       =     1.88 Bohr mag/cell
     absolute magnetization    =     3.08 Bohr mag/cell

     iteration # 48     ecut=    70.00 Ry     beta= 0.70
     Davidson diagonalization with overlap
     ethr =  3.81E-08,  avg # of iterations =  2.5

     negative rho (up, down):  5.491E-04 1.577E-02

     total cpu time spent up to now is     5089.4 secs

     total energy              =    -860.05414699 Ry
     Harris-Foulkes estimate   =    -860.05414036 Ry
     estimated scf accuracy    <       0.00004608 Ry

     total magnetization       =     1.92 Bohr mag/cell
     absolute magnetization    =     3.08 Bohr mag/cell

     iteration # 49     ecut=    70.00 Ry     beta= 0.70
     Davidson diagonalization with overlap
     ethr =  2.15E-08,  avg # of iterations =  2.0

     negative rho (up, down):  5.492E-04 1.754E-02

     total cpu time spent up to now is     5186.2 secs

     total energy              =    -860.05414518 Ry
     Harris-Foulkes estimate   =    -860.05414889 Ry
     estimated scf accuracy    <       0.00004920 Ry

     total magnetization       =     1.94 Bohr mag/cell
     absolute magnetization    =     3.08 Bohr mag/cell

     iteration # 50     ecut=    70.00 Ry     beta= 0.70
     Davidson diagonalization with overlap
     ethr =  2.15E-08,  avg # of iterations =  1.0

     negative rho (up, down):  5.491E-04 1.392E-02

     total cpu time spent up to now is     5280.4 secs

     total energy              =    -860.05416754 Ry
     Harris-Foulkes estimate   =    -860.05414599 Ry
     estimated scf accuracy    <       0.00004982 Ry

     total magnetization       =     1.94 Bohr mag/cell
     absolute magnetization    =     3.08 Bohr mag/cell

     iteration # 51     ecut=    70.00 Ry     beta= 0.70
     Davidson diagonalization with overlap
     ethr =  2.15E-08,  avg # of iterations =  3.0

     negative rho (up, down):  5.492E-04 2.070E-02

     total cpu time spent up to now is     5397.7 secs

     total energy              =    -860.05420079 Ry
     Harris-Foulkes estimate   =    -860.05420289 Ry
     estimated scf accuracy    <       0.00012633 Ry

     total magnetization       =     1.97 Bohr mag/cell
     absolute magnetization    =     3.08 Bohr mag/cell

     iteration # 52     ecut=    70.00 Ry     beta= 0.70
     Davidson diagonalization with overlap
     ethr =  2.15E-08,  avg # of iterations =  1.0

     negative rho (up, down):  5.491E-04 2.681E-02

     total cpu time spent up to now is     5493.2 secs

     total energy              =    -860.05415670 Ry
     Harris-Foulkes estimate   =    -860.05420111 Ry
     estimated scf accuracy    <       0.00012451 Ry

     total magnetization       =     1.97 Bohr mag/cell
     absolute magnetization    =     3.08 Bohr mag/cell

     iteration # 53     ecut=    70.00 Ry     beta= 0.70
     Davidson diagonalization with overlap
     ethr =  2.15E-08,  avg # of iterations =  3.0

     negative rho (up, down):  5.489E-04 2.671E-02

     total cpu time spent up to now is     5607.4 secs

     total energy              =    -860.05413273 Ry
     Harris-Foulkes estimate   =    -860.05418126 Ry
     estimated scf accuracy    <       0.00015723 Ry

     total magnetization       =     1.96 Bohr mag/cell
     absolute magnetization    =     3.08 Bohr mag/cell

     iteration # 54     ecut=    70.00 Ry     beta= 0.70
     Davidson diagonalization with overlap
     ethr =  2.15E-08,  avg # of iterations =  3.0

     negative rho (up, down):  5.486E-04 2.107E-02

     total cpu time spent up to now is     5721.5 secs

     total energy              =    -860.05416016 Ry
     Harris-Foulkes estimate   =    -860.05416179 Ry
     estimated scf accuracy    <       0.00007830 Ry

     total magnetization       =     1.95 Bohr mag/cell
     absolute magnetization    =     3.08 Bohr mag/cell

     iteration # 55     ecut=    70.00 Ry     beta= 0.70
     Davidson diagonalization with overlap
     ethr =  2.15E-08,  avg # of iterations =  2.0

     negative rho (up, down):  5.485E-04 2.054E-02

     total cpu time spent up to now is     5822.9 secs

     total energy              =    -860.05416412 Ry
     Harris-Foulkes estimate   =    -860.05416545 Ry
     estimated scf accuracy    <       0.00006404 Ry

     total magnetization       =     1.97 Bohr mag/cell
     absolute magnetization    =     3.08 Bohr mag/cell

     iteration # 56     ecut=    70.00 Ry     beta= 0.70
     Davidson diagonalization with overlap
     ethr =  2.15E-08,  avg # of iterations =  1.0

     negative rho (up, down):  5.486E-04 2.023E-02

     total cpu time spent up to now is     5917.3 secs

     total energy              =    -860.05416606 Ry
     Harris-Foulkes estimate   =    -860.05416474 Ry
     estimated scf accuracy    <       0.00006221 Ry

     total magnetization       =     1.97 Bohr mag/cell
     absolute magnetization    =     3.08 Bohr mag/cell

     iteration # 57     ecut=    70.00 Ry     beta= 0.70
     Davidson diagonalization with overlap
     ethr =  2.15E-08,  avg # of iterations =  1.0

     negative rho (up, down):  5.485E-04 1.838E-02

     total cpu time spent up to now is     6011.8 secs

     total energy              =    -860.05418855 Ry
     Harris-Foulkes estimate   =    -860.05416660 Ry
     estimated scf accuracy    <       0.00006900 Ry

     total magnetization       =     1.97 Bohr mag/cell
     absolute magnetization    =     3.08 Bohr mag/cell

     iteration # 58     ecut=    70.00 Ry     beta= 0.70
     Davidson diagonalization with overlap
     ethr =  2.15E-08,  avg # of iterations =  2.0

     negative rho (up, down):  5.489E-04 2.221E-02

     total cpu time spent up to now is     6117.5 secs

     total energy              =    -860.05419562 Ry
     Harris-Foulkes estimate   =    -860.05420167 Ry
     estimated scf accuracy    <       0.00016870 Ry

     total magnetization       =     1.95 Bohr mag/cell
     absolute magnetization    =     3.09 Bohr mag/cell

     iteration # 59     ecut=    70.00 Ry     beta= 0.70
     Davidson diagonalization with overlap
     ethr =  2.15E-08,  avg # of iterations =  1.5

     negative rho (up, down):  5.493E-04 1.932E-02

     total cpu time spent up to now is     6211.9 secs

     total energy              =    -860.05422188 Ry
     Harris-Foulkes estimate   =    -860.05419662 Ry
     estimated scf accuracy    <       0.00012492 Ry

     total magnetization       =     1.95 Bohr mag/cell
     absolute magnetization    =     3.09 Bohr mag/cell

     iteration # 60     ecut=    70.00 Ry     beta= 0.70
     Davidson diagonalization with overlap
     ethr =  2.15E-08,  avg # of iterations =  3.0

     negative rho (up, down):  5.493E-04 2.529E-02

     total cpu time spent up to now is     6330.0 secs

     total energy              =    -860.05425013 Ry
     Harris-Foulkes estimate   =    -860.05425401 Ry
     estimated scf accuracy    <       0.00020050 Ry

     total magnetization       =     1.89 Bohr mag/cell
     absolute magnetization    =     3.11 Bohr mag/cell

     iteration # 61     ecut=    70.00 Ry     beta= 0.70
     Davidson diagonalization with overlap
     ethr =  2.15E-08,  avg # of iterations =  2.5

     negative rho (up, down):  5.490E-04 3.761E-02

     total cpu time spent up to now is     6431.7 secs

     total energy              =    -860.05412239 Ry
     Harris-Foulkes estimate   =    -860.05425584 Ry
     estimated scf accuracy    <       0.00016786 Ry

     total magnetization       =     1.91 Bohr mag/cell
     absolute magnetization    =     3.10 Bohr mag/cell

     iteration # 62     ecut=    70.00 Ry     beta= 0.70
     Davidson diagonalization with overlap
     ethr =  2.15E-08,  avg # of iterations =  3.0

     negative rho (up, down):  5.489E-04 2.798E-02

     total cpu time spent up to now is     6545.8 secs

     total energy              =    -860.05419314 Ry
     Harris-Foulkes estimate   =    -860.05419161 Ry
     estimated scf accuracy    <       0.00011021 Ry

     total magnetization       =     1.92 Bohr mag/cell
     absolute magnetization    =     3.10 Bohr mag/cell

     iteration # 63     ecut=    70.00 Ry     beta= 0.70
     Davidson diagonalization with overlap
     ethr =  2.15E-08,  avg # of iterations =  2.0

     negative rho (up, down):  5.487E-04 2.528E-02

     total cpu time spent up to now is     6649.2 secs

     total energy              =    -860.05419742 Ry
     Harris-Foulkes estimate   =    -860.05420068 Ry
     estimated scf accuracy    <       0.00010442 Ry

     total magnetization       =     1.93 Bohr mag/cell
     absolute magnetization    =     3.10 Bohr mag/cell

     iteration # 64     ecut=    70.00 Ry     beta= 0.70
     Davidson diagonalization with overlap
     ethr =  2.15E-08,  avg # of iterations =  1.0

     negative rho (up, down):  5.487E-04 2.450E-02

     total cpu time spent up to now is     6743.4 secs

     total energy              =    -860.05420081 Ry
     Harris-Foulkes estimate   =    -860.05419828 Ry
     estimated scf accuracy    <       0.00009731 Ry

     total magnetization       =     1.93 Bohr mag/cell
     absolute magnetization    =     3.10 Bohr mag/cell

     iteration # 65     ecut=    70.00 Ry     beta= 0.70
     Davidson diagonalization with overlap
     ethr =  2.15E-08,  avg # of iterations =  2.0

     negative rho (up, down):  5.489E-04 2.523E-02

     total cpu time spent up to now is     6838.9 secs

     total energy              =    -860.05419662 Ry
     Harris-Foulkes estimate   =    -860.05420329 Ry
     estimated scf accuracy    <       0.00012332 Ry

     total magnetization       =     1.92 Bohr mag/cell
     absolute magnetization    =     3.09 Bohr mag/cell

     iteration # 66     ecut=    70.00 Ry     beta= 0.70
     Davidson diagonalization with overlap
     ethr =  2.15E-08,  avg # of iterations =  2.0

     negative rho (up, down):  5.485E-04 2.495E-02

     total cpu time spent up to now is     6935.0 secs

     total energy              =    -860.05419326 Ry
     Harris-Foulkes estimate   =    -860.05419815 Ry
     estimated scf accuracy    <       0.00011559 Ry

     total magnetization       =     1.94 Bohr mag/cell
     absolute magnetization    =     3.09 Bohr mag/cell

     iteration # 67     ecut=    70.00 Ry     beta= 0.70
     Davidson diagonalization with overlap
     ethr =  2.15E-08,  avg # of iterations =  3.0

     negative rho (up, down):  5.486E-04 2.542E-02

     total cpu time spent up to now is     7052.9 secs

     total energy              =    -860.05424560 Ry
     Harris-Foulkes estimate   =    -860.05423614 Ry
     estimated scf accuracy    <       0.00020298 Ry

     total magnetization       =     1.94 Bohr mag/cell
     absolute magnetization    =     3.09 Bohr mag/cell

     iteration # 68     ecut=    70.00 Ry     beta= 0.70
     Davidson diagonalization with overlap
     ethr =  2.15E-08,  avg # of iterations =  2.0

     negative rho (up, down):  5.498E-04 2.813E-02

     total cpu time spent up to now is     7155.7 secs

     total energy              =    -860.05421594 Ry
     Harris-Foulkes estimate   =    -860.05425400 Ry
     estimated scf accuracy    <       0.00026029 Ry

     total magnetization       =     1.94 Bohr mag/cell
     absolute magnetization    =     3.09 Bohr mag/cell

     iteration # 69     ecut=    70.00 Ry     beta= 0.70
     Davidson diagonalization with overlap
     ethr =  2.15E-08,  avg # of iterations =  3.0

     negative rho (up, down):  5.493E-04 3.017E-02

     total cpu time spent up to now is     7282.9 secs

     total energy              =    -860.05435184 Ry
     Harris-Foulkes estimate   =    -860.05434630 Ry
     estimated scf accuracy    <       0.00031785 Ry

     total magnetization       =     1.97 Bohr mag/cell
     absolute magnetization    =     3.09 Bohr mag/cell

     iteration # 70     ecut=    70.00 Ry     beta= 0.70
     Davidson diagonalization with overlap
     ethr =  2.15E-08,  avg # of iterations =  2.0

     negative rho (up, down):  5.506E-04 5.518E-02

     total cpu time spent up to now is     7379.2 secs

     total energy              =    -860.05399016 Ry
     Harris-Foulkes estimate   =    -860.05435597 Ry
     estimated scf accuracy    <       0.00027635 Ry

     total magnetization       =     1.97 Bohr mag/cell
     absolute magnetization    =     3.09 Bohr mag/cell

     iteration # 71     ecut=    70.00 Ry     beta= 0.70
     Davidson diagonalization with overlap
     ethr =  2.15E-08,  avg # of iterations =  3.0

     negative rho (up, down):  5.499E-04 4.109E-02

     total cpu time spent up to now is     7502.8 secs

     total energy              =    -860.05408291 Ry
     Harris-Foulkes estimate   =    -860.05416453 Ry
     estimated scf accuracy    <       0.00020674 Ry

     total magnetization       =     1.98 Bohr mag/cell
     absolute magnetization    =     3.09 Bohr mag/cell

     iteration # 72     ecut=    70.00 Ry     beta= 0.70
     Davidson diagonalization with overlap
     ethr =  2.15E-08,  avg # of iterations =  3.0

     negative rho (up, down):  5.497E-04 2.660E-02

     total cpu time spent up to now is     7622.4 secs

     total energy              =    -860.05412653 Ry
     Harris-Foulkes estimate   =    -860.05414241 Ry
     estimated scf accuracy    <       0.00010958 Ry

     total magnetization       =     1.97 Bohr mag/cell
     absolute magnetization    =     3.09 Bohr mag/cell

     iteration # 73     ecut=    70.00 Ry     beta= 0.70
     Davidson diagonalization with overlap
     ethr =  2.15E-08,  avg # of iterations =  3.0

     negative rho (up, down):  5.495E-04 1.943E-02

     total cpu time spent up to now is     7731.4 secs

     total energy              =    -860.05413680 Ry
     Harris-Foulkes estimate   =    -860.05414139 Ry
     estimated scf accuracy    <       0.00006192 Ry

     total magnetization       =     1.93 Bohr mag/cell
     absolute magnetization    =     3.11 Bohr mag/cell

     iteration # 74     ecut=    70.00 Ry     beta= 0.70
     Davidson diagonalization with overlap
     ethr =  2.15E-08,  avg # of iterations =  2.0

     negative rho (up, down):  5.495E-04 1.659E-02

     total cpu time spent up to now is     7835.1 secs

     total energy              =    -860.05414832 Ry
     Harris-Foulkes estimate   =    -860.05414519 Ry
     estimated scf accuracy    <       0.00004374 Ry

     total magnetization       =     1.94 Bohr mag/cell
     absolute magnetization    =     3.10 Bohr mag/cell

     iteration # 75     ecut=    70.00 Ry     beta= 0.70
     Davidson diagonalization with overlap
     ethr =  2.04E-08,  avg # of iterations =  1.0

     negative rho (up, down):  5.494E-04 1.412E-02

     total cpu time spent up to now is     7929.3 secs

     total energy              =    -860.05416304 Ry
     Harris-Foulkes estimate   =    -860.05414900 Ry
     estimated scf accuracy    <       0.00004893 Ry

     total magnetization       =     1.94 Bohr mag/cell
     absolute magnetization    =     3.11 Bohr mag/cell

     iteration # 76     ecut=    70.00 Ry     beta= 0.70
     Davidson diagonalization with overlap
     ethr =  2.04E-08,  avg # of iterations =  3.0

     negative rho (up, down):  5.497E-04 1.748E-02

     total cpu time spent up to now is     8045.5 secs

     total energy              =    -860.05420227 Ry
     Harris-Foulkes estimate   =    -860.05419977 Ry
     estimated scf accuracy    <       0.00016138 Ry

     total magnetization       =     1.94 Bohr mag/cell
     absolute magnetization    =     3.11 Bohr mag/cell

     iteration # 77     ecut=    70.00 Ry     beta= 0.70
     Davidson diagonalization with overlap
     ethr =  2.04E-08,  avg # of iterations =  3.0

     negative rho (up, down):  5.495E-04 2.416E-02

     total cpu time spent up to now is     8152.0 secs

     total energy              =    -860.05420783 Ry
     Harris-Foulkes estimate   =    -860.05421461 Ry
     estimated scf accuracy    <       0.00014479 Ry

     total magnetization       =     1.93 Bohr mag/cell
     absolute magnetization    =     3.11 Bohr mag/cell

     iteration # 78     ecut=    70.00 Ry     beta= 0.70
     Davidson diagonalization with overlap
     ethr =  2.04E-08,  avg # of iterations =  2.0

     negative rho (up, down):  5.501E-04 2.856E-02

     total cpu time spent up to now is     8253.4 secs

     total energy              =    -860.05416546 Ry
     Harris-Foulkes estimate   =    -860.05421496 Ry
     estimated scf accuracy    <       0.00021785 Ry

     total magnetization       =     1.94 Bohr mag/cell
     absolute magnetization    =     3.11 Bohr mag/cell

     iteration # 79     ecut=    70.00 Ry     beta= 0.70
     Davidson diagonalization with overlap
     ethr =  2.04E-08,  avg # of iterations =  3.0

     negative rho (up, down):  5.497E-04 3.490E-02

     total cpu time spent up to now is     8361.3 secs

     total energy              =    -860.05404239 Ry
     Harris-Foulkes estimate   =    -860.05418140 Ry
     estimated scf accuracy    <       0.00012855 Ry

     total magnetization       =     1.94 Bohr mag/cell
     absolute magnetization    =     3.11 Bohr mag/cell

     iteration # 80     ecut=    70.00 Ry     beta= 0.70
     Davidson diagonalization with overlap
     ethr =  2.04E-08,  avg # of iterations =  3.0

     negative rho (up, down):  5.491E-04 1.765E-02

     total cpu time spent up to now is     8478.6 secs

     total energy              =    -860.05413239 Ry
     Harris-Foulkes estimate   =    -860.05412013 Ry
     estimated scf accuracy    <       0.00002494 Ry

     total magnetization       =     1.93 Bohr mag/cell
     absolute magnetization    =     3.11 Bohr mag/cell

     iteration # 81     ecut=    70.00 Ry     beta= 0.70
     Davidson diagonalization with overlap
     ethr =  1.17E-08,  avg # of iterations =  2.0

     negative rho (up, down):  5.491E-04 1.346E-02

     total cpu time spent up to now is     8574.0 secs

     total energy              =    -860.05413489 Ry
     Harris-Foulkes estimate   =    -860.05413405 Ry
     estimated scf accuracy    <       0.00002424 Ry

     total magnetization       =     1.94 Bohr mag/cell
     absolute magnetization    =     3.11 Bohr mag/cell

     iteration # 82     ecut=    70.00 Ry     beta= 0.70
     Davidson diagonalization with overlap
     ethr =  1.13E-08,  avg # of iterations =  3.0

     negative rho (up, down):  5.494E-04 1.544E-02

     total cpu time spent up to now is     8686.0 secs

     total energy              =    -860.05414842 Ry
     Harris-Foulkes estimate   =    -860.05415454 Ry
     estimated scf accuracy    <       0.00012491 Ry

     total magnetization       =     1.94 Bohr mag/cell
     absolute magnetization    =     3.11 Bohr mag/cell

     iteration # 83     ecut=    70.00 Ry     beta= 0.70
     Davidson diagonalization with overlap
     ethr =  1.13E-08,  avg # of iterations =  2.0

     negative rho (up, down):  5.496E-04 2.269E-02

     total cpu time spent up to now is     8786.1 secs

     total energy              =    -860.05410195 Ry
     Harris-Foulkes estimate   =    -860.05415152 Ry
     estimated scf accuracy    <       0.00005508 Ry

     total magnetization       =     1.94 Bohr mag/cell
     absolute magnetization    =     3.11 Bohr mag/cell

     iteration # 84     ecut=    70.00 Ry     beta= 0.70
     Davidson diagonalization with overlap
     ethr =  1.13E-08,  avg # of iterations =  2.0

     negative rho (up, down):  5.491E-04 1.662E-02

     total cpu time spent up to now is     8899.2 secs

     total energy              =    -860.05411031 Ry
     Harris-Foulkes estimate   =    -860.05412337 Ry
     estimated scf accuracy    <       0.00002890 Ry

     total magnetization       =     1.96 Bohr mag/cell
     absolute magnetization    =     3.10 Bohr mag/cell

     iteration # 85     ecut=    70.00 Ry     beta= 0.70
     Davidson diagonalization with overlap
     ethr =  1.13E-08,  avg # of iterations =  3.0

     negative rho (up, down):  5.490E-04 1.319E-02

     total cpu time spent up to now is     9013.3 secs

     total energy              =    -860.05412204 Ry
     Harris-Foulkes estimate   =    -860.05412635 Ry
     estimated scf accuracy    <       0.00002053 Ry

     total magnetization       =     1.96 Bohr mag/cell
     absolute magnetization    =     3.11 Bohr mag/cell

     iteration # 86     ecut=    70.00 Ry     beta= 0.70
     Davidson diagonalization with overlap
     ethr =  9.60E-09,  avg # of iterations =  2.0

     negative rho (up, down):  5.491E-04 1.313E-02

     total cpu time spent up to now is     9116.5 secs

     total energy              =    -860.05412104 Ry
     Harris-Foulkes estimate   =    -860.05412601 Ry
     estimated scf accuracy    <       0.00000602 Ry

     total magnetization       =     1.95 Bohr mag/cell
     absolute magnetization    =     3.11 Bohr mag/cell

     iteration # 87     ecut=    70.00 Ry     beta= 0.70
     Davidson diagonalization with overlap
     ethr =  2.81E-09,  avg # of iterations =  2.0

     negative rho (up, down):  5.492E-04 1.329E-02

     total cpu time spent up to now is     9240.8 secs

     total energy              =    -860.05411742 Ry
     Harris-Foulkes estimate   =    -860.05412278 Ry
     estimated scf accuracy    <       0.00000886 Ry

     total magnetization       =     1.95 Bohr mag/cell
     absolute magnetization    =     3.11 Bohr mag/cell

     iteration # 88     ecut=    70.00 Ry     beta= 0.70
     Davidson diagonalization with overlap
     ethr =  2.81E-09,  avg # of iterations =  3.0

     negative rho (up, down):  5.491E-04 1.195E-02

     total cpu time spent up to now is     9371.4 secs

     total energy              =    -860.05411821 Ry
     Harris-Foulkes estimate   =    -860.05412030 Ry
     estimated scf accuracy    <       0.00000415 Ry

     total magnetization       =     1.94 Bohr mag/cell
     absolute magnetization    =     3.11 Bohr mag/cell

     iteration # 89     ecut=    70.00 Ry     beta= 0.70
     Davidson diagonalization with overlap
     ethr =  1.94E-09,  avg # of iterations =  3.0

     negative rho (up, down):  5.488E-04 1.088E-02

     total cpu time spent up to now is     9498.6 secs

     total energy              =    -860.05411989 Ry
     Harris-Foulkes estimate   =    -860.05411984 Ry
     estimated scf accuracy    <       0.00000608 Ry

     total magnetization       =     1.94 Bohr mag/cell
     absolute magnetization    =     3.11 Bohr mag/cell

     iteration # 90     ecut=    70.00 Ry     beta= 0.70
     Davidson diagonalization with overlap
     ethr =  1.94E-09,  avg # of iterations =  2.0

     negative rho (up, down):  5.487E-04 1.067E-02

     total cpu time spent up to now is     9607.6 secs

     total energy              =    -860.05412014 Ry
     Harris-Foulkes estimate   =    -860.05412005 Ry
     estimated scf accuracy    <       0.00000252 Ry

     total magnetization       =     1.94 Bohr mag/cell
     absolute magnetization    =     3.11 Bohr mag/cell

     iteration # 91     ecut=    70.00 Ry     beta= 0.70
     Davidson diagonalization with overlap
     ethr =  1.18E-09,  avg # of iterations =  2.0

     negative rho (up, down):  5.484E-04 1.056E-02

     total cpu time spent up to now is     9718.6 secs

     total energy              =    -860.05412022 Ry
     Harris-Foulkes estimate   =    -860.05412024 Ry
     estimated scf accuracy    <       0.00000293 Ry

     total magnetization       =     1.95 Bohr mag/cell
     absolute magnetization    =     3.11 Bohr mag/cell

     iteration # 92     ecut=    70.00 Ry     beta= 0.70
     Davidson diagonalization with overlap
     ethr =  1.18E-09,  avg # of iterations =  3.0

     negative rho (up, down):  5.484E-04 1.054E-02

     Magnetic moment per site:
     atom:    1    charge:    0.2114    magn:   -0.0000    constr:    0.0000
     atom:    2    charge:    0.2118    magn:    0.0000    constr:    0.0000
     atom:    3    charge:    1.7170    magn:   -0.0124    constr:    0.0000
     atom:    4    charge:    1.7155    magn:    0.0165    constr:    0.0000
     atom:    5    charge:    1.7176    magn:   -0.0089    constr:    0.0000
     atom:    6    charge:    1.7143    magn:    0.0056    constr:    0.0000
     atom:    7    charge:    1.7176    magn:   -0.0089    constr:    0.0000
     atom:    8    charge:    1.7154    magn:    0.0171    constr:    0.0000
     atom:    9    charge:    1.7171    magn:   -0.0126    constr:    0.0000
     atom:   10    charge:    1.7148    magn:    0.0575    constr:    0.0000
     atom:   11    charge:    1.7174    magn:   -0.0160    constr:    0.0000
     atom:   12    charge:    1.7151    magn:    0.0556    constr:    0.0000
     atom:   13    charge:    1.7173    magn:   -0.0159    constr:    0.0000
     atom:   14    charge:    1.7155    magn:    0.0446    constr:    0.0000
     atom:   15    charge:    1.7139    magn:   -0.0124    constr:    0.0000
     atom:   16    charge:    1.7109    magn:    0.0552    constr:    0.0000
     atom:   17    charge:    1.7229    magn:   -0.0139    constr:    0.0000
     atom:   18    charge:    1.7109    magn:    0.0546    constr:    0.0000
     atom:   19    charge:    1.7138    magn:   -0.0122    constr:    0.0000
     atom:   20    charge:    1.7157    magn:    0.0429    constr:    0.0000
     atom:   21    charge:    1.7173    magn:   -0.0159    constr:    0.0000
     atom:   22    charge:    1.7159    magn:    0.0495    constr:    0.0000
     atom:   23    charge:    1.7167    magn:   -0.0120    constr:    0.0000
     atom:   24    charge:    1.7155    magn:    0.0156    constr:    0.0000
     atom:   25    charge:    1.7138    magn:   -0.0124    constr:    0.0000
     atom:   26    charge:    1.7115    magn:    0.0501    constr:    0.0000
     atom:   27    charge:    1.8522    magn:   -0.0197    constr:    0.0000
     atom:   28    charge:   11.1460    magn:    0.4823    constr:    0.0000
     atom:   29    charge:    1.8520    magn:   -0.0196    constr:    0.0000
     atom:   30    charge:    1.7116    magn:    0.0479    constr:    0.0000
     atom:   31    charge:    1.7137    magn:   -0.0121    constr:    0.0000
     atom:   32    charge:    1.7155    magn:    0.0159    constr:    0.0000
     atom:   33    charge:    1.7175    magn:   -0.0087    constr:    0.0000
     atom:   34    charge:    1.7142    magn:    0.0114    constr:    0.0000
     atom:   35    charge:    1.7175    magn:   -0.0087    constr:    0.0000
     atom:   36    charge:    1.7142    magn:    0.0056    constr:    0.0000
     atom:   37    charge:    1.7226    magn:   -0.0131    constr:    0.0000
     atom:   38    charge:    1.7116    magn:    0.0486    constr:    0.0000
     atom:   39    charge:    1.8517    magn:   -0.0202    constr:    0.0000
     atom:   40    charge:    1.7117    magn:    0.0470    constr:    0.0000
     atom:   41    charge:    1.7224    magn:   -0.0127    constr:    0.0000
     atom:   42    charge:    1.7142    magn:    0.0056    constr:    0.0000
     atom:   43    charge:    1.7176    magn:   -0.0090    constr:    0.0000
     atom:   44    charge:    1.7140    magn:    0.0124    constr:    0.0000
     atom:   45    charge:    1.7233    magn:   -0.0090    constr:    0.0000
     atom:   46    charge:    1.7140    magn:    0.0127    constr:    0.0000
     atom:   47    charge:    1.7177    magn:   -0.0090    constr:    0.0000
     atom:   48    charge:    1.7152    magn:    0.0178    constr:    0.0000
     atom:   49    charge:    1.7136    magn:   -0.0116    constr:    0.0000
     atom:   50    charge:    1.7162    magn:    0.0385    constr:    0.0000
     atom:   51    charge:    1.7136    magn:   -0.0116    constr:    0.0000
     atom:   52    charge:    1.7152    magn:    0.0176    constr:    0.0000

     total cpu time spent up to now is     9828.4 secs

     End of self-consistent calculation

 ------ SPIN UP ------------


          k = 0.0000 0.0000 0.0000 ( 87777 PWs)   bands (ev):

   -88.8359 -55.7275 -55.6746 -54.0595 -19.8543 -19.0273 -19.0118 -18.9292
   -18.9039 -18.8984 -18.5666 -17.1553 -17.1466 -17.1435 -17.0788 -17.0738
   -16.7692 -16.3039 -16.3009 -16.1976 -16.1531 -16.1524 -15.4703 -14.2168
   -14.1998 -14.1210 -14.0703 -14.0674 -13.4095 -13.1389 -13.1352 -13.1100
   -12.8357 -12.8346 -12.4220 -11.9215 -11.9196 -11.7266 -11.4848 -11.4828
   -10.6106  -9.7894  -9.7856  -9.5087  -9.3907  -9.3893  -9.3048  -9.2741
    -9.2737  -9.2612  -8.8035  -8.8025  -8.2735  -8.2700  -8.1717  -8.0022
    -7.9085  -7.5185  -7.5151  -7.3279  -7.2205  -7.2104  -7.0649  -7.0645
    -6.9080  -6.8957  -6.8888  -6.7886  -6.6405  -6.6333  -6.6089  -6.5983
    -6.5951  -6.5766  -6.5505  -6.3285  -5.7315  -5.7267  -5.7042  -5.6867
    -5.4625  -5.4597  -5.3306  -5.0618  -4.9542  -4.8152  -4.7872  -4.7823
    -4.5389  -4.5337  -4.4738  -4.3191  -4.3074  -3.9458  -3.9450  -3.8574
    -3.7572  -3.7553  -3.1995  -2.9012  -2.8927  -1.9444  -1.8771  -1.8745
    -1.3509  -1.3074  -1.2002  -0.8902   0.8512   0.8971   0.8994   1.4087
     1.4225   1.5336   2.3290   2.3333   2.5279   2.6969   2.6992   2.7943
     3.3058   3.3171   3.4587   3.5117   3.6698   3.7308   3.7383   3.7518

     occupation numbers 
     1.0000   1.0000   1.0000   1.0000   1.0000   1.0000   1.0000   1.0000
     1.0000   1.0000   1.0000   1.0000   1.0000   1.0000   1.0000   1.0000
     1.0000   1.0000   1.0000   1.0000   1.0000   1.0000   1.0000   1.0000
     1.0000   1.0000   1.0000   1.0000   1.0000   1.0000   1.0000   1.0000
     1.0000   1.0000   1.0000   1.0000   1.0000   1.0000   1.0000   1.0000
     1.0000   1.0000   1.0000   1.0000   1.0000   1.0000   1.0000   1.0000
     1.0000   1.0000   1.0000   1.0000   1.0000   1.0000   1.0000   1.0000
     1.0000   1.0000   1.0000   1.0000   1.0000   1.0000   1.0000   1.0000
     1.0000   1.0000   1.0000   1.0000   1.0000   1.0000   1.0000   1.0000
     1.0000   1.0000   1.0000   1.0000   1.0000   1.0000   1.0000   1.0000
     1.0000   1.0000   1.0000   1.0000   1.0000   1.0000   1.0000   1.0000
     1.0000   1.0000   1.0000   1.0000   1.0000   1.0000   1.0000   1.0000
     1.0000   1.0000   1.0000   1.0000   1.0000   1.0000   1.0000   1.0000
     1.0000   1.0000   1.0000   0.9730   0.0000   0.0000   0.0000   0.0000
     0.0000   0.0000   0.0000   0.0000   0.0000   0.0000   0.0000   0.0000
     0.0000   0.0000   0.0000   0.0000   0.0000   0.0000   0.0000   0.0000

 ------ SPIN DOWN ----------


          k = 0.0000 0.0000 0.0000 ( 87777 PWs)   bands (ev):

   -88.0665 -55.0839 -55.0685 -53.0979 -19.8166 -18.9826 -18.9697 -18.8940
   -18.8817 -18.8759 -18.5136 -17.1232 -17.1177 -17.1135 -17.0296 -17.0260
   -16.7424 -16.2615 -16.2606 -16.1687 -16.1135 -16.1132 -15.4474 -14.1480
   -14.1383 -14.0658 -14.0610 -14.0573 -13.4197 -13.1148 -13.1125 -13.0813
   -12.8178 -12.8172 -12.3932 -11.8871 -11.8843 -11.7066 -11.4636 -11.4633
   -10.5879  -9.7385  -9.7362  -9.4793  -9.3613  -9.3611  -9.2891  -9.2533
    -9.2525  -9.2456  -8.7913  -8.7905  -8.2362  -8.2328  -8.1505  -7.9150
    -7.8929  -7.5056  -7.5018  -7.2944  -7.0601  -7.0575  -7.0166  -7.0157
    -6.8415  -6.8388  -6.8185  -6.7746  -6.6249  -6.6186  -6.5992  -6.5863
    -6.5831  -6.5344  -6.4639  -6.3201  -5.6780  -5.6753  -5.4697  -5.4688
    -5.4195  -5.4176  -5.2138  -5.0488  -4.9459  -4.7459  -4.7047  -4.7042
    -4.4550  -4.4504  -4.4078  -4.1965  -4.1952  -3.8255  -3.8235  -3.7754
    -3.7433  -3.7415  -3.1595  -2.6763  -2.6719  -1.8525  -1.8498  -1.8013
    -0.9210  -0.9084  -0.8176  -0.7945   0.9392   0.9422   0.9908   1.5604
     1.5608   1.6470   2.4920   2.4943   2.5407   2.8226   2.8257   2.8567
     3.4564   3.4594   3.5186   3.5566   3.6851   3.7371   3.7473   3.7558

     occupation numbers 
     1.0000   1.0000   1.0000   1.0000   1.0000   1.0000   1.0000   1.0000
     1.0000   1.0000   1.0000   1.0000   1.0000   1.0000   1.0000   1.0000
     1.0000   1.0000   1.0000   1.0000   1.0000   1.0000   1.0000   1.0000
     1.0000   1.0000   1.0000   1.0000   1.0000   1.0000   1.0000   1.0000
     1.0000   1.0000   1.0000   1.0000   1.0000   1.0000   1.0000   1.0000
     1.0000   1.0000   1.0000   1.0000   1.0000   1.0000   1.0000   1.0000
     1.0000   1.0000   1.0000   1.0000   1.0000   1.0000   1.0000   1.0000
     1.0000   1.0000   1.0000   1.0000   1.0000   1.0000   1.0000   1.0000
     1.0000   1.0000   1.0000   1.0000   1.0000   1.0000   1.0000   1.0000
     1.0000   1.0000   1.0000   1.0000   1.0000   1.0000   1.0000   1.0000
     1.0000   1.0000   1.0000   1.0000   1.0000   1.0000   1.0000   1.0000
     1.0000   1.0000   1.0000   1.0000   1.0000   1.0000   1.0000   1.0000
     1.0000   1.0000   1.0000   1.0000   1.0000   1.0000   1.0000   1.0000
     1.0009   1.0261   0.0000   0.0000   0.0000   0.0000   0.0000   0.0000
     0.0000   0.0000   0.0000   0.0000   0.0000   0.0000   0.0000   0.0000
     0.0000   0.0000   0.0000   0.0000   0.0000   0.0000   0.0000   0.0000

     the Fermi energy is    -0.8786 ev

!    total energy              =    -860.05412074 Ry
     Harris-Foulkes estimate   =    -860.05412052 Ry
     estimated scf accuracy    <       0.00000079 Ry

     The total energy is the sum of the following terms:

     one-electron contribution =   -2782.74950211 Ry
     hartree contribution      =    1435.28528440 Ry
     xc contribution           =    -259.31322922 Ry
     ewald contribution        =     746.72320043 Ry
     smearing contrib. (-TS)   =       0.00012576 Ry

     total magnetization       =     1.95 Bohr mag/cell
     absolute magnetization    =     3.11 Bohr mag/cell

     convergence has been achieved in  92 iterations

     Writing output data file hierro-bridge-distance-4.0.save/

     init_run     :     77.27s CPU     78.61s WALL (       1 calls)
     electrons    :   9576.97s CPU   9748.80s WALL (       1 calls)

     Called by init_run:
     wfcinit      :     42.53s CPU     42.81s WALL (       1 calls)
     wfcinit:atom :      0.07s CPU      0.09s WALL (       2 calls)
     wfcinit:wfcr :     42.10s CPU     42.29s WALL (       2 calls)
     potinit      :     14.40s CPU     14.86s WALL (       1 calls)
     hinit0       :     11.63s CPU     11.65s WALL (       1 calls)

     Called by electrons:
     c_bands      :   6114.35s CPU   6146.43s WALL (      92 calls)
     sum_band     :   2009.56s CPU   2068.42s WALL (      92 calls)
     v_of_rho     :    685.97s CPU    716.80s WALL (      93 calls)
     v_h          :      7.26s CPU      7.47s WALL (      93 calls)
     v_xc         :    678.71s CPU    709.32s WALL (      93 calls)
     newd         :    714.57s CPU    764.44s WALL (      93 calls)
     mix_rho      :     45.26s CPU     45.89s WALL (      92 calls)

     Called by c_bands:
     init_us_2    :     17.32s CPU     17.38s WALL (     370 calls)
     cegterg      :   6069.91s CPU   6101.76s WALL (     184 calls)

     Called by sum_band:
     sum_band:bec :      0.15s CPU      0.15s WALL (     184 calls)
     addusdens    :   1258.98s CPU   1313.44s WALL (      92 calls)

     Called by *egterg:
     h_psi        :   3127.03s CPU   3148.47s WALL (     672 calls)
     s_psi        :   1056.44s CPU   1057.09s WALL (     672 calls)
     g_psi        :      3.36s CPU      3.37s WALL (     486 calls)
     cdiaghg      :     46.94s CPU     46.97s WALL (     670 calls)
     cegterg:over :    773.97s CPU    774.45s WALL (     486 calls)
     cegterg:upda :    462.99s CPU    465.72s WALL (     486 calls)
     cegterg:last :    326.38s CPU    326.57s WALL (     184 calls)

     Called by h_psi:
     h_psi:pot    :   3123.24s CPU   3140.93s WALL (     672 calls)
     h_psi:calbec :   1052.35s CPU   1053.03s WALL (     672 calls)
     vloc_psi     :   1014.10s CPU   1030.51s WALL (     672 calls)
     add_vuspsi   :   1056.77s CPU   1057.39s WALL (     672 calls)

     General routines
     calbec       :   1508.27s CPU   1509.25s WALL (     856 calls)
     fft          :    407.18s CPU    419.27s WALL (    6969 calls)
     ffts         :      7.10s CPU      7.30s WALL (     370 calls)
     fftw         :   1082.26s CPU   1100.15s WALL (  132600 calls)
     interpolate  :     16.35s CPU     16.76s WALL (     186 calls)

     Parallel routines
     fft_scatt_xy :    271.50s CPU    274.86s WALL (  139939 calls)
     fft_scatt_yz :    507.70s CPU    529.66s WALL (  139939 calls)

     PWSCF        :      2h40m CPU      2h43m WALL


   This run was terminated on:  22:32:46   9Jan2023            

=------------------------------------------------------------------------------=
   JOB DONE.
=------------------------------------------------------------------------------=
