
     Program PWSCF v.6.4.1 starts on 30Jan2023 at 14:19:55 

     This program is part of the open-source Quantum ESPRESSO suite
     for quantum simulation of materials; please cite
         "P. Giannozzi et al., J. Phys.:Condens. Matter 21 395502 (2009);
         "P. Giannozzi et al., J. Phys.:Condens. Matter 29 465901 (2017);
          URL http://www.quantum-espresso.org", 
     in publications or presentations arising from this work. More details at
     http://www.quantum-espresso.org/quote

     Parallel version (MPI), running on     6 processors

     MPI processes distributed on     1 nodes
     R & G space division:  proc/nbgrp/npool/nimage =       6
     Reading input from distance-2.8.in

     Current dimensions of program PWSCF are:
     Max number of different atomic species (ntypx) = 10
     Max number of k-points (npk) =  40000
     Max angular momentum in pseudopotentials (lmaxx) =  3

     IMPORTANT: XC functional enforced from input :
     Exchange-correlation      = RVV10 ( 1  4 13  4 3 0)
     Any further DFT definition will be discarded
     Please, verify this is what you really want

               file H.pbe-rrkjus.UPF: wavefunction(s)  1S renormalized

     Subspace diagonalization in iterative solution of the eigenvalue problem:
     a serial algorithm will be used


     Parallelization info
     --------------------
     sticks:   dense  smooth     PW     G-vecs:    dense   smooth      PW
     Min        3051    1746    432               270999   117096   14629
     Max        3053    1747    437               271001   117099   14630
     Sum       18313   10477   2611              1626001   702581   87777



     bravais-lattice index     =            4
     lattice parameter (alat)  =      23.2937  a.u.
     unit-cell volume          =    8879.8548 (a.u.)^3
     number of atoms/cell      =           52
     number of atomic types    =            3
     number of electrons       =       214.00
     number of Kohn-Sham states=          128
     kinetic-energy cutoff     =      70.0000  Ry
     charge density cutoff     =     490.0000  Ry
     convergence threshold     =      1.0E-05
     mixing beta               =       0.3000
     number of iterations used =            4  plain     mixing
     Exchange-correlation      = RVV10 ( 1  4 13  4 3 0)

     celldm(1)=  23.293684  celldm(2)=   0.000000  celldm(3)=   0.811261
     celldm(4)=   0.000000  celldm(5)=   0.000000  celldm(6)=   0.000000

     crystal axes: (cart. coord. in units of alat)
               a(1) = (   1.000000   0.000000   0.000000 )  
               a(2) = (  -0.500000   0.866025   0.000000 )  
               a(3) = (   0.000000   0.000000   0.811261 )  

     reciprocal axes: (cart. coord. in units 2 pi/alat)
               b(1) = (  1.000000  0.577350 -0.000000 )  
               b(2) = (  0.000000  1.154701  0.000000 )  
               b(3) = (  0.000000 -0.000000  1.232649 )  


     PseudoPot. # 1 for H  read from file:
     /home/cristian/Escritorio/Proyecto_Grafeno/pseudopotenciales/H.pbe-rrkjus.UPF
     MD5 check sum: 7cc9d459525c9a0585f487a71c3c9563
     Pseudo is Ultrasoft, Zval =  1.0
     Generated by new atomic code, or converted to UPF format
     Using radial grid of 1061 points,  2 beta functions with: 
                l(1) =   0
                l(2) =   0
     Q(r) pseudized with 0 coefficients 


     PseudoPot. # 2 for C  read from file:
     /home/cristian/Escritorio/Proyecto_Grafeno/pseudopotenciales/C.pbe-n-rrkjus_psl.1.0.0.UPF
     MD5 check sum: 1fdd950c42eb37d8afe3dd2f8d12311e
     Pseudo is Ultrasoft + core correction, Zval =  4.0
     Generated using "atomic" code by A. Dal Corso v.6.3MaX
     Using radial grid of 1073 points,  4 beta functions with: 
                l(1) =   0
                l(2) =   0
                l(3) =   1
                l(4) =   1
     Q(r) pseudized with 0 coefficients 


     PseudoPot. # 3 for Fe read from file:
     /home/cristian/Escritorio/Proyecto_Grafeno/pseudopotenciales/Fe.pbe-spn-rrkjus_psl.1.0.0.UPF
     MD5 check sum: 72ea77fed8e64ab3a2ccf2804dfc1862
     Pseudo is Ultrasoft + core correction, Zval = 16.0
     Generated using "atomic" code by A. Dal Corso v.6.3
     Using radial grid of 1191 points,  6 beta functions with: 
                l(1) =   0
                l(2) =   0
                l(3) =   1
                l(4) =   1
                l(5) =   2
                l(6) =   2
     Q(r) pseudized with 0 coefficients 


     vdW kernel table read from file rVV10_kernel_table
     MD5 check sum: b8e2538accc0c0b3206b45ba4daaba6c

     atomic species   valence    mass     pseudopotential
        H              1.00     1.00794     H ( 1.00)
        C              4.00    12.01070     C ( 1.00)
        Fe            16.00    55.84500     Fe( 1.00)

     Starting magnetic structure 
     atomic species   magnetization
        H            0.500
        C            0.300
        Fe           0.800

     No symmetry found


                                    s                        frac. trans.

      isym =  1     identity                                     

 cryst.   s( 1) = (     1          0          0      )
                  (     0          1          0      )
                  (     0          0          1      )

 cart.    s( 1) = (  1.0000000  0.0000000  0.0000000 )
                  (  0.0000000  1.0000000  0.0000000 )
                  (  0.0000000  0.0000000  1.0000000 )


     point group C_1 (1)    
     there are  1 classes
     the character table:

       E    
A      1.00

     the symmetry operations in each class and the name of the first element:

     E        1
          identity                                               

   Cartesian axes

     site n.     atom                  positions (alat units)
         1           H   tau(   1) = (   0.2194937   0.4907477   0.2271531  )
         2           H   tau(   2) = (   0.2805063   0.4907477   0.2271531  )
         3           C   tau(   3) = (   0.0000000   0.0000000   0.0000000  )
         4           C   tau(   4) = (   0.0000000   0.1154701   0.0000000  )
         5           C   tau(   5) = (  -0.1000000   0.1732051   0.0000000  )
         6           C   tau(   6) = (  -0.1000000   0.2886751   0.0000000  )
         7           C   tau(   7) = (  -0.2000000   0.3464102   0.0000000  )
         8           C   tau(   8) = (  -0.2000000   0.4618802   0.0000000  )
         9           C   tau(   9) = (  -0.3000000   0.5196152   0.0000000  )
        10           C   tau(  10) = (  -0.3000000   0.6350853   0.0000000  )
        11           C   tau(  11) = (  -0.4000000   0.6928203   0.0000000  )
        12           C   tau(  12) = (  -0.4000000   0.8082904   0.0000000  )
        13           C   tau(  13) = (   0.2000000   0.0000000   0.0000000  )
        14           C   tau(  14) = (   0.2000000   0.1154701   0.0000000  )
        15           C   tau(  15) = (   0.1000000   0.1732051   0.0000000  )
        16           C   tau(  16) = (   0.1000000   0.2886751   0.0000000  )
        17           C   tau(  17) = (   0.0000000   0.3464102   0.0000000  )
        18           C   tau(  18) = (   0.0000000   0.4618802   0.0000000  )
        19           C   tau(  19) = (  -0.1000000   0.5196152   0.0000000  )
        20           C   tau(  20) = (  -0.1000000   0.6350853   0.0000000  )
        21           C   tau(  21) = (  -0.2000000   0.6928203   0.0000000  )
        22           C   tau(  22) = (  -0.2000000   0.8082904   0.0000000  )
        23           C   tau(  23) = (   0.4000000   0.0000000   0.0000000  )
        24           C   tau(  24) = (   0.4000000   0.1154701   0.0000000  )
        25           C   tau(  25) = (   0.3000000   0.1732051   0.0000000  )
        26           C   tau(  26) = (   0.3000000   0.2886751   0.0000000  )
        27           C   tau(  27) = (   0.2000000   0.3464102   0.0000000  )
        28           Fe  tau(  28) = (   0.2000000   0.4618802   0.0000000  )
        29           C   tau(  29) = (   0.1000000   0.5196152   0.0000000  )
        30           C   tau(  30) = (   0.1000000   0.6350853   0.0000000  )
        31           C   tau(  31) = (   0.0000000   0.6928203   0.0000000  )
        32           C   tau(  32) = (   0.0000000   0.8082904   0.0000000  )
        33           C   tau(  33) = (   0.6000000   0.0000000   0.0000000  )
        34           C   tau(  34) = (   0.6000000   0.1154701   0.0000000  )
        35           C   tau(  35) = (   0.5000000   0.1732051   0.0000000  )
        36           C   tau(  36) = (   0.5000000   0.2886751   0.0000000  )
        37           C   tau(  37) = (   0.4000000   0.3464102   0.0000000  )
        38           C   tau(  38) = (   0.4000000   0.4618802   0.0000000  )
        39           C   tau(  39) = (   0.3000000   0.5196152   0.0000000  )
        40           C   tau(  40) = (   0.3000000   0.6350853   0.0000000  )
        41           C   tau(  41) = (   0.2000000   0.6928203   0.0000000  )
        42           C   tau(  42) = (   0.2000000   0.8082904   0.0000000  )
        43           C   tau(  43) = (   0.8000000   0.0000000   0.0000000  )
        44           C   tau(  44) = (   0.8000000   0.1154701   0.0000000  )
        45           C   tau(  45) = (   0.7000000   0.1732051   0.0000000  )
        46           C   tau(  46) = (   0.7000000   0.2886751   0.0000000  )
        47           C   tau(  47) = (   0.6000000   0.3464102   0.0000000  )
        48           C   tau(  48) = (   0.6000000   0.4618802   0.0000000  )
        49           C   tau(  49) = (   0.5000000   0.5196152   0.0000000  )
        50           C   tau(  50) = (   0.5000000   0.6350853   0.0000000  )
        51           C   tau(  51) = (   0.4000000   0.6928203   0.0000000  )
        52           C   tau(  52) = (   0.4000000   0.8082904   0.0000000  )

   Crystallographic axes

     site n.     atom                  positions (cryst. coord.)
         1           H   tau(   1) = (  0.5028270  0.5666667  0.2800000  )
         2           H   tau(   2) = (  0.5638397  0.5666667  0.2800000  )
         3           C   tau(   3) = (  0.0000000  0.0000000  0.0000000  )
         4           C   tau(   4) = (  0.0666667  0.1333333  0.0000000  )
         5           C   tau(   5) = (  0.0000000  0.2000000  0.0000000  )
         6           C   tau(   6) = (  0.0666667  0.3333333  0.0000000  )
         7           C   tau(   7) = (  0.0000000  0.4000000  0.0000000  )
         8           C   tau(   8) = (  0.0666667  0.5333333  0.0000000  )
         9           C   tau(   9) = (  0.0000000  0.6000000  0.0000000  )
        10           C   tau(  10) = (  0.0666667  0.7333333  0.0000000  )
        11           C   tau(  11) = (  0.0000000  0.8000000  0.0000000  )
        12           C   tau(  12) = (  0.0666667  0.9333333  0.0000000  )
        13           C   tau(  13) = (  0.2000000  0.0000000  0.0000000  )
        14           C   tau(  14) = (  0.2666667  0.1333333  0.0000000  )
        15           C   tau(  15) = (  0.2000000  0.2000000  0.0000000  )
        16           C   tau(  16) = (  0.2666667  0.3333333  0.0000000  )
        17           C   tau(  17) = (  0.2000000  0.4000000  0.0000000  )
        18           C   tau(  18) = (  0.2666667  0.5333333  0.0000000  )
        19           C   tau(  19) = (  0.2000000  0.6000000  0.0000000  )
        20           C   tau(  20) = (  0.2666667  0.7333333  0.0000000  )
        21           C   tau(  21) = (  0.2000000  0.8000000  0.0000000  )
        22           C   tau(  22) = (  0.2666667  0.9333333  0.0000000  )
        23           C   tau(  23) = (  0.4000000  0.0000000  0.0000000  )
        24           C   tau(  24) = (  0.4666667  0.1333333  0.0000000  )
        25           C   tau(  25) = (  0.4000000  0.2000000  0.0000000  )
        26           C   tau(  26) = (  0.4666667  0.3333333  0.0000000  )
        27           C   tau(  27) = (  0.4000000  0.4000000  0.0000000  )
        28           Fe  tau(  28) = (  0.4666667  0.5333333  0.0000000  )
        29           C   tau(  29) = (  0.4000000  0.6000000  0.0000000  )
        30           C   tau(  30) = (  0.4666667  0.7333333  0.0000000  )
        31           C   tau(  31) = (  0.4000000  0.8000000  0.0000000  )
        32           C   tau(  32) = (  0.4666667  0.9333333  0.0000000  )
        33           C   tau(  33) = (  0.6000000  0.0000000  0.0000000  )
        34           C   tau(  34) = (  0.6666667  0.1333333  0.0000000  )
        35           C   tau(  35) = (  0.6000000  0.2000000  0.0000000  )
        36           C   tau(  36) = (  0.6666667  0.3333333  0.0000000  )
        37           C   tau(  37) = (  0.6000000  0.4000000  0.0000000  )
        38           C   tau(  38) = (  0.6666667  0.5333333  0.0000000  )
        39           C   tau(  39) = (  0.6000000  0.6000000  0.0000000  )
        40           C   tau(  40) = (  0.6666667  0.7333333  0.0000000  )
        41           C   tau(  41) = (  0.6000000  0.8000000  0.0000000  )
        42           C   tau(  42) = (  0.6666667  0.9333333  0.0000000  )
        43           C   tau(  43) = (  0.8000000  0.0000000  0.0000000  )
        44           C   tau(  44) = (  0.8666667  0.1333333  0.0000000  )
        45           C   tau(  45) = (  0.8000000  0.2000000  0.0000000  )
        46           C   tau(  46) = (  0.8666667  0.3333333  0.0000000  )
        47           C   tau(  47) = (  0.8000000  0.4000000  0.0000000  )
        48           C   tau(  48) = (  0.8666667  0.5333333  0.0000000  )
        49           C   tau(  49) = (  0.8000000  0.6000000  0.0000000  )
        50           C   tau(  50) = (  0.8666667  0.7333333  0.0000000  )
        51           C   tau(  51) = (  0.8000000  0.8000000  0.0000000  )
        52           C   tau(  52) = (  0.8666667  0.9333333  0.0000000  )

     number of k points=     1  Marzari-Vanderbilt smearing, width (Ry)=  0.0010
                       cart. coord. in units 2pi/alat
        k(    1) = (   0.0000000   0.0000000   0.0000000), wk =   1.0000000

                       cryst. coord.
        k(    1) = (   0.0000000   0.0000000   0.0000000), wk =   1.0000000

     Dense  grid:  1626001 G-vectors     FFT dimensions: ( 180, 180, 135)

     Smooth grid:   702581 G-vectors     FFT dimensions: ( 125, 125, 108)

     Dynamical RAM for                 wfc:      28.59 MB

     Dynamical RAM for     wfc (w. buffer):      85.76 MB

     Dynamical RAM for           str. fact:      12.41 MB

     Dynamical RAM for           local pot:       0.00 MB

     Dynamical RAM for          nlocal pot:      92.46 MB

     Dynamical RAM for                qrad:      19.73 MB

     Dynamical RAM for          rho,v,vnew:      58.92 MB

     Dynamical RAM for               rhoin:      19.64 MB

     Dynamical RAM for            rho*nmix:      66.16 MB

     Dynamical RAM for           G-vectors:      16.40 MB

     Dynamical RAM for          h,s,v(r/c):      12.00 MB

     Dynamical RAM for          <psi|beta>:       0.81 MB

     Dynamical RAM for                 psi:     114.35 MB

     Dynamical RAM for                hpsi:     114.35 MB

     Dynamical RAM for                spsi:     114.35 MB

     Dynamical RAM for      wfcinit/wfcrot:      93.90 MB

     Dynamical RAM for           addusdens:     975.89 MB

     Estimated static dynamical RAM per process >     422.14 MB

     Estimated max dynamical RAM per process >       1.37 GB

     Estimated total dynamical RAM >       8.19 GB
     Generating pointlists ...
     new r_m :   0.0252 (alat units)  0.5862 (a.u.) for type    1
     new r_m :   0.0476 (alat units)  1.1095 (a.u.) for type    2
     new r_m :   0.0476 (alat units)  1.1095 (a.u.) for type    3

     Check: negative core charge=   -0.000002

     Initial potential from superposition of free atoms

     starting charge  213.80512, renormalised to  214.00000

     negative rho (up, down):  6.132E-05 1.116E-02


---------------------------------------------------------------------------------
Carrying out rVV10 run using the following parameters:
Nqs =      20    Nr_points =    1024   r_max =   100.000
b_value =  6.30000    beta =  0.00901
     q_mesh =  0.00010000  0.00030000  0.00058939  0.00100810
               0.00161396  0.00249058  0.00375900  0.00559430
               0.00824984  0.01209221  0.01765183  0.02569619
               0.03733578  0.05417739  0.07854596  0.11380545
               0.16482331  0.23864234  0.34545298  0.50000000

Gradients computed in Reciprocal space

---------------------------------------------------------------------------------


     Starting wfcs are  208 randomized atomic wfcs

     total cpu time spent up to now is       75.2 secs

     Self-consistent Calculation

     iteration #  1     ecut=    70.00 Ry     beta= 0.30
     Davidson diagonalization with overlap
     ethr =  1.00E-02,  avg # of iterations =  2.5

     negative rho (up, down):  7.834E-05 1.114E-02

     total cpu time spent up to now is      202.4 secs

     total energy              =    -857.99639821 Ry
     Harris-Foulkes estimate   =    -858.63635795 Ry
     estimated scf accuracy    <      10.32194479 Ry

     total magnetization       =     6.00 Bohr mag/cell
     absolute magnetization    =     6.64 Bohr mag/cell

     iteration #  2     ecut=    70.00 Ry     beta= 0.30
     Davidson diagonalization with overlap
     ethr =  4.82E-03,  avg # of iterations =  2.0

     negative rho (up, down):  1.069E-04 1.183E-02

     total cpu time spent up to now is      291.4 secs

     total energy              =    -858.39822897 Ry
     Harris-Foulkes estimate   =    -858.69381262 Ry
     estimated scf accuracy    <       5.24066948 Ry

     total magnetization       =     4.00 Bohr mag/cell
     absolute magnetization    =     5.60 Bohr mag/cell

     iteration #  3     ecut=    70.00 Ry     beta= 0.30
     Davidson diagonalization with overlap
     ethr =  2.45E-03,  avg # of iterations =  2.5

     negative rho (up, down):  1.932E-04 2.336E-02

     total cpu time spent up to now is      382.0 secs

     total energy              =    -858.65421435 Ry
     Harris-Foulkes estimate   =    -859.55825608 Ry
     estimated scf accuracy    <       9.54617846 Ry

     total magnetization       =     6.00 Bohr mag/cell
     absolute magnetization    =     6.17 Bohr mag/cell

     iteration #  4     ecut=    70.00 Ry     beta= 0.30
     Davidson diagonalization with overlap
     ethr =  2.45E-03,  avg # of iterations =  4.5

     negative rho (up, down):  2.513E-04 3.435E-02

     total cpu time spent up to now is      481.4 secs

     total energy              =    -859.82087829 Ry
     Harris-Foulkes estimate   =    -859.59411127 Ry
     estimated scf accuracy    <       0.95124576 Ry

     total magnetization       =     2.00 Bohr mag/cell
     absolute magnetization    =     3.57 Bohr mag/cell

     iteration #  5     ecut=    70.00 Ry     beta= 0.30
     Davidson diagonalization with overlap
     ethr =  4.45E-04,  avg # of iterations = 14.0

     negative rho (up, down):  3.026E-04 4.096E-02

     total cpu time spent up to now is      607.2 secs

     total energy              =    -859.96620529 Ry
     Harris-Foulkes estimate   =    -859.92811841 Ry
     estimated scf accuracy    <       0.49337296 Ry

     total magnetization       =     2.00 Bohr mag/cell
     absolute magnetization    =     3.02 Bohr mag/cell

     iteration #  6     ecut=    70.00 Ry     beta= 0.30
     Davidson diagonalization with overlap
     ethr =  2.31E-04,  avg # of iterations =  1.5

     negative rho (up, down):  4.363E-04 6.075E-02

     total cpu time spent up to now is      713.8 secs

     total energy              =    -860.01903030 Ry
     Harris-Foulkes estimate   =    -860.00266470 Ry
     estimated scf accuracy    <       0.15012959 Ry

     total magnetization       =     2.00 Bohr mag/cell
     absolute magnetization    =     2.88 Bohr mag/cell

     iteration #  7     ecut=    70.00 Ry     beta= 0.30
     Davidson diagonalization with overlap
     ethr =  7.02E-05,  avg # of iterations =  2.5

     negative rho (up, down):  2.638E-03 1.012E-01

     total cpu time spent up to now is      823.1 secs

     total energy              =    -860.03580649 Ry
     Harris-Foulkes estimate   =    -860.03925361 Ry
     estimated scf accuracy    <       0.14384644 Ry

     total magnetization       =     2.00 Bohr mag/cell
     absolute magnetization    =     2.75 Bohr mag/cell

     iteration #  8     ecut=    70.00 Ry     beta= 0.30
     Davidson diagonalization with overlap
     ethr =  6.72E-05,  avg # of iterations =  4.0

     negative rho (up, down):  2.210E-03 8.430E-02

     total cpu time spent up to now is      932.5 secs

     total energy              =    -860.04074568 Ry
     Harris-Foulkes estimate   =    -860.04340127 Ry
     estimated scf accuracy    <       0.04312260 Ry

     total magnetization       =     2.05 Bohr mag/cell
     absolute magnetization    =     2.64 Bohr mag/cell

     iteration #  9     ecut=    70.00 Ry     beta= 0.30
     Davidson diagonalization with overlap
     ethr =  2.02E-05,  avg # of iterations = 14.0

     negative rho (up, down):  2.416E-03 8.326E-02

     total cpu time spent up to now is     1039.0 secs

     total energy              =    -860.04341763 Ry
     Harris-Foulkes estimate   =    -860.04453559 Ry
     estimated scf accuracy    <       0.04324320 Ry

     total magnetization       =     1.67 Bohr mag/cell
     absolute magnetization    =     2.45 Bohr mag/cell

     iteration # 10     ecut=    70.00 Ry     beta= 0.30
     Davidson diagonalization with overlap
     ethr =  2.02E-05,  avg # of iterations =  1.5

     negative rho (up, down):  2.091E-03 7.849E-02

     total cpu time spent up to now is     1141.7 secs

     total energy              =    -860.04555355 Ry
     Harris-Foulkes estimate   =    -860.04545211 Ry
     estimated scf accuracy    <       0.01202971 Ry

     total magnetization       =     2.02 Bohr mag/cell
     absolute magnetization    =     2.63 Bohr mag/cell

     iteration # 11     ecut=    70.00 Ry     beta= 0.30
     Davidson diagonalization with overlap
     ethr =  5.62E-06,  avg # of iterations =  1.0

     negative rho (up, down):  1.749E-03 6.966E-02

     total cpu time spent up to now is     1242.0 secs

     total energy              =    -860.04763768 Ry
     Harris-Foulkes estimate   =    -860.04622803 Ry
     estimated scf accuracy    <       0.01466626 Ry

     total magnetization       =     1.80 Bohr mag/cell
     absolute magnetization    =     2.59 Bohr mag/cell

     iteration # 12     ecut=    70.00 Ry     beta= 0.30
     Davidson diagonalization with overlap
     ethr =  5.62E-06,  avg # of iterations =  2.0

     negative rho (up, down):  1.246E-03 5.521E-02

     total cpu time spent up to now is     1344.1 secs

     total energy              =    -860.04992824 Ry
     Harris-Foulkes estimate   =    -860.04818939 Ry
     estimated scf accuracy    <       0.00437259 Ry

     total magnetization       =     1.80 Bohr mag/cell
     absolute magnetization    =     2.60 Bohr mag/cell

     iteration # 13     ecut=    70.00 Ry     beta= 0.30
     Davidson diagonalization with overlap
     ethr =  2.04E-06,  avg # of iterations =  3.5

     negative rho (up, down):  1.297E-03 7.190E-02

     total cpu time spent up to now is     1459.0 secs

     total energy              =    -860.05044535 Ry
     Harris-Foulkes estimate   =    -860.05061229 Ry
     estimated scf accuracy    <       0.00536719 Ry

     total magnetization       =     1.83 Bohr mag/cell
     absolute magnetization    =     2.68 Bohr mag/cell

     iteration # 14     ecut=    70.00 Ry     beta= 0.30
     Davidson diagonalization with overlap
     ethr =  2.04E-06,  avg # of iterations =  1.0

     negative rho (up, down):  1.353E-03 9.847E-02

     total cpu time spent up to now is     1558.6 secs

     total energy              =    -860.04972211 Ry
     Harris-Foulkes estimate   =    -860.05053455 Ry
     estimated scf accuracy    <       0.00409585 Ry

     total magnetization       =     1.76 Bohr mag/cell
     absolute magnetization    =     2.66 Bohr mag/cell

     iteration # 15     ecut=    70.00 Ry     beta= 0.30
     Davidson diagonalization with overlap
     ethr =  1.91E-06,  avg # of iterations =  2.0

     negative rho (up, down):  1.421E-03 1.172E-01

     total cpu time spent up to now is     1661.3 secs

     total energy              =    -860.04901523 Ry
     Harris-Foulkes estimate   =    -860.05002655 Ry
     estimated scf accuracy    <       0.00485171 Ry

     total magnetization       =     2.07 Bohr mag/cell
     absolute magnetization    =     2.69 Bohr mag/cell

     iteration # 16     ecut=    70.00 Ry     beta= 0.30
     Davidson diagonalization with overlap
     ethr =  1.91E-06,  avg # of iterations =  2.0

     negative rho (up, down):  1.438E-03 1.398E-01

     total cpu time spent up to now is     1767.6 secs

     total energy              =    -860.04724860 Ry
     Harris-Foulkes estimate   =    -860.04925082 Ry
     estimated scf accuracy    <       0.00372369 Ry

     total magnetization       =     1.86 Bohr mag/cell
     absolute magnetization    =     2.65 Bohr mag/cell

     iteration # 17     ecut=    70.00 Ry     beta= 0.30
     Davidson diagonalization with overlap
     ethr =  1.74E-06,  avg # of iterations =  2.0

     negative rho (up, down):  1.152E-03 1.227E-01

     total cpu time spent up to now is     1882.5 secs

     total energy              =    -860.04857075 Ry
     Harris-Foulkes estimate   =    -860.04826797 Ry
     estimated scf accuracy    <       0.00140130 Ry

     total magnetization       =     1.87 Bohr mag/cell
     absolute magnetization    =     2.62 Bohr mag/cell

     iteration # 18     ecut=    70.00 Ry     beta= 0.30
     Davidson diagonalization with overlap
     ethr =  6.55E-07,  avg # of iterations =  2.5

     negative rho (up, down):  1.017E-03 1.114E-01

     total cpu time spent up to now is     1986.0 secs

     total energy              =    -860.04872698 Ry
     Harris-Foulkes estimate   =    -860.04875323 Ry
     estimated scf accuracy    <       0.00263776 Ry

     total magnetization       =     1.76 Bohr mag/cell
     absolute magnetization    =     2.63 Bohr mag/cell

     iteration # 19     ecut=    70.00 Ry     beta= 0.30
     Davidson diagonalization with overlap
     ethr =  6.55E-07,  avg # of iterations =  2.0

     negative rho (up, down):  9.412E-04 1.016E-01

     total cpu time spent up to now is     2092.2 secs

     total energy              =    -860.04898771 Ry
     Harris-Foulkes estimate   =    -860.04891795 Ry
     estimated scf accuracy    <       0.00077862 Ry

     total magnetization       =     1.83 Bohr mag/cell
     absolute magnetization    =     2.67 Bohr mag/cell

     iteration # 20     ecut=    70.00 Ry     beta= 0.30
     Davidson diagonalization with overlap
     ethr =  3.64E-07,  avg # of iterations =  2.0

     negative rho (up, down):  8.595E-04 7.062E-02

     total cpu time spent up to now is     2202.2 secs

     total energy              =    -860.04935689 Ry
     Harris-Foulkes estimate   =    -860.04909782 Ry
     estimated scf accuracy    <       0.00068224 Ry

     total magnetization       =     1.81 Bohr mag/cell
     absolute magnetization    =     2.68 Bohr mag/cell

     iteration # 21     ecut=    70.00 Ry     beta= 0.30
     Davidson diagonalization with overlap
     ethr =  3.19E-07,  avg # of iterations =  2.5

     negative rho (up, down):  8.819E-04 7.483E-02

     total cpu time spent up to now is     2309.5 secs

     total energy              =    -860.04924371 Ry
     Harris-Foulkes estimate   =    -860.04944106 Ry
     estimated scf accuracy    <       0.00076949 Ry

     total magnetization       =     1.82 Bohr mag/cell
     absolute magnetization    =     2.70 Bohr mag/cell

     iteration # 22     ecut=    70.00 Ry     beta= 0.30
     Davidson diagonalization with overlap
     ethr =  3.19E-07,  avg # of iterations =  2.0

     negative rho (up, down):  9.016E-04 9.264E-02

     total cpu time spent up to now is     2408.4 secs

     total energy              =    -860.04876624 Ry
     Harris-Foulkes estimate   =    -860.04926914 Ry
     estimated scf accuracy    <       0.00073064 Ry

     total magnetization       =     1.81 Bohr mag/cell
     absolute magnetization    =     2.69 Bohr mag/cell

     iteration # 23     ecut=    70.00 Ry     beta= 0.30
     Davidson diagonalization with overlap
     ethr =  3.19E-07,  avg # of iterations =  2.0

     negative rho (up, down):  8.240E-04 8.218E-02

     total cpu time spent up to now is     2523.0 secs

     total energy              =    -860.04905321 Ry
     Harris-Foulkes estimate   =    -860.04897445 Ry
     estimated scf accuracy    <       0.00060245 Ry

     total magnetization       =     1.82 Bohr mag/cell
     absolute magnetization    =     2.69 Bohr mag/cell

     iteration # 24     ecut=    70.00 Ry     beta= 0.30
     Davidson diagonalization with overlap
     ethr =  2.82E-07,  avg # of iterations =  2.0

     negative rho (up, down):  7.835E-04 7.385E-02

     total cpu time spent up to now is     2625.8 secs

     total energy              =    -860.04920238 Ry
     Harris-Foulkes estimate   =    -860.04908840 Ry
     estimated scf accuracy    <       0.00048083 Ry

     total magnetization       =     1.78 Bohr mag/cell
     absolute magnetization    =     2.69 Bohr mag/cell

     iteration # 25     ecut=    70.00 Ry     beta= 0.30
     Davidson diagonalization with overlap
     ethr =  2.25E-07,  avg # of iterations =  2.0

     negative rho (up, down):  8.243E-04 6.840E-02

     total cpu time spent up to now is     2734.2 secs

     total energy              =    -860.04902100 Ry
     Harris-Foulkes estimate   =    -860.04925889 Ry
     estimated scf accuracy    <       0.00061991 Ry

     total magnetization       =     1.83 Bohr mag/cell
     absolute magnetization    =     2.72 Bohr mag/cell

     iteration # 26     ecut=    70.00 Ry     beta= 0.30
     Davidson diagonalization with overlap
     ethr =  2.25E-07,  avg # of iterations =  2.0

     negative rho (up, down):  8.092E-04 6.712E-02

     total cpu time spent up to now is     2842.2 secs

     total energy              =    -860.04887793 Ry
     Harris-Foulkes estimate   =    -860.04906543 Ry
     estimated scf accuracy    <       0.00058286 Ry

     total magnetization       =     1.83 Bohr mag/cell
     absolute magnetization    =     2.71 Bohr mag/cell

     iteration # 27     ecut=    70.00 Ry     beta= 0.30
     Davidson diagonalization with overlap
     ethr =  2.25E-07,  avg # of iterations =  2.0

     negative rho (up, down):  7.731E-04 5.348E-02

     total cpu time spent up to now is     2957.0 secs

     total energy              =    -860.04908643 Ry
     Harris-Foulkes estimate   =    -860.04896842 Ry
     estimated scf accuracy    <       0.00034536 Ry

     total magnetization       =     1.83 Bohr mag/cell
     absolute magnetization    =     2.69 Bohr mag/cell

     iteration # 28     ecut=    70.00 Ry     beta= 0.30
     Davidson diagonalization with overlap
     ethr =  1.61E-07,  avg # of iterations =  2.0

     negative rho (up, down):  7.536E-04 5.247E-02

     total cpu time spent up to now is     3068.9 secs

     total energy              =    -860.04915855 Ry
     Harris-Foulkes estimate   =    -860.04914561 Ry
     estimated scf accuracy    <       0.00068595 Ry

     total magnetization       =     1.82 Bohr mag/cell
     absolute magnetization    =     2.72 Bohr mag/cell

     iteration # 29     ecut=    70.00 Ry     beta= 0.30
     Davidson diagonalization with overlap
     ethr =  1.61E-07,  avg # of iterations =  2.0

     negative rho (up, down):  7.338E-04 4.904E-02

     total cpu time spent up to now is     3177.8 secs

     total energy              =    -860.04923615 Ry
     Harris-Foulkes estimate   =    -860.04919638 Ry
     estimated scf accuracy    <       0.00038005 Ry

     total magnetization       =     1.82 Bohr mag/cell
     absolute magnetization    =     2.72 Bohr mag/cell

     iteration # 30     ecut=    70.00 Ry     beta= 0.30
     Davidson diagonalization with overlap
     ethr =  1.61E-07,  avg # of iterations =  1.5

     negative rho (up, down):  7.236E-04 4.965E-02

     total cpu time spent up to now is     3286.6 secs

     total energy              =    -860.04924776 Ry
     Harris-Foulkes estimate   =    -860.04924290 Ry
     estimated scf accuracy    <       0.00046013 Ry

     total magnetization       =     1.81 Bohr mag/cell
     absolute magnetization    =     2.72 Bohr mag/cell

     iteration # 31     ecut=    70.00 Ry     beta= 0.30
     Davidson diagonalization with overlap
     ethr =  1.61E-07,  avg # of iterations =  2.0

     negative rho (up, down):  7.516E-04 5.790E-02

     total cpu time spent up to now is     3401.9 secs

     total energy              =    -860.04915353 Ry
     Harris-Foulkes estimate   =    -860.04927745 Ry
     estimated scf accuracy    <       0.00044533 Ry

     total magnetization       =     1.83 Bohr mag/cell
     absolute magnetization    =     2.74 Bohr mag/cell

     iteration # 32     ecut=    70.00 Ry     beta= 0.30
     Davidson diagonalization with overlap
     ethr =  1.61E-07,  avg # of iterations =  2.0

     negative rho (up, down):  7.769E-04 6.837E-02

     total cpu time spent up to now is     3508.8 secs

     total energy              =    -860.04892514 Ry
     Harris-Foulkes estimate   =    -860.04916364 Ry
     estimated scf accuracy    <       0.00040872 Ry

     total magnetization       =     1.83 Bohr mag/cell
     absolute magnetization    =     2.72 Bohr mag/cell

     iteration # 33     ecut=    70.00 Ry     beta= 0.30
     Davidson diagonalization with overlap
     ethr =  1.61E-07,  avg # of iterations =  2.0

     negative rho (up, down):  7.336E-04 5.060E-02

     total cpu time spent up to now is     3626.4 secs

     total energy              =    -860.04911382 Ry
     Harris-Foulkes estimate   =    -860.04898262 Ry
     estimated scf accuracy    <       0.00035170 Ry

     total magnetization       =     1.81 Bohr mag/cell
     absolute magnetization    =     2.70 Bohr mag/cell

     iteration # 34     ecut=    70.00 Ry     beta= 0.30
     Davidson diagonalization with overlap
     ethr =  1.61E-07,  avg # of iterations =  2.0

     negative rho (up, down):  7.320E-04 5.777E-02

     total cpu time spent up to now is     3745.1 secs

     total energy              =    -860.04903899 Ry
     Harris-Foulkes estimate   =    -860.04918500 Ry
     estimated scf accuracy    <       0.00059652 Ry

     total magnetization       =     1.82 Bohr mag/cell
     absolute magnetization    =     2.73 Bohr mag/cell

     iteration # 35     ecut=    70.00 Ry     beta= 0.30
     Davidson diagonalization with overlap
     ethr =  1.61E-07,  avg # of iterations =  2.0

     negative rho (up, down):  7.165E-04 5.154E-02

     total cpu time spent up to now is     3859.4 secs

     total energy              =    -860.04914417 Ry
     Harris-Foulkes estimate   =    -860.04909080 Ry
     estimated scf accuracy    <       0.00038130 Ry

     total magnetization       =     1.82 Bohr mag/cell
     absolute magnetization    =     2.72 Bohr mag/cell

     iteration # 36     ecut=    70.00 Ry     beta= 0.30
     Davidson diagonalization with overlap
     ethr =  1.61E-07,  avg # of iterations =  2.0

     negative rho (up, down):  7.079E-04 4.687E-02

     total cpu time spent up to now is     3969.2 secs

     total energy              =    -860.04919640 Ry
     Harris-Foulkes estimate   =    -860.04916263 Ry
     estimated scf accuracy    <       0.00030190 Ry

     total magnetization       =     1.83 Bohr mag/cell
     absolute magnetization    =     2.73 Bohr mag/cell

     iteration # 37     ecut=    70.00 Ry     beta= 0.30
     Davidson diagonalization with overlap
     ethr =  1.41E-07,  avg # of iterations =  1.0

     negative rho (up, down):  7.402E-04 5.282E-02

     total cpu time spent up to now is     4076.6 secs

     total energy              =    -860.04908127 Ry
     Harris-Foulkes estimate   =    -860.04919792 Ry
     estimated scf accuracy    <       0.00031155 Ry

     total magnetization       =     1.83 Bohr mag/cell
     absolute magnetization    =     2.74 Bohr mag/cell

     iteration # 38     ecut=    70.00 Ry     beta= 0.30
     Davidson diagonalization with overlap
     ethr =  1.41E-07,  avg # of iterations =  2.0

     negative rho (up, down):  7.395E-04 5.113E-02

     total cpu time spent up to now is     4185.5 secs

     total energy              =    -860.04909642 Ry
     Harris-Foulkes estimate   =    -860.04909279 Ry
     estimated scf accuracy    <       0.00028372 Ry

     total magnetization       =     1.82 Bohr mag/cell
     absolute magnetization    =     2.72 Bohr mag/cell

     iteration # 39     ecut=    70.00 Ry     beta= 0.30
     Davidson diagonalization with overlap
     ethr =  1.33E-07,  avg # of iterations =  2.0

     negative rho (up, down):  7.278E-04 4.692E-02

     total cpu time spent up to now is     4294.3 secs

     total energy              =    -860.04915747 Ry
     Harris-Foulkes estimate   =    -860.04910828 Ry
     estimated scf accuracy    <       0.00029929 Ry

     total magnetization       =     1.81 Bohr mag/cell
     absolute magnetization    =     2.71 Bohr mag/cell

     iteration # 40     ecut=    70.00 Ry     beta= 0.30
     Davidson diagonalization with overlap
     ethr =  1.33E-07,  avg # of iterations =  2.0

     negative rho (up, down):  7.191E-04 4.448E-02

     total cpu time spent up to now is     4392.4 secs

     total energy              =    -860.04919724 Ry
     Harris-Foulkes estimate   =    -860.04916863 Ry
     estimated scf accuracy    <       0.00029445 Ry

     total magnetization       =     1.81 Bohr mag/cell
     absolute magnetization    =     2.72 Bohr mag/cell

     iteration # 41     ecut=    70.00 Ry     beta= 0.30
     Davidson diagonalization with overlap
     ethr =  1.33E-07,  avg # of iterations =  1.5

     negative rho (up, down):  7.079E-04 5.166E-02

     total cpu time spent up to now is     4484.4 secs

     total energy              =    -860.04913655 Ry
     Harris-Foulkes estimate   =    -860.04920496 Ry
     estimated scf accuracy    <       0.00030630 Ry

     total magnetization       =     1.82 Bohr mag/cell
     absolute magnetization    =     2.73 Bohr mag/cell

     iteration # 42     ecut=    70.00 Ry     beta= 0.30
     Davidson diagonalization with overlap
     ethr =  1.33E-07,  avg # of iterations =  2.0

     negative rho (up, down):  7.209E-04 7.382E-02

     total cpu time spent up to now is     4577.6 secs

     total energy              =    -860.04873832 Ry
     Harris-Foulkes estimate   =    -860.04914856 Ry
     estimated scf accuracy    <       0.00029132 Ry

     total magnetization       =     1.83 Bohr mag/cell
     absolute magnetization    =     2.73 Bohr mag/cell

     iteration # 43     ecut=    70.00 Ry     beta= 0.30
     Davidson diagonalization with overlap
     ethr =  1.33E-07,  avg # of iterations =  2.5

     negative rho (up, down):  7.012E-04 7.329E-02

     total cpu time spent up to now is     4683.5 secs

     total energy              =    -860.04883237 Ry
     Harris-Foulkes estimate   =    -860.04891490 Ry
     estimated scf accuracy    <       0.00023619 Ry

     total magnetization       =     1.83 Bohr mag/cell
     absolute magnetization    =     2.72 Bohr mag/cell

     iteration # 44     ecut=    70.00 Ry     beta= 0.30
     Davidson diagonalization with overlap
     ethr =  1.10E-07,  avg # of iterations =  2.0

     negative rho (up, down):  6.713E-04 5.550E-02

     total cpu time spent up to now is     4786.4 secs

     total energy              =    -860.04895733 Ry
     Harris-Foulkes estimate   =    -860.04889814 Ry
     estimated scf accuracy    <       0.00023450 Ry

     total magnetization       =     1.83 Bohr mag/cell
     absolute magnetization    =     2.72 Bohr mag/cell

     iteration # 45     ecut=    70.00 Ry     beta= 0.30
     Davidson diagonalization with overlap
     ethr =  1.10E-07,  avg # of iterations =  1.5

     negative rho (up, down):  6.310E-04 4.095E-02

     total cpu time spent up to now is     4877.7 secs

     total energy              =    -860.04902486 Ry
     Harris-Foulkes estimate   =    -860.04896463 Ry
     estimated scf accuracy    <       0.00013556 Ry

     total magnetization       =     1.84 Bohr mag/cell
     absolute magnetization    =     2.75 Bohr mag/cell

     iteration # 46     ecut=    70.00 Ry     beta= 0.30
     Davidson diagonalization with overlap
     ethr =  6.33E-08,  avg # of iterations =  2.5

     negative rho (up, down):  6.245E-04 2.981E-02

     total cpu time spent up to now is     4983.1 secs

     total energy              =    -860.04908321 Ry
     Harris-Foulkes estimate   =    -860.04905801 Ry
     estimated scf accuracy    <       0.00006530 Ry

     total magnetization       =     1.84 Bohr mag/cell
     absolute magnetization    =     2.79 Bohr mag/cell

     iteration # 47     ecut=    70.00 Ry     beta= 0.30
     Davidson diagonalization with overlap
     ethr =  3.05E-08,  avg # of iterations =  2.0

     negative rho (up, down):  6.249E-04 3.323E-02

     total cpu time spent up to now is     5078.1 secs

     total energy              =    -860.04905135 Ry
     Harris-Foulkes estimate   =    -860.04909130 Ry
     estimated scf accuracy    <       0.00008957 Ry

     total magnetization       =     1.84 Bohr mag/cell
     absolute magnetization    =     2.81 Bohr mag/cell

     iteration # 48     ecut=    70.00 Ry     beta= 0.30
     Davidson diagonalization with overlap
     ethr =  3.05E-08,  avg # of iterations =  2.0

     negative rho (up, down):  6.264E-04 2.829E-02

     total cpu time spent up to now is     5182.5 secs

     total energy              =    -860.04907652 Ry
     Harris-Foulkes estimate   =    -860.04907767 Ry
     estimated scf accuracy    <       0.00009218 Ry

     total magnetization       =     1.84 Bohr mag/cell
     absolute magnetization    =     2.80 Bohr mag/cell

     iteration # 49     ecut=    70.00 Ry     beta= 0.30
     Davidson diagonalization with overlap
     ethr =  3.05E-08,  avg # of iterations =  2.0

     negative rho (up, down):  6.427E-04 2.230E-02

     total cpu time spent up to now is     5276.2 secs

     total energy              =    -860.04902378 Ry
     Harris-Foulkes estimate   =    -860.04907921 Ry
     estimated scf accuracy    <       0.00010522 Ry

     total magnetization       =     1.84 Bohr mag/cell
     absolute magnetization    =     2.80 Bohr mag/cell

     iteration # 50     ecut=    70.00 Ry     beta= 0.30
     Davidson diagonalization with overlap
     ethr =  3.05E-08,  avg # of iterations =  2.0

     negative rho (up, down):  6.337E-04 2.126E-02

     total cpu time spent up to now is     5379.8 secs

     total energy              =    -860.04906309 Ry
     Harris-Foulkes estimate   =    -860.04904160 Ry
     estimated scf accuracy    <       0.00005779 Ry

     total magnetization       =     1.84 Bohr mag/cell
     absolute magnetization    =     2.78 Bohr mag/cell

     iteration # 51     ecut=    70.00 Ry     beta= 0.30
     Davidson diagonalization with overlap
     ethr =  2.70E-08,  avg # of iterations =  2.0

     negative rho (up, down):  6.158E-04 2.015E-02

     total cpu time spent up to now is     5479.7 secs

     total energy              =    -860.04909158 Ry
     Harris-Foulkes estimate   =    -860.04907252 Ry
     estimated scf accuracy    <       0.00013306 Ry

     total magnetization       =     1.84 Bohr mag/cell
     absolute magnetization    =     2.79 Bohr mag/cell

     iteration # 52     ecut=    70.00 Ry     beta= 0.30
     Davidson diagonalization with overlap
     ethr =  2.70E-08,  avg # of iterations =  2.5

     negative rho (up, down):  6.131E-04 2.133E-02

     total cpu time spent up to now is     5584.4 secs

     total energy              =    -860.04910498 Ry
     Harris-Foulkes estimate   =    -860.04910558 Ry
     estimated scf accuracy    <       0.00014734 Ry

     total magnetization       =     1.84 Bohr mag/cell
     absolute magnetization    =     2.83 Bohr mag/cell

     iteration # 53     ecut=    70.00 Ry     beta= 0.30
     Davidson diagonalization with overlap
     ethr =  2.70E-08,  avg # of iterations =  2.0

     negative rho (up, down):  6.158E-04 2.053E-02

     total cpu time spent up to now is     5683.4 secs

     total energy              =    -860.04911374 Ry
     Harris-Foulkes estimate   =    -860.04911349 Ry
     estimated scf accuracy    <       0.00009442 Ry

     total magnetization       =     1.85 Bohr mag/cell
     absolute magnetization    =     2.84 Bohr mag/cell

     iteration # 54     ecut=    70.00 Ry     beta= 0.30
     Davidson diagonalization with overlap
     ethr =  2.70E-08,  avg # of iterations =  1.0

     negative rho (up, down):  6.125E-04 2.176E-02

     total cpu time spent up to now is     5774.0 secs

     total energy              =    -860.04909819 Ry
     Harris-Foulkes estimate   =    -860.04911421 Ry
     estimated scf accuracy    <       0.00011107 Ry

     total magnetization       =     1.85 Bohr mag/cell
     absolute magnetization    =     2.84 Bohr mag/cell

     iteration # 55     ecut=    70.00 Ry     beta= 0.30
     Davidson diagonalization with overlap
     ethr =  2.70E-08,  avg # of iterations =  2.0

     negative rho (up, down):  6.152E-04 2.098E-02

     total cpu time spent up to now is     5875.0 secs

     total energy              =    -860.04911333 Ry
     Harris-Foulkes estimate   =    -860.04911025 Ry
     estimated scf accuracy    <       0.00006806 Ry

     total magnetization       =     1.85 Bohr mag/cell
     absolute magnetization    =     2.85 Bohr mag/cell

     iteration # 56     ecut=    70.00 Ry     beta= 0.30
     Davidson diagonalization with overlap
     ethr =  2.70E-08,  avg # of iterations =  2.0

     negative rho (up, down):  6.104E-04 1.939E-02

     total cpu time spent up to now is     5974.3 secs

     total energy              =    -860.04913612 Ry
     Harris-Foulkes estimate   =    -860.04912378 Ry
     estimated scf accuracy    <       0.00004942 Ry

     total magnetization       =     1.84 Bohr mag/cell
     absolute magnetization    =     2.86 Bohr mag/cell

     iteration # 57     ecut=    70.00 Ry     beta= 0.30
     Davidson diagonalization with overlap
     ethr =  2.31E-08,  avg # of iterations =  2.0

     negative rho (up, down):  6.166E-04 2.559E-02

     total cpu time spent up to now is     6066.7 secs

     total energy              =    -860.04906266 Ry
     Harris-Foulkes estimate   =    -860.04913931 Ry
     estimated scf accuracy    <       0.00006070 Ry

     total magnetization       =     1.85 Bohr mag/cell
     absolute magnetization    =     2.87 Bohr mag/cell

     iteration # 58     ecut=    70.00 Ry     beta= 0.30
     Davidson diagonalization with overlap
     ethr =  2.31E-08,  avg # of iterations =  3.0

     negative rho (up, down):  6.211E-04 2.504E-02

     total cpu time spent up to now is     6175.7 secs

     total energy              =    -860.04907968 Ry
     Harris-Foulkes estimate   =    -860.04909589 Ry
     estimated scf accuracy    <       0.00011728 Ry

     total magnetization       =     1.84 Bohr mag/cell
     absolute magnetization    =     2.84 Bohr mag/cell

     iteration # 59     ecut=    70.00 Ry     beta= 0.30
     Davidson diagonalization with overlap
     ethr =  2.31E-08,  avg # of iterations =  2.0

     negative rho (up, down):  6.222E-04 2.293E-02

     total cpu time spent up to now is     6268.7 secs

     total energy              =    -860.04908262 Ry
     Harris-Foulkes estimate   =    -860.04908362 Ry
     estimated scf accuracy    <       0.00004789 Ry

     total magnetization       =     1.84 Bohr mag/cell
     absolute magnetization    =     2.83 Bohr mag/cell

     iteration # 60     ecut=    70.00 Ry     beta= 0.30
     Davidson diagonalization with overlap
     ethr =  2.24E-08,  avg # of iterations =  2.0

     negative rho (up, down):  6.253E-04 2.062E-02

     total cpu time spent up to now is     6363.4 secs

     total energy              =    -860.04909302 Ry
     Harris-Foulkes estimate   =    -860.04908658 Ry
     estimated scf accuracy    <       0.00008275 Ry

     total magnetization       =     1.84 Bohr mag/cell
     absolute magnetization    =     2.83 Bohr mag/cell

     iteration # 61     ecut=    70.00 Ry     beta= 0.30
     Davidson diagonalization with overlap
     ethr =  2.24E-08,  avg # of iterations =  2.0

     negative rho (up, down):  6.224E-04 2.149E-02

     total cpu time spent up to now is     6457.0 secs

     total energy              =    -860.04908736 Ry
     Harris-Foulkes estimate   =    -860.04909518 Ry
     estimated scf accuracy    <       0.00008246 Ry

     total magnetization       =     1.85 Bohr mag/cell
     absolute magnetization    =     2.83 Bohr mag/cell

     iteration # 62     ecut=    70.00 Ry     beta= 0.30
     Davidson diagonalization with overlap
     ethr =  2.24E-08,  avg # of iterations =  2.0

     negative rho (up, down):  6.287E-04 2.405E-02

     total cpu time spent up to now is     6552.1 secs

     total energy              =    -860.04906128 Ry
     Harris-Foulkes estimate   =    -860.04908989 Ry
     estimated scf accuracy    <       0.00009885 Ry

     total magnetization       =     1.85 Bohr mag/cell
     absolute magnetization    =     2.83 Bohr mag/cell

     iteration # 63     ecut=    70.00 Ry     beta= 0.30
     Davidson diagonalization with overlap
     ethr =  2.24E-08,  avg # of iterations =  2.0

     negative rho (up, down):  6.218E-04 2.178E-02

     total cpu time spent up to now is     6654.2 secs

     total energy              =    -860.04907686 Ry
     Harris-Foulkes estimate   =    -860.04907489 Ry
     estimated scf accuracy    <       0.00003376 Ry

     total magnetization       =     1.84 Bohr mag/cell
     absolute magnetization    =     2.82 Bohr mag/cell

     iteration # 64     ecut=    70.00 Ry     beta= 0.30
     Davidson diagonalization with overlap
     ethr =  1.58E-08,  avg # of iterations =  2.0

     negative rho (up, down):  6.268E-04 2.047E-02

     total cpu time spent up to now is     6754.6 secs

     total energy              =    -860.04908725 Ry
     Harris-Foulkes estimate   =    -860.04908522 Ry
     estimated scf accuracy    <       0.00005941 Ry

     total magnetization       =     1.85 Bohr mag/cell
     absolute magnetization    =     2.83 Bohr mag/cell

     iteration # 65     ecut=    70.00 Ry     beta= 0.30
     Davidson diagonalization with overlap
     ethr =  1.58E-08,  avg # of iterations =  2.5

     negative rho (up, down):  6.215E-04 1.762E-02

     total cpu time spent up to now is     6861.1 secs

     total energy              =    -860.04910326 Ry
     Harris-Foulkes estimate   =    -860.04910966 Ry
     estimated scf accuracy    <       0.00004674 Ry

     total magnetization       =     1.85 Bohr mag/cell
     absolute magnetization    =     2.85 Bohr mag/cell

     iteration # 66     ecut=    70.00 Ry     beta= 0.30
     Davidson diagonalization with overlap
     ethr =  1.58E-08,  avg # of iterations =  2.0

     negative rho (up, down):  6.240E-04 1.858E-02

     total cpu time spent up to now is     6954.9 secs

     total energy              =    -860.04908833 Ry
     Harris-Foulkes estimate   =    -860.04910745 Ry
     estimated scf accuracy    <       0.00002809 Ry

     total magnetization       =     1.85 Bohr mag/cell
     absolute magnetization    =     2.85 Bohr mag/cell

     iteration # 67     ecut=    70.00 Ry     beta= 0.30
     Davidson diagonalization with overlap
     ethr =  1.31E-08,  avg # of iterations =  2.0

     negative rho (up, down):  6.253E-04 1.901E-02

     total cpu time spent up to now is     7054.9 secs

     total energy              =    -860.04909287 Ry
     Harris-Foulkes estimate   =    -860.04909388 Ry
     estimated scf accuracy    <       0.00003210 Ry

     total magnetization       =     1.85 Bohr mag/cell
     absolute magnetization    =     2.84 Bohr mag/cell

     iteration # 68     ecut=    70.00 Ry     beta= 0.30
     Davidson diagonalization with overlap
     ethr =  1.31E-08,  avg # of iterations =  2.0

     negative rho (up, down):  6.249E-04 1.844E-02

     total cpu time spent up to now is     7150.8 secs

     total energy              =    -860.04910042 Ry
     Harris-Foulkes estimate   =    -860.04909548 Ry
     estimated scf accuracy    <       0.00002536 Ry

     total magnetization       =     1.85 Bohr mag/cell
     absolute magnetization    =     2.84 Bohr mag/cell

     iteration # 69     ecut=    70.00 Ry     beta= 0.30
     Davidson diagonalization with overlap
     ethr =  1.19E-08,  avg # of iterations =  2.0

     negative rho (up, down):  6.252E-04 1.792E-02

     total cpu time spent up to now is     7241.4 secs

     total energy              =    -860.04910319 Ry
     Harris-Foulkes estimate   =    -860.04910105 Ry
     estimated scf accuracy    <       0.00002393 Ry

     total magnetization       =     1.85 Bohr mag/cell
     absolute magnetization    =     2.85 Bohr mag/cell

     iteration # 70     ecut=    70.00 Ry     beta= 0.30
     Davidson diagonalization with overlap
     ethr =  1.12E-08,  avg # of iterations =  1.5

     negative rho (up, down):  6.215E-04 1.840E-02

     total cpu time spent up to now is     7331.4 secs

     total energy              =    -860.04909726 Ry
     Harris-Foulkes estimate   =    -860.04910348 Ry
     estimated scf accuracy    <       0.00003054 Ry

     total magnetization       =     1.85 Bohr mag/cell
     absolute magnetization    =     2.85 Bohr mag/cell

     iteration # 71     ecut=    70.00 Ry     beta= 0.30
     Davidson diagonalization with overlap
     ethr =  1.12E-08,  avg # of iterations =  2.0

     negative rho (up, down):  6.191E-04 1.917E-02

     total cpu time spent up to now is     7432.5 secs

     total energy              =    -860.04910111 Ry
     Harris-Foulkes estimate   =    -860.04910349 Ry
     estimated scf accuracy    <       0.00004906 Ry

     total magnetization       =     1.85 Bohr mag/cell
     absolute magnetization    =     2.85 Bohr mag/cell

     iteration # 72     ecut=    70.00 Ry     beta= 0.30
     Davidson diagonalization with overlap
     ethr =  1.12E-08,  avg # of iterations =  2.0

     negative rho (up, down):  6.169E-04 1.841E-02

     total cpu time spent up to now is     7531.7 secs

     total energy              =    -860.04910856 Ry
     Harris-Foulkes estimate   =    -860.04910571 Ry
     estimated scf accuracy    <       0.00006645 Ry

     total magnetization       =     1.85 Bohr mag/cell
     absolute magnetization    =     2.86 Bohr mag/cell

     iteration # 73     ecut=    70.00 Ry     beta= 0.30
     Davidson diagonalization with overlap
     ethr =  1.12E-08,  avg # of iterations =  2.0

     negative rho (up, down):  6.175E-04 1.809E-02

     total cpu time spent up to now is     7624.5 secs

     total energy              =    -860.04910990 Ry
     Harris-Foulkes estimate   =    -860.04911114 Ry
     estimated scf accuracy    <       0.00002213 Ry

     total magnetization       =     1.85 Bohr mag/cell
     absolute magnetization    =     2.88 Bohr mag/cell

     iteration # 74     ecut=    70.00 Ry     beta= 0.30
     Davidson diagonalization with overlap
     ethr =  1.03E-08,  avg # of iterations =  2.0

     negative rho (up, down):  6.171E-04 1.643E-02

     total cpu time spent up to now is     7717.3 secs

     total energy              =    -860.04911871 Ry
     Harris-Foulkes estimate   =    -860.04911116 Ry
     estimated scf accuracy    <       0.00003836 Ry

     total magnetization       =     1.85 Bohr mag/cell
     absolute magnetization    =     2.87 Bohr mag/cell

     iteration # 75     ecut=    70.00 Ry     beta= 0.30
     Davidson diagonalization with overlap
     ethr =  1.03E-08,  avg # of iterations =  2.0

     negative rho (up, down):  6.155E-04 1.717E-02

     total cpu time spent up to now is     7817.8 secs

     total energy              =    -860.04912109 Ry
     Harris-Foulkes estimate   =    -860.04912313 Ry
     estimated scf accuracy    <       0.00003125 Ry

     total magnetization       =     1.86 Bohr mag/cell
     absolute magnetization    =     2.88 Bohr mag/cell

     iteration # 76     ecut=    70.00 Ry     beta= 0.30
     Davidson diagonalization with overlap
     ethr =  1.03E-08,  avg # of iterations =  2.0

     negative rho (up, down):  6.144E-04 1.910E-02

     total cpu time spent up to now is     7909.8 secs

     total energy              =    -860.04910902 Ry
     Harris-Foulkes estimate   =    -860.04912226 Ry
     estimated scf accuracy    <       0.00002199 Ry

     total magnetization       =     1.86 Bohr mag/cell
     absolute magnetization    =     2.89 Bohr mag/cell

     iteration # 77     ecut=    70.00 Ry     beta= 0.30
     Davidson diagonalization with overlap
     ethr =  1.03E-08,  avg # of iterations =  2.0

     negative rho (up, down):  6.127E-04 1.908E-02

     total cpu time spent up to now is     8009.5 secs

     total energy              =    -860.04911148 Ry
     Harris-Foulkes estimate   =    -860.04911373 Ry
     estimated scf accuracy    <       0.00002553 Ry

     total magnetization       =     1.86 Bohr mag/cell
     absolute magnetization    =     2.89 Bohr mag/cell

     iteration # 78     ecut=    70.00 Ry     beta= 0.30
     Davidson diagonalization with overlap
     ethr =  1.03E-08,  avg # of iterations =  2.0

     negative rho (up, down):  6.108E-04 1.848E-02

     total cpu time spent up to now is     8105.1 secs

     total energy              =    -860.04910435 Ry
     Harris-Foulkes estimate   =    -860.04911444 Ry
     estimated scf accuracy    <       0.00002240 Ry

     total magnetization       =     1.86 Bohr mag/cell
     absolute magnetization    =     2.90 Bohr mag/cell

     iteration # 79     ecut=    70.00 Ry     beta= 0.30
     Davidson diagonalization with overlap
     ethr =  1.03E-08,  avg # of iterations =  3.0

     negative rho (up, down):  6.130E-04 1.669E-02

     total cpu time spent up to now is     8217.5 secs

     total energy              =    -860.04911199 Ry
     Harris-Foulkes estimate   =    -860.04911938 Ry
     estimated scf accuracy    <       0.00007795 Ry

     total magnetization       =     1.85 Bohr mag/cell
     absolute magnetization    =     2.94 Bohr mag/cell

     iteration # 80     ecut=    70.00 Ry     beta= 0.30
     Davidson diagonalization with overlap
     ethr =  1.03E-08,  avg # of iterations =  3.0

     negative rho (up, down):  6.159E-04 1.486E-02

     Magnetic moment per site:
     atom:    1    charge:    0.2109    magn:    0.0010    constr:    0.0000
     atom:    2    charge:    0.2117    magn:    0.0013    constr:    0.0000
     atom:    3    charge:    1.7171    magn:   -0.0118    constr:    0.0000
     atom:    4    charge:    1.7155    magn:    0.0152    constr:    0.0000
     atom:    5    charge:    1.7175    magn:   -0.0088    constr:    0.0000
     atom:    6    charge:    1.7143    magn:    0.0057    constr:    0.0000
     atom:    7    charge:    1.7175    magn:   -0.0086    constr:    0.0000
     atom:    8    charge:    1.7157    magn:    0.0141    constr:    0.0000
     atom:    9    charge:    1.7169    magn:   -0.0115    constr:    0.0000
     atom:   10    charge:    1.7154    magn:    0.0495    constr:    0.0000
     atom:   11    charge:    1.7169    magn:   -0.0126    constr:    0.0000
     atom:   12    charge:    1.7149    magn:    0.0538    constr:    0.0000
     atom:   13    charge:    1.7169    magn:   -0.0138    constr:    0.0000
     atom:   14    charge:    1.7158    magn:    0.0406    constr:    0.0000
     atom:   15    charge:    1.7137    magn:   -0.0098    constr:    0.0000
     atom:   16    charge:    1.7112    magn:    0.0546    constr:    0.0000
     atom:   17    charge:    1.7231    magn:   -0.0171    constr:    0.0000
     atom:   18    charge:    1.7113    magn:    0.0547    constr:    0.0000
     atom:   19    charge:    1.7137    magn:   -0.0100    constr:    0.0000
     atom:   20    charge:    1.7155    magn:    0.0432    constr:    0.0000
     atom:   21    charge:    1.7168    magn:   -0.0136    constr:    0.0000
     atom:   22    charge:    1.7174    magn:    0.0353    constr:    0.0000
     atom:   23    charge:    1.7161    magn:   -0.0093    constr:    0.0000
     atom:   24    charge:    1.7158    magn:    0.0120    constr:    0.0000
     atom:   25    charge:    1.7135    magn:   -0.0108    constr:    0.0000
     atom:   26    charge:    1.7128    magn:    0.0395    constr:    0.0000
     atom:   27    charge:    1.8528    magn:   -0.0207    constr:    0.0000
     atom:   28    charge:   11.1530    magn:    0.5145    constr:    0.0000
     atom:   29    charge:    1.8530    magn:   -0.0201    constr:    0.0000
     atom:   30    charge:    1.7124    magn:    0.0432    constr:    0.0000
     atom:   31    charge:    1.7137    magn:   -0.0111    constr:    0.0000
     atom:   32    charge:    1.7159    magn:    0.0114    constr:    0.0000
     atom:   33    charge:    1.7173    magn:   -0.0084    constr:    0.0000
     atom:   34    charge:    1.7146    magn:    0.0096    constr:    0.0000
     atom:   35    charge:    1.7173    magn:   -0.0085    constr:    0.0000
     atom:   36    charge:    1.7144    magn:    0.0044    constr:    0.0000
     atom:   37    charge:    1.7214    magn:   -0.0103    constr:    0.0000
     atom:   38    charge:    1.7140    magn:    0.0295    constr:    0.0000
     atom:   39    charge:    1.8513    magn:   -0.0139    constr:    0.0000
     atom:   40    charge:    1.7135    magn:    0.0329    constr:    0.0000
     atom:   41    charge:    1.7216    magn:   -0.0107    constr:    0.0000
     atom:   42    charge:    1.7144    magn:    0.0043    constr:    0.0000
     atom:   43    charge:    1.7174    magn:   -0.0074    constr:    0.0000
     atom:   44    charge:    1.7143    magn:    0.0118    constr:    0.0000
     atom:   45    charge:    1.7227    magn:   -0.0113    constr:    0.0000
     atom:   46    charge:    1.7144    magn:    0.0110    constr:    0.0000
     atom:   47    charge:    1.7174    magn:   -0.0072    constr:    0.0000
     atom:   48    charge:    1.7152    magn:    0.0164    constr:    0.0000
     atom:   49    charge:    1.7128    magn:   -0.0070    constr:    0.0000
     atom:   50    charge:    1.7179    magn:    0.0216    constr:    0.0000
     atom:   51    charge:    1.7128    magn:   -0.0070    constr:    0.0000
     atom:   52    charge:    1.7151    magn:    0.0171    constr:    0.0000

     total cpu time spent up to now is     8315.4 secs

     End of self-consistent calculation

 ------ SPIN UP ------------


          k = 0.0000 0.0000 0.0000 ( 87777 PWs)   bands (ev):

   -88.9983 -55.9112 -55.7588 -54.2911 -19.8155 -18.9998 -18.9583 -18.8851
   -18.8782 -18.8696 -18.5518 -17.1343 -17.1100 -17.1045 -17.0500 -17.0359
   -16.7332 -16.2723 -16.2683 -16.1623 -16.1273 -16.1235 -15.4566 -14.1981
   -14.1593 -14.0925 -14.0343 -14.0285 -13.3939 -13.1127 -13.0985 -13.0747
   -12.8095 -12.8082 -12.3853 -11.8962 -11.8953 -11.6961 -11.4601 -11.4559
   -10.5960  -9.7909  -9.7811  -9.4839  -9.3567  -9.3519  -9.2641  -9.2353
    -9.2334  -9.2221  -8.7758  -8.7743  -8.2643  -8.2589  -8.1415  -7.9750
    -7.8757  -7.4848  -7.4770  -7.3241  -7.2360  -7.2292  -7.0495  -7.0488
    -6.9021  -6.8660  -6.8483  -6.7888  -6.7623  -6.6062  -6.5925  -6.5745
    -6.5695  -6.5554  -6.5184  -6.3064  -5.7694  -5.7219  -5.7169  -5.7005
    -5.4422  -5.4377  -5.3992  -5.0244  -4.9256  -4.7868  -4.7501  -4.7391
    -4.5480  -4.5277  -4.4279  -4.2978  -4.2735  -3.9043  -3.8999  -3.8133
    -3.7245  -3.7228  -3.1793  -2.9155  -2.8810  -1.9093  -1.8418  -1.8354
    -1.5384  -1.3130  -1.1875  -0.8982   0.8830   0.9308   0.9363   1.4238
     1.4504   1.5669   2.2394   2.2523   2.5397   2.7352   2.7430   2.8281
     3.3001   3.3278   3.4405   3.5451   3.6749   3.7469   3.7619   3.7679

     occupation numbers 
     1.0000   1.0000   1.0000   1.0000   1.0000   1.0000   1.0000   1.0000
     1.0000   1.0000   1.0000   1.0000   1.0000   1.0000   1.0000   1.0000
     1.0000   1.0000   1.0000   1.0000   1.0000   1.0000   1.0000   1.0000
     1.0000   1.0000   1.0000   1.0000   1.0000   1.0000   1.0000   1.0000
     1.0000   1.0000   1.0000   1.0000   1.0000   1.0000   1.0000   1.0000
     1.0000   1.0000   1.0000   1.0000   1.0000   1.0000   1.0000   1.0000
     1.0000   1.0000   1.0000   1.0000   1.0000   1.0000   1.0000   1.0000
     1.0000   1.0000   1.0000   1.0000   1.0000   1.0000   1.0000   1.0000
     1.0000   1.0000   1.0000   1.0000   1.0000   1.0000   1.0000   1.0000
     1.0000   1.0000   1.0000   1.0000   1.0000   1.0000   1.0000   1.0000
     1.0000   1.0000   1.0000   1.0000   1.0000   1.0000   1.0000   1.0000
     1.0000   1.0000   1.0000   1.0000   1.0000   1.0000   1.0000   1.0000
     1.0000   1.0000   1.0000   1.0000   1.0000   1.0000   1.0000   1.0000
     1.0000   1.0000   1.0000   0.9306   0.0000   0.0000   0.0000   0.0000
     0.0000   0.0000   0.0000   0.0000   0.0000   0.0000   0.0000   0.0000
     0.0000   0.0000   0.0000   0.0000   0.0000   0.0000   0.0000   0.0000

 ------ SPIN DOWN ----------


          k = 0.0000 0.0000 0.0000 ( 87777 PWs)   bands (ev):

   -88.1739 -55.1894 -55.1526 -53.2461 -19.7837 -18.9566 -18.9234 -18.8634
   -18.8544 -18.8520 -18.5067 -17.1001 -17.0877 -17.0825 -17.0074 -16.9969
   -16.7108 -16.2346 -16.2342 -16.1407 -16.0928 -16.0908 -15.4352 -14.1328
   -14.1106 -14.0477 -14.0262 -14.0189 -13.4049 -13.0883 -13.0805 -13.0513
   -12.7945 -12.7915 -12.3592 -11.8661 -11.8625 -11.6793 -11.4402 -11.4394
   -10.5719  -9.7353  -9.7314  -9.4581  -9.3299  -9.3293  -9.2504  -9.2176
    -9.2167  -9.2097  -8.7637  -8.7630  -8.2251  -8.2185  -8.1170  -7.9021
    -7.8622  -7.4738  -7.4655  -7.2857  -7.1096  -7.0754  -6.9997  -6.9964
    -6.8181  -6.8131  -6.8032  -6.7500  -6.7439  -6.5922  -6.5797  -6.5659
    -6.5597  -6.5461  -6.5046  -6.2359  -5.6689  -5.6603  -5.5201  -5.5000
    -5.4002  -5.3950  -5.2331  -5.0126  -4.9191  -4.7197  -4.6860  -4.6810
    -4.4621  -4.4472  -4.3729  -4.1831  -4.1812  -3.8021  -3.7995  -3.7535
    -3.7120  -3.7096  -3.1396  -2.6982  -2.6856  -1.8206  -1.8168  -1.7901
    -0.9506  -0.9108  -0.8552  -0.7939   0.9646   0.9703   0.9997   1.5655
     1.5673   1.6668   2.4195   2.4342   2.5498   2.8425   2.8446   2.8757
     3.4156   3.4543   3.5036   3.5983   3.6881   3.7513   3.7662   3.7710

     occupation numbers 
     1.0000   1.0000   1.0000   1.0000   1.0000   1.0000   1.0000   1.0000
     1.0000   1.0000   1.0000   1.0000   1.0000   1.0000   1.0000   1.0000
     1.0000   1.0000   1.0000   1.0000   1.0000   1.0000   1.0000   1.0000
     1.0000   1.0000   1.0000   1.0000   1.0000   1.0000   1.0000   1.0000
     1.0000   1.0000   1.0000   1.0000   1.0000   1.0000   1.0000   1.0000
     1.0000   1.0000   1.0000   1.0000   1.0000   1.0000   1.0000   1.0000
     1.0000   1.0000   1.0000   1.0000   1.0000   1.0000   1.0000   1.0000
     1.0000   1.0000   1.0000   1.0000   1.0000   1.0000   1.0000   1.0000
     1.0000   1.0000   1.0000   1.0000   1.0000   1.0000   1.0000   1.0000
     1.0000   1.0000   1.0000   1.0000   1.0000   1.0000   1.0000   1.0000
     1.0000   1.0000   1.0000   1.0000   1.0000   1.0000   1.0000   1.0000
     1.0000   1.0000   1.0000   1.0000   1.0000   1.0000   1.0000   1.0000
     1.0000   1.0000   1.0000   1.0000   1.0000   1.0000   1.0000   1.0000
     1.0000   1.0694   0.0000   0.0000   0.0000   0.0000   0.0000   0.0000
     0.0000   0.0000   0.0000   0.0000   0.0000   0.0000   0.0000   0.0000
     0.0000   0.0000   0.0000   0.0000   0.0000   0.0000   0.0000   0.0000

     the Fermi energy is    -0.8878 ev

!    total energy              =    -860.04912575 Ry
     Harris-Foulkes estimate   =    -860.04911888 Ry
     estimated scf accuracy    <       0.00000672 Ry

     The total energy is the sum of the following terms:

     one-electron contribution =   -2802.25440522 Ry
     hartree contribution      =    1445.17498817 Ry
     xc contribution           =    -259.35807370 Ry
     ewald contribution        =     756.38819290 Ry
     smearing contrib. (-TS)   =       0.00017210 Ry

     total magnetization       =     1.86 Bohr mag/cell
     absolute magnetization    =     2.92 Bohr mag/cell

     convergence has been achieved in  80 iterations

     Writing output data file hierro-bridge-distance-2.8.save/

     init_run     :     71.24s CPU     74.02s WALL (       1 calls)
     electrons    :   8079.05s CPU   8240.37s WALL (       1 calls)

     Called by init_run:
     wfcinit      :     40.78s CPU     41.04s WALL (       1 calls)
     wfcinit:atom :      0.05s CPU      0.09s WALL (       2 calls)
     wfcinit:wfcr :     40.38s CPU     40.55s WALL (       2 calls)
     potinit      :     12.88s CPU     14.29s WALL (       1 calls)
     hinit0       :      8.70s CPU      8.76s WALL (       1 calls)

     Called by electrons:
     c_bands      :   5010.59s CPU   5036.57s WALL (      80 calls)
     sum_band     :   1793.63s CPU   1846.41s WALL (      80 calls)
     v_of_rho     :    608.17s CPU    644.24s WALL (      81 calls)
     v_h          :      6.81s CPU      7.05s WALL (      81 calls)
     v_xc         :    601.36s CPU    637.18s WALL (      81 calls)
     newd         :    626.27s CPU    673.98s WALL (      81 calls)
     mix_rho      :     33.61s CPU     34.20s WALL (      80 calls)

     Called by c_bands:
     init_us_2    :     15.20s CPU     15.25s WALL (     322 calls)
     cegterg      :   4969.39s CPU   4995.25s WALL (     160 calls)

     Called by sum_band:
     sum_band:bec :      0.13s CPU      0.13s WALL (     160 calls)
     addusdens    :   1119.81s CPU   1168.76s WALL (      80 calls)

     Called by *egterg:
     h_psi        :   2615.37s CPU   2634.21s WALL (     543 calls)
     s_psi        :    865.77s CPU    866.06s WALL (     543 calls)
     g_psi        :      2.76s CPU      2.77s WALL (     381 calls)
     cdiaghg      :     34.77s CPU     34.80s WALL (     541 calls)
     cegterg:over :    587.55s CPU    587.72s WALL (     381 calls)
     cegterg:upda :    350.10s CPU    351.81s WALL (     381 calls)
     cegterg:last :    270.68s CPU    270.73s WALL (     160 calls)

     Called by h_psi:
     h_psi:pot    :   2612.17s CPU   2627.52s WALL (     543 calls)
     h_psi:calbec :    865.61s CPU    865.91s WALL (     543 calls)
     vloc_psi     :    879.80s CPU    894.67s WALL (     543 calls)
     add_vuspsi   :    866.75s CPU    866.94s WALL (     543 calls)

     General routines
     calbec       :   1256.61s CPU   1257.03s WALL (     703 calls)
     fft          :    371.85s CPU    385.25s WALL (    6069 calls)
     ffts         :      6.18s CPU      6.39s WALL (     322 calls)
     fftw         :    946.74s CPU    963.16s WALL (  111376 calls)
     interpolate  :     14.85s CPU     15.27s WALL (     162 calls)

     Parallel routines
     fft_scatt_xy :    240.33s CPU    243.06s WALL (  117767 calls)
     fft_scatt_yz :    441.46s CPU    462.70s WALL (  117767 calls)

     PWSCF        :      2h15m CPU      2h18m WALL


   This run was terminated on:  16:38:31  30Jan2023            

=------------------------------------------------------------------------------=
   JOB DONE.
=------------------------------------------------------------------------------=
