
     Program PWSCF v.6.4.1 starts on 25Jul2022 at 11:12:49 

     This program is part of the open-source Quantum ESPRESSO suite
     for quantum simulation of materials; please cite
         "P. Giannozzi et al., J. Phys.:Condens. Matter 21 395502 (2009);
         "P. Giannozzi et al., J. Phys.:Condens. Matter 29 465901 (2017);
          URL http://www.quantum-espresso.org", 
     in publications or presentations arising from this work. More details at
     http://www.quantum-espresso.org/quote

     Parallel version (MPI), running on     6 processors

     MPI processes distributed on     1 nodes
     R & G space division:  proc/nbgrp/npool/nimage =       6
     Reading input from distance-4.5.in

     Current dimensions of program PWSCF are:
     Max number of different atomic species (ntypx) = 10
     Max number of k-points (npk) =  40000
     Max angular momentum in pseudopotentials (lmaxx) =  3

     IMPORTANT: XC functional enforced from input :
     Exchange-correlation      = RVV10 ( 1  4 13  4 3 0)
     Any further DFT definition will be discarded
     Please, verify this is what you really want

               file H.pbe-rrkjus.UPF: wavefunction(s)  1S renormalized
               file Cu.pbe-dn-rrkjus_psl.1.0.0.UPF: wavefunction(s)  3D renormalized

     Subspace diagonalization in iterative solution of the eigenvalue problem:
     a serial algorithm will be used


     Parallelization info
     --------------------
     sticks:   dense  smooth     PW     G-vecs:    dense   smooth      PW
     Min        3051    1746    432               270999   117096   14629
     Max        3053    1747    437               271001   117099   14630
     Sum       18313   10477   2611              1626001   702581   87777



     bravais-lattice index     =            4
     lattice parameter (alat)  =      23.2937  a.u.
     unit-cell volume          =    8879.8548 (a.u.)^3
     number of atoms/cell      =           52
     number of atomic types    =            3
     number of electrons       =       209.00
     number of Kohn-Sham states=          126
     kinetic-energy cutoff     =      70.0000  Ry
     charge density cutoff     =     490.0000  Ry
     convergence threshold     =      1.0E-06
     mixing beta               =       0.7000
     number of iterations used =            8  plain     mixing
     Exchange-correlation      = RVV10 ( 1  4 13  4 3 0)

     celldm(1)=  23.293684  celldm(2)=   0.000000  celldm(3)=   0.811261
     celldm(4)=   0.000000  celldm(5)=   0.000000  celldm(6)=   0.000000

     crystal axes: (cart. coord. in units of alat)
               a(1) = (   1.000000   0.000000   0.000000 )  
               a(2) = (  -0.500000   0.866025   0.000000 )  
               a(3) = (   0.000000   0.000000   0.811261 )  

     reciprocal axes: (cart. coord. in units 2 pi/alat)
               b(1) = (  1.000000  0.577350 -0.000000 )  
               b(2) = (  0.000000  1.154701  0.000000 )  
               b(3) = (  0.000000 -0.000000  1.232649 )  


     PseudoPot. # 1 for H  read from file:
     /home/cristian/Escritorio/Proyecto_Grafeno/pseudopotenciales/H.pbe-rrkjus.UPF
     MD5 check sum: 7cc9d459525c9a0585f487a71c3c9563
     Pseudo is Ultrasoft, Zval =  1.0
     Generated by new atomic code, or converted to UPF format
     Using radial grid of 1061 points,  2 beta functions with: 
                l(1) =   0
                l(2) =   0
     Q(r) pseudized with 0 coefficients 


     PseudoPot. # 2 for C  read from file:
     /home/cristian/Escritorio/Proyecto_Grafeno/pseudopotenciales/C.pbe-n-rrkjus_psl.1.0.0.UPF
     MD5 check sum: 1fdd950c42eb37d8afe3dd2f8d12311e
     Pseudo is Ultrasoft + core correction, Zval =  4.0
     Generated using "atomic" code by A. Dal Corso v.6.3MaX
     Using radial grid of 1073 points,  4 beta functions with: 
                l(1) =   0
                l(2) =   0
                l(3) =   1
                l(4) =   1
     Q(r) pseudized with 0 coefficients 


     PseudoPot. # 3 for Cu read from file:
     /home/cristian/Escritorio/Proyecto_Grafeno/pseudopotenciales/Cu.pbe-dn-rrkjus_psl.1.0.0.UPF
     MD5 check sum: ba3d6c84e19846e79d48cdc68ff7152b
     Pseudo is Ultrasoft + core correction, Zval = 11.0
     Generated using "atomic" code by A. Dal Corso v.6.3
     Using radial grid of 1199 points,  6 beta functions with: 
                l(1) =   0
                l(2) =   0
                l(3) =   1
                l(4) =   1
                l(5) =   2
                l(6) =   2
     Q(r) pseudized with 0 coefficients 


     vdW kernel table read from file rVV10_kernel_table
     MD5 check sum: b8e2538accc0c0b3206b45ba4daaba6c

     atomic species   valence    mass     pseudopotential
        H              1.00     1.00794     H ( 1.00)
        C              4.00    12.01070     C ( 1.00)
        Cu            11.00    63.54600     Cu( 1.00)

     No symmetry found


                                    s                        frac. trans.

      isym =  1     identity                                     

 cryst.   s( 1) = (     1          0          0      )
                  (     0          1          0      )
                  (     0          0          1      )

 cart.    s( 1) = (  1.0000000  0.0000000  0.0000000 )
                  (  0.0000000  1.0000000  0.0000000 )
                  (  0.0000000  0.0000000  1.0000000 )


     point group C_1 (1)    
     there are  1 classes
     the character table:

       E    
A      1.00

     the symmetry operations in each class and the name of the first element:

     E        1
          identity                                               

   Cartesian axes

     site n.     atom                  positions (alat units)
         1           H   tau(   1) = (   0.1694937   0.4618802   0.3650675  )
         2           H   tau(   2) = (   0.2305063   0.4618802   0.3650675  )
         3           C   tau(   3) = (   0.0000000   0.0000000   0.0000000  )
         4           C   tau(   4) = (   0.0000000   0.1154701   0.0000000  )
         5           C   tau(   5) = (  -0.1000000   0.1732051   0.0000000  )
         6           C   tau(   6) = (  -0.1000000   0.2886751   0.0000000  )
         7           C   tau(   7) = (  -0.2000000   0.3464102   0.0000000  )
         8           C   tau(   8) = (  -0.2000000   0.4618802   0.0000000  )
         9           C   tau(   9) = (  -0.3000000   0.5196152   0.0000000  )
        10           C   tau(  10) = (  -0.3000000   0.6350853   0.0000000  )
        11           C   tau(  11) = (  -0.4000000   0.6928203   0.0000000  )
        12           C   tau(  12) = (  -0.4000000   0.8082904   0.0000000  )
        13           C   tau(  13) = (   0.2000000   0.0000000   0.0000000  )
        14           C   tau(  14) = (   0.2000000   0.1154701   0.0000000  )
        15           C   tau(  15) = (   0.1000000   0.1732051   0.0000000  )
        16           C   tau(  16) = (   0.1000000   0.2886751   0.0000000  )
        17           C   tau(  17) = (   0.0000000   0.3464102   0.0000000  )
        18           C   tau(  18) = (   0.0000000   0.4618802   0.0000000  )
        19           C   tau(  19) = (  -0.1000000   0.5196152   0.0000000  )
        20           C   tau(  20) = (  -0.1000000   0.6350853   0.0000000  )
        21           C   tau(  21) = (  -0.2000000   0.6928203   0.0000000  )
        22           C   tau(  22) = (  -0.2000000   0.8082904   0.0000000  )
        23           C   tau(  23) = (   0.4000000   0.0000000   0.0000000  )
        24           C   tau(  24) = (   0.4000000   0.1154701   0.0000000  )
        25           C   tau(  25) = (   0.3000000   0.1732051   0.0000000  )
        26           C   tau(  26) = (   0.3000000   0.2886751   0.0000000  )
        27           C   tau(  27) = (   0.2000000   0.3464102   0.0000000  )
        28           Cu  tau(  28) = (   0.2000000   0.4618802   0.0000000  )
        29           C   tau(  29) = (   0.1000000   0.5196152   0.0000000  )
        30           C   tau(  30) = (   0.1000000   0.6350853   0.0000000  )
        31           C   tau(  31) = (   0.0000000   0.6928203   0.0000000  )
        32           C   tau(  32) = (   0.0000000   0.8082904   0.0000000  )
        33           C   tau(  33) = (   0.6000000   0.0000000   0.0000000  )
        34           C   tau(  34) = (   0.6000000   0.1154701   0.0000000  )
        35           C   tau(  35) = (   0.5000000   0.1732051   0.0000000  )
        36           C   tau(  36) = (   0.5000000   0.2886751   0.0000000  )
        37           C   tau(  37) = (   0.4000000   0.3464102   0.0000000  )
        38           C   tau(  38) = (   0.4000000   0.4618802   0.0000000  )
        39           C   tau(  39) = (   0.3000000   0.5196152   0.0000000  )
        40           C   tau(  40) = (   0.3000000   0.6350853   0.0000000  )
        41           C   tau(  41) = (   0.2000000   0.6928203   0.0000000  )
        42           C   tau(  42) = (   0.2000000   0.8082904   0.0000000  )
        43           C   tau(  43) = (   0.8000000   0.0000000   0.0000000  )
        44           C   tau(  44) = (   0.8000000   0.1154701   0.0000000  )
        45           C   tau(  45) = (   0.7000000   0.1732051   0.0000000  )
        46           C   tau(  46) = (   0.7000000   0.2886751   0.0000000  )
        47           C   tau(  47) = (   0.6000000   0.3464102   0.0000000  )
        48           C   tau(  48) = (   0.6000000   0.4618802   0.0000000  )
        49           C   tau(  49) = (   0.5000000   0.5196152   0.0000000  )
        50           C   tau(  50) = (   0.5000000   0.6350853   0.0000000  )
        51           C   tau(  51) = (   0.4000000   0.6928203   0.0000000  )
        52           C   tau(  52) = (   0.4000000   0.8082904   0.0000000  )

   Crystallographic axes

     site n.     atom                  positions (cryst. coord.)
         1           H   tau(   1) = (  0.4361603  0.5333333  0.4500000  )
         2           H   tau(   2) = (  0.4971730  0.5333333  0.4500000  )
         3           C   tau(   3) = (  0.0000000  0.0000000  0.0000000  )
         4           C   tau(   4) = (  0.0666667  0.1333333  0.0000000  )
         5           C   tau(   5) = (  0.0000000  0.2000000  0.0000000  )
         6           C   tau(   6) = (  0.0666667  0.3333333  0.0000000  )
         7           C   tau(   7) = (  0.0000000  0.4000000  0.0000000  )
         8           C   tau(   8) = (  0.0666667  0.5333333  0.0000000  )
         9           C   tau(   9) = (  0.0000000  0.6000000  0.0000000  )
        10           C   tau(  10) = (  0.0666667  0.7333333  0.0000000  )
        11           C   tau(  11) = (  0.0000000  0.8000000  0.0000000  )
        12           C   tau(  12) = (  0.0666667  0.9333333  0.0000000  )
        13           C   tau(  13) = (  0.2000000  0.0000000  0.0000000  )
        14           C   tau(  14) = (  0.2666667  0.1333333  0.0000000  )
        15           C   tau(  15) = (  0.2000000  0.2000000  0.0000000  )
        16           C   tau(  16) = (  0.2666667  0.3333333  0.0000000  )
        17           C   tau(  17) = (  0.2000000  0.4000000  0.0000000  )
        18           C   tau(  18) = (  0.2666667  0.5333333  0.0000000  )
        19           C   tau(  19) = (  0.2000000  0.6000000  0.0000000  )
        20           C   tau(  20) = (  0.2666667  0.7333333  0.0000000  )
        21           C   tau(  21) = (  0.2000000  0.8000000  0.0000000  )
        22           C   tau(  22) = (  0.2666667  0.9333333  0.0000000  )
        23           C   tau(  23) = (  0.4000000  0.0000000  0.0000000  )
        24           C   tau(  24) = (  0.4666667  0.1333333  0.0000000  )
        25           C   tau(  25) = (  0.4000000  0.2000000  0.0000000  )
        26           C   tau(  26) = (  0.4666667  0.3333333  0.0000000  )
        27           C   tau(  27) = (  0.4000000  0.4000000  0.0000000  )
        28           Cu  tau(  28) = (  0.4666667  0.5333333  0.0000000  )
        29           C   tau(  29) = (  0.4000000  0.6000000  0.0000000  )
        30           C   tau(  30) = (  0.4666667  0.7333333  0.0000000  )
        31           C   tau(  31) = (  0.4000000  0.8000000  0.0000000  )
        32           C   tau(  32) = (  0.4666667  0.9333333  0.0000000  )
        33           C   tau(  33) = (  0.6000000  0.0000000  0.0000000  )
        34           C   tau(  34) = (  0.6666667  0.1333333  0.0000000  )
        35           C   tau(  35) = (  0.6000000  0.2000000  0.0000000  )
        36           C   tau(  36) = (  0.6666667  0.3333333  0.0000000  )
        37           C   tau(  37) = (  0.6000000  0.4000000  0.0000000  )
        38           C   tau(  38) = (  0.6666667  0.5333333  0.0000000  )
        39           C   tau(  39) = (  0.6000000  0.6000000  0.0000000  )
        40           C   tau(  40) = (  0.6666667  0.7333333  0.0000000  )
        41           C   tau(  41) = (  0.6000000  0.8000000  0.0000000  )
        42           C   tau(  42) = (  0.6666667  0.9333333  0.0000000  )
        43           C   tau(  43) = (  0.8000000  0.0000000  0.0000000  )
        44           C   tau(  44) = (  0.8666667  0.1333333  0.0000000  )
        45           C   tau(  45) = (  0.8000000  0.2000000  0.0000000  )
        46           C   tau(  46) = (  0.8666667  0.3333333  0.0000000  )
        47           C   tau(  47) = (  0.8000000  0.4000000  0.0000000  )
        48           C   tau(  48) = (  0.8666667  0.5333333  0.0000000  )
        49           C   tau(  49) = (  0.8000000  0.6000000  0.0000000  )
        50           C   tau(  50) = (  0.8666667  0.7333333  0.0000000  )
        51           C   tau(  51) = (  0.8000000  0.8000000  0.0000000  )
        52           C   tau(  52) = (  0.8666667  0.9333333  0.0000000  )

     number of k points=     1  Marzari-Vanderbilt smearing, width (Ry)=  0.0010
                       cart. coord. in units 2pi/alat
        k(    1) = (   0.0000000   0.0000000   0.0000000), wk =   2.0000000

                       cryst. coord.
        k(    1) = (   0.0000000   0.0000000   0.0000000), wk =   2.0000000

     Dense  grid:  1626001 G-vectors     FFT dimensions: ( 180, 180, 135)

     Smooth grid:   702581 G-vectors     FFT dimensions: ( 125, 125, 108)

     Dynamical RAM for                 wfc:      28.14 MB

     Dynamical RAM for     wfc (w. buffer):      28.14 MB

     Dynamical RAM for           str. fact:      12.41 MB

     Dynamical RAM for           local pot:       0.00 MB

     Dynamical RAM for          nlocal pot:      92.46 MB

     Dynamical RAM for                qrad:      19.73 MB

     Dynamical RAM for          rho,v,vnew:      29.46 MB

     Dynamical RAM for               rhoin:       9.82 MB

     Dynamical RAM for            rho*nmix:      66.16 MB

     Dynamical RAM for           G-vectors:      16.40 MB

     Dynamical RAM for          h,s,v(r/c):      11.63 MB

     Dynamical RAM for          <psi|beta>:       0.80 MB

     Dynamical RAM for                 psi:     112.56 MB

     Dynamical RAM for                hpsi:     112.56 MB

     Dynamical RAM for                spsi:     112.56 MB

     Dynamical RAM for      wfcinit/wfcrot:      93.45 MB

     Dynamical RAM for           addusdens:     971.75 MB

     Estimated static dynamical RAM per process >     319.55 MB

     Estimated max dynamical RAM per process >       1.26 GB

     Estimated total dynamical RAM >       7.57 GB

     Check: negative core charge=   -0.000002

     Initial potential from superposition of free atoms

     starting charge  208.80532, renormalised to  209.00000

     negative rho (up, down):  5.424E-05 0.000E+00


---------------------------------------------------------------------------------
Carrying out rVV10 run using the following parameters:
Nqs =      20    Nr_points =    1024   r_max =   100.000
b_value =  6.30000    beta =  0.00901
     q_mesh =  0.00010000  0.00030000  0.00058939  0.00100810
               0.00161396  0.00249058  0.00375900  0.00559430
               0.00824984  0.01209221  0.01765183  0.02569619
               0.03733578  0.05417739  0.07854596  0.11380545
               0.16482331  0.23864234  0.34545298  0.50000000

Gradients computed in Reciprocal space

---------------------------------------------------------------------------------


     Starting wfcs are  207 randomized atomic wfcs

     total cpu time spent up to now is       53.0 secs

     Self-consistent Calculation

     iteration #  1     ecut=    70.00 Ry     beta= 0.70
     Davidson diagonalization with overlap
     ethr =  1.00E-02,  avg # of iterations =  4.0

     negative rho (up, down):  1.082E-04 0.000E+00

     total cpu time spent up to now is      138.6 secs

     total energy              =    -732.14895777 Ry
     Harris-Foulkes estimate   =    -737.64068199 Ry
     estimated scf accuracy    <       8.11050182 Ry

     iteration #  2     ecut=    70.00 Ry     beta= 0.70
     Davidson diagonalization with overlap
     ethr =  3.88E-03,  avg # of iterations =  4.0

     negative rho (up, down):  1.258E-04 0.000E+00

     total cpu time spent up to now is      221.0 secs

     total energy              =    -731.15799428 Ry
     Harris-Foulkes estimate   =    -738.27142975 Ry
     estimated scf accuracy    <      15.59347936 Ry

     iteration #  3     ecut=    70.00 Ry     beta= 0.70
     Davidson diagonalization with overlap
     ethr =  3.88E-03,  avg # of iterations =  4.0

     negative rho (up, down):  1.620E-04 0.000E+00

     total cpu time spent up to now is      293.1 secs

     total energy              =    -732.92431950 Ry
     Harris-Foulkes estimate   =    -736.21237116 Ry
     estimated scf accuracy    <      10.89304890 Ry

     iteration #  4     ecut=    70.00 Ry     beta= 0.70
     Davidson diagonalization with overlap
     ethr =  3.88E-03,  avg # of iterations =  3.0

     negative rho (up, down):  1.855E-04 0.000E+00

     total cpu time spent up to now is      363.6 secs

     total energy              =    -734.15571597 Ry
     Harris-Foulkes estimate   =    -734.97478455 Ry
     estimated scf accuracy    <       3.79333666 Ry

     iteration #  5     ecut=    70.00 Ry     beta= 0.70
     Davidson diagonalization with overlap
     ethr =  1.81E-03,  avg # of iterations =  2.0

     negative rho (up, down):  2.048E-04 0.000E+00

     total cpu time spent up to now is      427.8 secs

     total energy              =    -734.72435028 Ry
     Harris-Foulkes estimate   =    -734.80651834 Ry
     estimated scf accuracy    <       0.26551088 Ry

     iteration #  6     ecut=    70.00 Ry     beta= 0.70
     Davidson diagonalization with overlap
     ethr =  1.27E-04,  avg # of iterations = 10.0

     negative rho (up, down):  2.304E-04 0.000E+00

     total cpu time spent up to now is      505.3 secs

     total energy              =    -734.74699291 Ry
     Harris-Foulkes estimate   =    -734.77293367 Ry
     estimated scf accuracy    <       0.12233127 Ry

     iteration #  7     ecut=    70.00 Ry     beta= 0.70
     Davidson diagonalization with overlap
     ethr =  5.85E-05,  avg # of iterations =  2.0

     negative rho (up, down):  2.652E-04 0.000E+00

     total cpu time spent up to now is      574.4 secs

     total energy              =    -734.75018452 Ry
     Harris-Foulkes estimate   =    -734.77021723 Ry
     estimated scf accuracy    <       0.10816872 Ry

     iteration #  8     ecut=    70.00 Ry     beta= 0.70
     Davidson diagonalization with overlap
     ethr =  5.18E-05,  avg # of iterations =  2.0

     negative rho (up, down):  3.435E-04 0.000E+00

     total cpu time spent up to now is      636.3 secs

     total energy              =    -734.74826775 Ry
     Harris-Foulkes estimate   =    -734.75697212 Ry
     estimated scf accuracy    <       0.04685083 Ry

     iteration #  9     ecut=    70.00 Ry     beta= 0.70
     Davidson diagonalization with overlap
     ethr =  2.24E-05,  avg # of iterations =  3.0

     negative rho (up, down):  3.963E-04 0.000E+00

     total cpu time spent up to now is      700.8 secs

     total energy              =    -734.75079250 Ry
     Harris-Foulkes estimate   =    -734.75562940 Ry
     estimated scf accuracy    <       0.03613284 Ry

     iteration # 10     ecut=    70.00 Ry     beta= 0.70
     Davidson diagonalization with overlap
     ethr =  1.73E-05,  avg # of iterations = 15.0

     negative rho (up, down):  4.735E-04 0.000E+00

     total cpu time spent up to now is      773.2 secs

     total energy              =    -734.75069885 Ry
     Harris-Foulkes estimate   =    -734.75408919 Ry
     estimated scf accuracy    <       0.02963727 Ry

     iteration # 11     ecut=    70.00 Ry     beta= 0.70
     Davidson diagonalization with overlap
     ethr =  1.42E-05,  avg # of iterations =  1.0

     negative rho (up, down):  5.613E-04 0.000E+00

     total cpu time spent up to now is      835.0 secs

     total energy              =    -734.74987714 Ry
     Harris-Foulkes estimate   =    -734.75179881 Ry
     estimated scf accuracy    <       0.02052847 Ry

     iteration # 12     ecut=    70.00 Ry     beta= 0.70
     Davidson diagonalization with overlap
     ethr =  9.82E-06,  avg # of iterations =  1.0

     negative rho (up, down):  5.637E-04 0.000E+00

     total cpu time spent up to now is      893.8 secs

     total energy              =    -734.75070699 Ry
     Harris-Foulkes estimate   =    -734.75147693 Ry
     estimated scf accuracy    <       0.01593604 Ry

     iteration # 13     ecut=    70.00 Ry     beta= 0.70
     Davidson diagonalization with overlap
     ethr =  7.62E-06,  avg # of iterations =  1.0

     negative rho (up, down):  5.813E-04 0.000E+00

     total cpu time spent up to now is      958.6 secs

     total energy              =    -734.75097334 Ry
     Harris-Foulkes estimate   =    -734.75109586 Ry
     estimated scf accuracy    <       0.00077067 Ry

     iteration # 14     ecut=    70.00 Ry     beta= 0.70
     Davidson diagonalization with overlap
     ethr =  3.69E-07,  avg # of iterations =  3.0

     negative rho (up, down):  5.718E-04 0.000E+00

     total cpu time spent up to now is     1028.1 secs

     total energy              =    -734.75098258 Ry
     Harris-Foulkes estimate   =    -734.75107775 Ry
     estimated scf accuracy    <       0.00141177 Ry

     iteration # 15     ecut=    70.00 Ry     beta= 0.70
     Davidson diagonalization with overlap
     ethr =  3.69E-07,  avg # of iterations =  1.0

     negative rho (up, down):  5.691E-04 0.000E+00

     total cpu time spent up to now is     1095.6 secs

     total energy              =    -734.75101925 Ry
     Harris-Foulkes estimate   =    -734.75108095 Ry
     estimated scf accuracy    <       0.00187617 Ry

     iteration # 16     ecut=    70.00 Ry     beta= 0.70
     Davidson diagonalization with overlap
     ethr =  3.69E-07,  avg # of iterations =  1.0

     negative rho (up, down):  5.673E-04 0.000E+00

     total cpu time spent up to now is     1163.2 secs

     total energy              =    -734.75105140 Ry
     Harris-Foulkes estimate   =    -734.75105386 Ry
     estimated scf accuracy    <       0.00003286 Ry

     iteration # 17     ecut=    70.00 Ry     beta= 0.70
     Davidson diagonalization with overlap
     ethr =  1.57E-08,  avg # of iterations =  1.0

     negative rho (up, down):  5.672E-04 0.000E+00

     total cpu time spent up to now is     1230.7 secs

     total energy              =    -734.75105284 Ry
     Harris-Foulkes estimate   =    -734.75105377 Ry
     estimated scf accuracy    <       0.00001751 Ry

     iteration # 18     ecut=    70.00 Ry     beta= 0.70
     Davidson diagonalization with overlap
     ethr =  8.38E-09,  avg # of iterations =  1.0

     negative rho (up, down):  5.671E-04 0.000E+00

     total cpu time spent up to now is     1298.3 secs

     total energy              =    -734.75105317 Ry
     Harris-Foulkes estimate   =    -734.75105348 Ry
     estimated scf accuracy    <       0.00000371 Ry

     iteration # 19     ecut=    70.00 Ry     beta= 0.70
     Davidson diagonalization with overlap
     ethr =  1.78E-09,  avg # of iterations =  1.0

     negative rho (up, down):  5.664E-04 0.000E+00

     total cpu time spent up to now is     1365.5 secs

     End of self-consistent calculation

          k = 0.0000 0.0000 0.0000 ( 87777 PWs)   bands (ev):

   -19.8272 -18.9812 -18.9807 -18.9005 -18.9002 -18.8401 -18.7250 -17.1469
   -17.1468 -17.1239 -17.0768 -17.0766 -16.7919 -16.3087 -16.3087 -16.1717
   -16.1716 -16.1568 -15.7297 -14.3771 -14.3770 -14.1165 -14.0304 -14.0303
   -13.5548 -13.1533 -13.1533 -13.0733 -12.9179 -12.9179 -12.5984 -12.2582
   -12.2579 -11.7038 -11.5907 -11.5906 -11.1332 -10.8735 -10.8733  -9.5019
    -9.3539  -9.3539  -9.2394  -9.2290  -9.2290  -9.2174  -9.0315  -9.0314
    -9.0158  -9.0158  -8.8978  -8.6963  -8.6963  -7.9505  -7.8835  -7.8271
    -7.6387  -7.6386  -7.5253  -7.5252  -6.9115  -6.8416  -6.8410  -6.7963
    -6.7897  -6.7082  -6.7070  -6.6903  -6.6069  -6.6069  -6.5704  -6.5659
    -6.5657  -6.5513  -6.5186  -6.3770  -6.3770  -5.5991  -5.5990  -5.0187
    -4.9519  -4.9021  -4.8754  -4.8752  -4.7596  -4.7242  -4.7240  -4.5353
    -4.5352  -4.4604  -3.8488  -3.8487  -3.8050  -3.8048  -3.7829  -3.6288
    -3.6285  -3.3853  -1.8800  -1.8258  -1.8256  -1.7199  -1.7198  -1.2010
    -0.6341  -0.6340   0.9140   0.9499   0.9502   1.1082   1.1082   1.5052
     2.5420   2.7957   2.7960   2.8395   2.9474   2.9474   3.4120   3.4771
     3.6612   3.8013   3.8046   3.8253   3.9379   4.0425

     occupation numbers 
     1.0000   1.0000   1.0000   1.0000   1.0000   1.0000   1.0000   1.0000
     1.0000   1.0000   1.0000   1.0000   1.0000   1.0000   1.0000   1.0000
     1.0000   1.0000   1.0000   1.0000   1.0000   1.0000   1.0000   1.0000
     1.0000   1.0000   1.0000   1.0000   1.0000   1.0000   1.0000   1.0000
     1.0000   1.0000   1.0000   1.0000   1.0000   1.0000   1.0000   1.0000
     1.0000   1.0000   1.0000   1.0000   1.0000   1.0000   1.0000   1.0000
     1.0000   1.0000   1.0000   1.0000   1.0000   1.0000   1.0000   1.0000
     1.0000   1.0000   1.0000   1.0000   1.0000   1.0000   1.0000   1.0000
     1.0000   1.0000   1.0000   1.0000   1.0000   1.0000   1.0000   1.0000
     1.0000   1.0000   1.0000   1.0000   1.0000   1.0000   1.0000   1.0000
     1.0000   1.0000   1.0000   1.0000   1.0000   1.0000   1.0000   1.0000
     1.0000   1.0000   1.0000   1.0000   1.0000   1.0000   1.0000   1.0000
     1.0000   1.0000   1.0000   1.0000   1.0000   1.0000   1.0000   1.0000
     0.2516   0.2484   0.0000   0.0000   0.0000   0.0000   0.0000   0.0000
     0.0000   0.0000   0.0000   0.0000   0.0000   0.0000   0.0000   0.0000
     0.0000   0.0000   0.0000   0.0000   0.0000   0.0000

     the Fermi energy is    -0.6374 ev

!    total energy              =    -734.75105274 Ry
     Harris-Foulkes estimate   =    -734.75105337 Ry
     estimated scf accuracy    <       0.00000096 Ry

     The total energy is the sum of the following terms:

     one-electron contribution =   -2475.15884178 Ry
     hartree contribution      =    1293.31928253 Ry
     xc contribution           =    -275.90794008 Ry
     ewald contribution        =     722.99706008 Ry
     smearing contrib. (-TS)   =      -0.00061349 Ry

     convergence has been achieved in  19 iterations

     Writing output data file distance-4.5.save/

     init_run     :     50.69s CPU     51.90s WALL (       1 calls)
     electrons    :   1274.35s CPU   1312.56s WALL (       1 calls)

     Called by init_run:
     wfcinit      :     26.15s CPU     26.30s WALL (       1 calls)
     wfcinit:atom :      0.04s CPU      0.05s WALL (       1 calls)
     wfcinit:wfcr :     25.94s CPU     26.04s WALL (       1 calls)
     potinit      :     11.24s CPU     11.64s WALL (       1 calls)
     hinit0       :      7.14s CPU      7.17s WALL (       1 calls)

     Called by electrons:
     c_bands      :    741.82s CPU    745.52s WALL (      19 calls)
     sum_band     :    272.56s CPU    286.15s WALL (      19 calls)
     v_of_rho     :    148.87s CPU    157.41s WALL (      20 calls)
     v_h          :      1.86s CPU      1.93s WALL (      20 calls)
     v_xc         :    147.01s CPU    155.48s WALL (      20 calls)
     newd         :    115.85s CPU    129.00s WALL (      20 calls)
     mix_rho      :      5.04s CPU      5.11s WALL (      19 calls)

     Called by c_bands:
     init_us_2    :      2.28s CPU      2.34s WALL (      39 calls)
     cegterg      :    737.33s CPU    741.02s WALL (      19 calls)

     Called by sum_band:
     sum_band:bec :      0.02s CPU      0.02s WALL (      19 calls)
     addusdens    :    176.86s CPU    189.87s WALL (      19 calls)

     Called by *egterg:
     h_psi        :    402.81s CPU    405.45s WALL (      80 calls)
     s_psi        :    135.54s CPU    135.64s WALL (      80 calls)
     g_psi        :      0.34s CPU      0.34s WALL (      60 calls)
     cdiaghg      :      5.51s CPU      5.51s WALL (      79 calls)
     cegterg:over :     85.25s CPU     85.32s WALL (      60 calls)
     cegterg:upda :     51.12s CPU     51.41s WALL (      60 calls)
     cegterg:last :     39.83s CPU     39.85s WALL (      19 calls)

     Called by h_psi:
     h_psi:pot    :    402.40s CPU    404.49s WALL (      80 calls)
     h_psi:calbec :    132.67s CPU    132.74s WALL (      80 calls)
     vloc_psi     :    134.38s CPU    136.33s WALL (      80 calls)
     add_vuspsi   :    135.35s CPU    135.41s WALL (      80 calls)

     General routines
     calbec       :    190.46s CPU    190.56s WALL (      99 calls)
     fft          :     90.32s CPU     93.60s WALL (    1258 calls)
     ffts         :      0.93s CPU      0.97s WALL (      39 calls)
     fftw         :    140.97s CPU    143.13s WALL (   13330 calls)
     interpolate  :      2.27s CPU      2.32s WALL (      20 calls)

     Parallel routines
     fft_scatt_xy :     42.72s CPU     43.07s WALL (   14627 calls)
     fft_scatt_yz :     73.28s CPU     77.39s WALL (   14627 calls)

     PWSCF        :  22m 6.31s CPU  22m45.93s WALL


   This run was terminated on:  11:35:35  25Jul2022            

=------------------------------------------------------------------------------=
   JOB DONE.
=------------------------------------------------------------------------------=
