 INFO
nunit      5    5    1
unit   tr_asym
celltype   primcell
shape   parapipedal
 END_INFO
 DIM-GROUP
           3           9
 PRIMVEC
    2.4652973500    0.0000000000    0.0000000000
   -1.2326486750    2.1350101330    0.0000000000
    0.0000000000    0.0000000000   10.0000000000
 CONVVEC
    2.4652973500    0.0000000000    0.0000000000
   -1.2326486750    2.1350101330    0.0000000000
    0.0000000000    0.0000000000   10.0000000000
 PRIMCOORD
           2           1
  6      0.0000000000     0.0000000000     0.0000000000
  6      0.0000000000     1.4233400890     0.0000000000
 CONVCOORD
           2           1
  6      0.0000000000     0.0000000000     0.0000000000
  6      0.0000000000     1.4233400890     0.0000000000
 RECIP-PRIMVEC
    0.4056305825    0.2341909260   -0.0000000000

    0.0000000000    0.4683818519    0.0000000000

    0.0000000000   -0.0000000000    0.1000000000

 RECIP-CONVVEC
    0.4056305825    0.2341909260   -0.0000000000

    0.0000000000    0.4683818519    0.0000000000

    0.0000000000   -0.0000000000    0.1000000000

 WIGNER-SEITZ-PRIMCELL
           4
 -0.1232649E+01 -0.7116700E+00 -0.5000000E+01  -0.5000000E+00 -0.8660254E+00  0.1248020E-15
 -0.0000000E+00 -0.1423340E+01 -0.5000000E+01  -0.5000000E+00 -0.8660254E+00  0.1248020E-15
  0.0000000E+00 -0.1423340E+01  0.5000000E+01  -0.5000000E+00 -0.8660254E+00  0.1248020E-15
 -0.1232649E+01 -0.7116700E+00  0.5000000E+01  -0.5000000E+00 -0.8660254E+00  0.1248020E-15
           4
 -0.1232649E+01 -0.7116700E+00  0.5000000E+01  -0.1000000E+01 -0.1385580E-31 -0.2220446E-16
 -0.1232649E+01  0.7116700E+00  0.5000000E+01  -0.1000000E+01 -0.1385580E-31 -0.2220446E-16
 -0.1232649E+01  0.7116700E+00 -0.5000000E+01  -0.1000000E+01 -0.1385580E-31 -0.2220446E-16
 -0.1232649E+01 -0.7116700E+00 -0.5000000E+01  -0.1000000E+01 -0.1385580E-31 -0.2220446E-16
           4
 -0.0000000E+00 -0.1423340E+01 -0.5000000E+01   0.5000000E+00 -0.8660254E+00 -0.1195914E-17
  0.1232649E+01 -0.7116700E+00 -0.5000000E+01   0.5000000E+00 -0.8660254E+00 -0.1195914E-17
  0.1232649E+01 -0.7116700E+00  0.5000000E+01   0.5000000E+00 -0.8660254E+00 -0.1195914E-17
  0.8099761E-15 -0.1423340E+01  0.5000000E+01   0.5000000E+00 -0.8660254E+00 -0.1195914E-17
           6
 -0.1232649E+01 -0.7116700E+00 -0.5000000E+01   0.0000000E+00  0.0000000E+00 -0.1000000E+01
 -0.1232649E+01  0.7116700E+00 -0.5000000E+01   0.0000000E+00  0.0000000E+00 -0.1000000E+01
  0.0000000E+00  0.1423340E+01 -0.5000000E+01   0.0000000E+00  0.0000000E+00 -0.1000000E+01
  0.1232649E+01  0.7116700E+00 -0.5000000E+01   0.0000000E+00  0.0000000E+00 -0.1000000E+01
  0.1232649E+01 -0.7116700E+00 -0.5000000E+01   0.0000000E+00  0.0000000E+00 -0.1000000E+01
 -0.0000000E+00 -0.1423340E+01 -0.5000000E+01   0.0000000E+00  0.0000000E+00 -0.1000000E+01
           6
  0.4319873E-14 -0.1423340E+01  0.5000000E+01   0.5062351E-15 -0.0000000E+00  0.1000000E+01
  0.1232649E+01 -0.7116700E+00  0.5000000E+01   0.5062351E-15 -0.0000000E+00  0.1000000E+01
  0.1232649E+01  0.7116700E+00  0.5000000E+01   0.5062351E-15 -0.0000000E+00  0.1000000E+01
  0.4319873E-14  0.1423340E+01  0.5000000E+01   0.5062351E-15 -0.0000000E+00  0.1000000E+01
 -0.1232649E+01  0.7116700E+00  0.5000000E+01   0.5062351E-15 -0.0000000E+00  0.1000000E+01
 -0.1232649E+01 -0.7116700E+00  0.5000000E+01   0.5062351E-15 -0.0000000E+00  0.1000000E+01
           4
 -0.0000000E+00  0.1423340E+01  0.5000000E+01  -0.5000000E+00  0.8660254E+00  0.3978064E-15
 -0.0000000E+00  0.1423340E+01 -0.5000000E+01  -0.5000000E+00  0.8660254E+00  0.3978064E-15
 -0.1232649E+01  0.7116700E+00 -0.5000000E+01  -0.5000000E+00  0.8660254E+00  0.3978064E-15
 -0.1232649E+01  0.7116700E+00  0.5000000E+01  -0.5000000E+00  0.8660254E+00  0.3978064E-15
           4
  0.1232649E+01 -0.7116700E+00 -0.5000000E+01   0.1000000E+01  0.1560025E-15 -0.2220446E-16
  0.1232649E+01  0.7116700E+00 -0.5000000E+01   0.1000000E+01  0.1560025E-15 -0.2220446E-16
  0.1232649E+01  0.7116700E+00  0.5000000E+01   0.1000000E+01  0.1560025E-15 -0.2220446E-16
  0.1232649E+01 -0.7116700E+00  0.5000000E+01   0.1000000E+01  0.1560025E-15 -0.2220446E-16
           4
  0.1232649E+01  0.7116700E+00  0.5000000E+01   0.5000000E+00  0.8660254E+00 -0.1872030E-15
  0.1232649E+01  0.7116700E+00 -0.5000000E+01   0.5000000E+00  0.8660254E+00 -0.1872030E-15
 -0.0000000E+00  0.1423340E+01 -0.5000000E+01   0.5000000E+00  0.8660254E+00 -0.1872030E-15
  0.8099761E-15  0.1423340E+01  0.5000000E+01   0.5000000E+00  0.8660254E+00 -0.1872030E-15
 WIGNER-SEITZ-PRIMCELL_END
 WIGNER-SEITZ-CONVCELL
           4
 -0.1232649E+01 -0.7116700E+00 -0.5000000E+01  -0.5000000E+00 -0.8660254E+00  0.1248020E-15
 -0.0000000E+00 -0.1423340E+01 -0.5000000E+01  -0.5000000E+00 -0.8660254E+00  0.1248020E-15
  0.0000000E+00 -0.1423340E+01  0.5000000E+01  -0.5000000E+00 -0.8660254E+00  0.1248020E-15
 -0.1232649E+01 -0.7116700E+00  0.5000000E+01  -0.5000000E+00 -0.8660254E+00  0.1248020E-15
           4
 -0.1232649E+01 -0.7116700E+00  0.5000000E+01  -0.1000000E+01 -0.1385580E-31 -0.2220446E-16
 -0.1232649E+01  0.7116700E+00  0.5000000E+01  -0.1000000E+01 -0.1385580E-31 -0.2220446E-16
 -0.1232649E+01  0.7116700E+00 -0.5000000E+01  -0.1000000E+01 -0.1385580E-31 -0.2220446E-16
 -0.1232649E+01 -0.7116700E+00 -0.5000000E+01  -0.1000000E+01 -0.1385580E-31 -0.2220446E-16
           4
 -0.0000000E+00 -0.1423340E+01 -0.5000000E+01   0.5000000E+00 -0.8660254E+00 -0.1195914E-17
  0.1232649E+01 -0.7116700E+00 -0.5000000E+01   0.5000000E+00 -0.8660254E+00 -0.1195914E-17
  0.1232649E+01 -0.7116700E+00  0.5000000E+01   0.5000000E+00 -0.8660254E+00 -0.1195914E-17
  0.8099761E-15 -0.1423340E+01  0.5000000E+01   0.5000000E+00 -0.8660254E+00 -0.1195914E-17
           6
 -0.1232649E+01 -0.7116700E+00 -0.5000000E+01   0.0000000E+00  0.0000000E+00 -0.1000000E+01
 -0.1232649E+01  0.7116700E+00 -0.5000000E+01   0.0000000E+00  0.0000000E+00 -0.1000000E+01
  0.0000000E+00  0.1423340E+01 -0.5000000E+01   0.0000000E+00  0.0000000E+00 -0.1000000E+01
  0.1232649E+01  0.7116700E+00 -0.5000000E+01   0.0000000E+00  0.0000000E+00 -0.1000000E+01
  0.1232649E+01 -0.7116700E+00 -0.5000000E+01   0.0000000E+00  0.0000000E+00 -0.1000000E+01
 -0.0000000E+00 -0.1423340E+01 -0.5000000E+01   0.0000000E+00  0.0000000E+00 -0.1000000E+01
           6
  0.4319873E-14 -0.1423340E+01  0.5000000E+01   0.5062351E-15 -0.0000000E+00  0.1000000E+01
  0.1232649E+01 -0.7116700E+00  0.5000000E+01   0.5062351E-15 -0.0000000E+00  0.1000000E+01
  0.1232649E+01  0.7116700E+00  0.5000000E+01   0.5062351E-15 -0.0000000E+00  0.1000000E+01
  0.4319873E-14  0.1423340E+01  0.5000000E+01   0.5062351E-15 -0.0000000E+00  0.1000000E+01
 -0.1232649E+01  0.7116700E+00  0.5000000E+01   0.5062351E-15 -0.0000000E+00  0.1000000E+01
 -0.1232649E+01 -0.7116700E+00  0.5000000E+01   0.5062351E-15 -0.0000000E+00  0.1000000E+01
           4
 -0.0000000E+00  0.1423340E+01  0.5000000E+01  -0.5000000E+00  0.8660254E+00  0.3978064E-15
 -0.0000000E+00  0.1423340E+01 -0.5000000E+01  -0.5000000E+00  0.8660254E+00  0.3978064E-15
 -0.1232649E+01  0.7116700E+00 -0.5000000E+01  -0.5000000E+00  0.8660254E+00  0.3978064E-15
 -0.1232649E+01  0.7116700E+00  0.5000000E+01  -0.5000000E+00  0.8660254E+00  0.3978064E-15
           4
  0.1232649E+01 -0.7116700E+00 -0.5000000E+01   0.1000000E+01  0.1560025E-15 -0.2220446E-16
  0.1232649E+01  0.7116700E+00 -0.5000000E+01   0.1000000E+01  0.1560025E-15 -0.2220446E-16
  0.1232649E+01  0.7116700E+00  0.5000000E+01   0.1000000E+01  0.1560025E-15 -0.2220446E-16
  0.1232649E+01 -0.7116700E+00  0.5000000E+01   0.1000000E+01  0.1560025E-15 -0.2220446E-16
           4
  0.1232649E+01  0.7116700E+00  0.5000000E+01   0.5000000E+00  0.8660254E+00 -0.1872030E-15
  0.1232649E+01  0.7116700E+00 -0.5000000E+01   0.5000000E+00  0.8660254E+00 -0.1872030E-15
 -0.0000000E+00  0.1423340E+01 -0.5000000E+01   0.5000000E+00  0.8660254E+00 -0.1872030E-15
  0.8099761E-15  0.1423340E+01  0.5000000E+01   0.5000000E+00  0.8660254E+00 -0.1872030E-15
 WIGNER-SEITZ-CONVCELL_END
 BRILLOUIN-ZONE-PRIMCELL
           4
 -0.2704204E+00  0.4565302E-16  0.5000000E-01  -0.8660254E+00 -0.5000000E+00  0.2282651E-15
 -0.2704204E+00  0.0000000E+00 -0.5000000E-01  -0.8660254E+00 -0.5000000E+00  0.2282651E-15
 -0.1352102E+00 -0.2341909E+00 -0.5000000E-01  -0.8660254E+00 -0.5000000E+00  0.2282651E-15
 -0.1352102E+00 -0.2341909E+00  0.5000000E-01  -0.8660254E+00 -0.5000000E+00  0.2282651E-15
           4
 -0.2704204E+00 -0.4565302E-16  0.5000000E-01  -0.8660254E+00  0.5000000E+00  0.0000000E+00
 -0.1352102E+00  0.2341909E+00  0.5000000E-01  -0.8660254E+00  0.5000000E+00  0.0000000E+00
 -0.1352102E+00  0.2341909E+00 -0.5000000E-01  -0.8660254E+00  0.5000000E+00  0.0000000E+00
 -0.2704204E+00  0.0000000E+00 -0.5000000E-01  -0.8660254E+00  0.5000000E+00  0.0000000E+00
           4
 -0.1352102E+00 -0.2341909E+00 -0.5000000E-01  -0.0000000E+00 -0.1000000E+01 -0.0000000E+00
  0.1352102E+00 -0.2341909E+00 -0.5000000E-01  -0.0000000E+00 -0.1000000E+01 -0.0000000E+00
  0.1352102E+00 -0.2341909E+00  0.5000000E-01  -0.0000000E+00 -0.1000000E+01 -0.0000000E+00
 -0.1352102E+00 -0.2341909E+00  0.5000000E-01  -0.0000000E+00 -0.1000000E+01 -0.0000000E+00
           6
 -0.2704204E+00  0.0000000E+00 -0.5000000E-01   0.0000000E+00 -0.1369591E-16 -0.1000000E+01
 -0.1352102E+00  0.2341909E+00 -0.5000000E-01   0.0000000E+00 -0.1369591E-16 -0.1000000E+01
  0.1352102E+00  0.2341909E+00 -0.5000000E-01   0.0000000E+00 -0.1369591E-16 -0.1000000E+01
  0.2704204E+00 -0.0000000E+00 -0.5000000E-01   0.0000000E+00 -0.1369591E-16 -0.1000000E+01
  0.1352102E+00 -0.2341909E+00 -0.5000000E-01   0.0000000E+00 -0.1369591E-16 -0.1000000E+01
 -0.1352102E+00 -0.2341909E+00 -0.5000000E-01   0.0000000E+00 -0.1369591E-16 -0.1000000E+01
           6
 -0.1352102E+00 -0.2341909E+00  0.5000000E-01  -0.0000000E+00 -0.1369591E-16  0.1000000E+01
  0.1352102E+00 -0.2341909E+00  0.5000000E-01  -0.0000000E+00 -0.1369591E-16  0.1000000E+01
  0.2704204E+00 -0.1711988E-16  0.5000000E-01  -0.0000000E+00 -0.1369591E-16  0.1000000E+01
  0.1352102E+00  0.2341909E+00  0.5000000E-01  -0.0000000E+00 -0.1369591E-16  0.1000000E+01
 -0.1352102E+00  0.2341909E+00  0.5000000E-01  -0.0000000E+00 -0.1369591E-16  0.1000000E+01
 -0.2704204E+00 -0.0000000E+00  0.5000000E-01  -0.0000000E+00 -0.1369591E-16  0.1000000E+01
           4
 -0.1352102E+00  0.2341909E+00  0.5000000E-01   0.0000000E+00  0.1000000E+01  0.0000000E+00
  0.1352102E+00  0.2341909E+00  0.5000000E-01   0.0000000E+00  0.1000000E+01  0.0000000E+00
  0.1352102E+00  0.2341909E+00 -0.5000000E-01   0.0000000E+00  0.1000000E+01  0.0000000E+00
 -0.1352102E+00  0.2341909E+00 -0.5000000E-01   0.0000000E+00  0.1000000E+01  0.0000000E+00
           4
  0.1352102E+00 -0.2341909E+00 -0.5000000E-01   0.8660254E+00 -0.5000000E+00 -0.0000000E+00
  0.2704204E+00  0.0000000E+00 -0.5000000E-01   0.8660254E+00 -0.5000000E+00 -0.0000000E+00
  0.2704204E+00  0.0000000E+00  0.5000000E-01   0.8660254E+00 -0.5000000E+00 -0.0000000E+00
  0.1352102E+00 -0.2341909E+00  0.5000000E-01   0.8660254E+00 -0.5000000E+00 -0.0000000E+00
           4
  0.1352102E+00  0.2341909E+00  0.5000000E-01   0.8660254E+00  0.5000000E+00  0.0000000E+00
  0.2704204E+00  0.0000000E+00  0.5000000E-01   0.8660254E+00  0.5000000E+00  0.0000000E+00
  0.2704204E+00  0.0000000E+00 -0.5000000E-01   0.8660254E+00  0.5000000E+00  0.0000000E+00
  0.1352102E+00  0.2341909E+00 -0.5000000E-01   0.8660254E+00  0.5000000E+00  0.0000000E+00
 BRILLOUIN-ZONE-PRIMCELL_END
 BRILLOUIN-ZONE-CONVCELL
           4
 -0.2704204E+00  0.4565302E-16  0.5000000E-01  -0.8660254E+00 -0.5000000E+00  0.2282651E-15
 -0.2704204E+00  0.0000000E+00 -0.5000000E-01  -0.8660254E+00 -0.5000000E+00  0.2282651E-15
 -0.1352102E+00 -0.2341909E+00 -0.5000000E-01  -0.8660254E+00 -0.5000000E+00  0.2282651E-15
 -0.1352102E+00 -0.2341909E+00  0.5000000E-01  -0.8660254E+00 -0.5000000E+00  0.2282651E-15
           4
 -0.2704204E+00 -0.4565302E-16  0.5000000E-01  -0.8660254E+00  0.5000000E+00  0.0000000E+00
 -0.1352102E+00  0.2341909E+00  0.5000000E-01  -0.8660254E+00  0.5000000E+00  0.0000000E+00
 -0.1352102E+00  0.2341909E+00 -0.5000000E-01  -0.8660254E+00  0.5000000E+00  0.0000000E+00
 -0.2704204E+00  0.0000000E+00 -0.5000000E-01  -0.8660254E+00  0.5000000E+00  0.0000000E+00
           4
 -0.1352102E+00 -0.2341909E+00 -0.5000000E-01  -0.0000000E+00 -0.1000000E+01 -0.0000000E+00
  0.1352102E+00 -0.2341909E+00 -0.5000000E-01  -0.0000000E+00 -0.1000000E+01 -0.0000000E+00
  0.1352102E+00 -0.2341909E+00  0.5000000E-01  -0.0000000E+00 -0.1000000E+01 -0.0000000E+00
 -0.1352102E+00 -0.2341909E+00  0.5000000E-01  -0.0000000E+00 -0.1000000E+01 -0.0000000E+00
           6
 -0.2704204E+00  0.0000000E+00 -0.5000000E-01   0.0000000E+00 -0.1369591E-16 -0.1000000E+01
 -0.1352102E+00  0.2341909E+00 -0.5000000E-01   0.0000000E+00 -0.1369591E-16 -0.1000000E+01
  0.1352102E+00  0.2341909E+00 -0.5000000E-01   0.0000000E+00 -0.1369591E-16 -0.1000000E+01
  0.2704204E+00 -0.0000000E+00 -0.5000000E-01   0.0000000E+00 -0.1369591E-16 -0.1000000E+01
  0.1352102E+00 -0.2341909E+00 -0.5000000E-01   0.0000000E+00 -0.1369591E-16 -0.1000000E+01
 -0.1352102E+00 -0.2341909E+00 -0.5000000E-01   0.0000000E+00 -0.1369591E-16 -0.1000000E+01
           6
 -0.1352102E+00 -0.2341909E+00  0.5000000E-01  -0.0000000E+00 -0.1369591E-16  0.1000000E+01
  0.1352102E+00 -0.2341909E+00  0.5000000E-01  -0.0000000E+00 -0.1369591E-16  0.1000000E+01
  0.2704204E+00 -0.1711988E-16  0.5000000E-01  -0.0000000E+00 -0.1369591E-16  0.1000000E+01
  0.1352102E+00  0.2341909E+00  0.5000000E-01  -0.0000000E+00 -0.1369591E-16  0.1000000E+01
 -0.1352102E+00  0.2341909E+00  0.5000000E-01  -0.0000000E+00 -0.1369591E-16  0.1000000E+01
 -0.2704204E+00 -0.0000000E+00  0.5000000E-01  -0.0000000E+00 -0.1369591E-16  0.1000000E+01
           4
 -0.1352102E+00  0.2341909E+00  0.5000000E-01   0.0000000E+00  0.1000000E+01  0.0000000E+00
  0.1352102E+00  0.2341909E+00  0.5000000E-01   0.0000000E+00  0.1000000E+01  0.0000000E+00
  0.1352102E+00  0.2341909E+00 -0.5000000E-01   0.0000000E+00  0.1000000E+01  0.0000000E+00
 -0.1352102E+00  0.2341909E+00 -0.5000000E-01   0.0000000E+00  0.1000000E+01  0.0000000E+00
           4
  0.1352102E+00 -0.2341909E+00 -0.5000000E-01   0.8660254E+00 -0.5000000E+00 -0.0000000E+00
  0.2704204E+00  0.0000000E+00 -0.5000000E-01   0.8660254E+00 -0.5000000E+00 -0.0000000E+00
  0.2704204E+00  0.0000000E+00  0.5000000E-01   0.8660254E+00 -0.5000000E+00 -0.0000000E+00
  0.1352102E+00 -0.2341909E+00  0.5000000E-01   0.8660254E+00 -0.5000000E+00 -0.0000000E+00
           4
  0.1352102E+00  0.2341909E+00  0.5000000E-01   0.8660254E+00  0.5000000E+00  0.0000000E+00
  0.2704204E+00  0.0000000E+00  0.5000000E-01   0.8660254E+00  0.5000000E+00  0.0000000E+00
  0.2704204E+00  0.0000000E+00 -0.5000000E-01   0.8660254E+00  0.5000000E+00  0.0000000E+00
  0.1352102E+00  0.2341909E+00 -0.5000000E-01   0.8660254E+00  0.5000000E+00  0.0000000E+00
 BRILLOUIN-ZONE-CONVCELL_END
 ATOMS
    6    0.0000000000    0.0000000000    0.0000000000
    6    0.0000000000    1.4233400890    0.0000000000
    6   -1.2326486750    2.1350101330    0.0000000000
    6   -1.2326486750    3.5583502220    0.0000000000
    6   -2.4652973500    4.2700202660    0.0000000000
    6   -2.4652973500    5.6933603550    0.0000000000
    6   -3.6979460250    6.4050303990    0.0000000000
    6   -3.6979460250    7.8283704880    0.0000000000
    6   -4.9305947000    8.5400405320    0.0000000000
    6   -4.9305947000    9.9633806210    0.0000000000
    6    2.4652973500    0.0000000000    0.0000000000
    6    2.4652973500    1.4233400890    0.0000000000
    6    1.2326486750    2.1350101330    0.0000000000
    6    1.2326486750    3.5583502220    0.0000000000
    6    0.0000000000    4.2700202660    0.0000000000
    6    0.0000000000    5.6933603550    0.0000000000
    6   -1.2326486750    6.4050303990    0.0000000000
    6   -1.2326486750    7.8283704880    0.0000000000
    6   -2.4652973500    8.5400405320    0.0000000000
    6   -2.4652973500    9.9633806210    0.0000000000
    6    4.9305947000    0.0000000000    0.0000000000
    6    4.9305947000    1.4233400890    0.0000000000
    6    3.6979460250    2.1350101330    0.0000000000
    6    3.6979460250    3.5583502220    0.0000000000
    6    2.4652973500    4.2700202660    0.0000000000
    6    2.4652973500    5.6933603550    0.0000000000
    6    1.2326486750    6.4050303990    0.0000000000
    6    1.2326486750    7.8283704880    0.0000000000
    6    0.0000000000    8.5400405320    0.0000000000
    6    0.0000000000    9.9633806210    0.0000000000
    6    7.3958920500    0.0000000000    0.0000000000
    6    7.3958920500    1.4233400890    0.0000000000
    6    6.1632433750    2.1350101330    0.0000000000
    6    6.1632433750    3.5583502220    0.0000000000
    6    4.9305947000    4.2700202660    0.0000000000
    6    4.9305947000    5.6933603550    0.0000000000
    6    3.6979460250    6.4050303990    0.0000000000
    6    3.6979460250    7.8283704880    0.0000000000
    6    2.4652973500    8.5400405320    0.0000000000
    6    2.4652973500    9.9633806210    0.0000000000
    6    9.8611894000    0.0000000000    0.0000000000
    6    9.8611894000    1.4233400890    0.0000000000
    6    8.6285407250    2.1350101330    0.0000000000
    6    8.6285407250    3.5583502220    0.0000000000
    6    7.3958920500    4.2700202660    0.0000000000
    6    7.3958920500    5.6933603550    0.0000000000
    6    6.1632433750    6.4050303990    0.0000000000
    6    6.1632433750    7.8283704880    0.0000000000
    6    4.9305947000    8.5400405320    0.0000000000
    6    4.9305947000    9.9633806210    0.0000000000
 FRAMES
1      0.0000000000    0.0000000000    0.0000000000      2.4652973500    0.0000000000    0.0000000000
1      0.0000000000    0.0000000000    0.0000000000     -1.2326486750    2.1350101330    0.0000000000
1      0.0000000000    0.0000000000    0.0000000000      0.0000000000    0.0000000000   10.0000000000
1      0.0000000000    0.0000000000   10.0000000000      2.4652973500    0.0000000000   10.0000000000
1      0.0000000000    0.0000000000   10.0000000000     -1.2326486750    2.1350101330   10.0000000000
1     -1.2326486750    2.1350101330    0.0000000000      1.2326486750    2.1350101330    0.0000000000
1     -1.2326486750    2.1350101330    0.0000000000     -2.4652973500    4.2700202660    0.0000000000
1     -1.2326486750    2.1350101330    0.0000000000     -1.2326486750    2.1350101330   10.0000000000
1     -1.2326486750    2.1350101330   10.0000000000      1.2326486750    2.1350101330   10.0000000000
1     -1.2326486750    2.1350101330   10.0000000000     -2.4652973500    4.2700202660   10.0000000000
1     -2.4652973500    4.2700202660    0.0000000000      0.0000000000    4.2700202660    0.0000000000
1     -2.4652973500    4.2700202660    0.0000000000     -3.6979460250    6.4050303990    0.0000000000
1     -2.4652973500    4.2700202660    0.0000000000     -2.4652973500    4.2700202660   10.0000000000
1     -2.4652973500    4.2700202660   10.0000000000      0.0000000000    4.2700202660   10.0000000000
1     -2.4652973500    4.2700202660   10.0000000000     -3.6979460250    6.4050303990   10.0000000000
1     -3.6979460250    6.4050303990    0.0000000000     -1.2326486750    6.4050303990    0.0000000000
1     -3.6979460250    6.4050303990    0.0000000000     -4.9305947000    8.5400405320    0.0000000000
1     -3.6979460250    6.4050303990    0.0000000000     -3.6979460250    6.4050303990   10.0000000000
1     -3.6979460250    6.4050303990   10.0000000000     -1.2326486750    6.4050303990   10.0000000000
1     -3.6979460250    6.4050303990   10.0000000000     -4.9305947000    8.5400405320   10.0000000000
1     -4.9305947000    8.5400405320    0.0000000000     -2.4652973500    8.5400405320    0.0000000000
1     -4.9305947000    8.5400405320    0.0000000000     -6.1632433750   10.6750506650    0.0000000000
1     -4.9305947000    8.5400405320    0.0000000000     -4.9305947000    8.5400405320   10.0000000000
1     -4.9305947000    8.5400405320   10.0000000000     -2.4652973500    8.5400405320   10.0000000000
1     -4.9305947000    8.5400405320   10.0000000000     -6.1632433750   10.6750506650   10.0000000000
1     -6.1632433750   10.6750506650    0.0000000000     -3.6979460250   10.6750506650    0.0000000000
1     -6.1632433750   10.6750506650    0.0000000000     -6.1632433750   10.6750506650   10.0000000000
1     -6.1632433750   10.6750506650   10.0000000000     -3.6979460250   10.6750506650   10.0000000000
1      2.4652973500    0.0000000000    0.0000000000      4.9305947000    0.0000000000    0.0000000000
1      2.4652973500    0.0000000000    0.0000000000      1.2326486750    2.1350101330    0.0000000000
1      2.4652973500    0.0000000000    0.0000000000      2.4652973500    0.0000000000   10.0000000000
1      2.4652973500    0.0000000000   10.0000000000      4.9305947000    0.0000000000   10.0000000000
1      2.4652973500    0.0000000000   10.0000000000      1.2326486750    2.1350101330   10.0000000000
1      1.2326486750    2.1350101330    0.0000000000      3.6979460250    2.1350101330    0.0000000000
1      1.2326486750    2.1350101330    0.0000000000      0.0000000000    4.2700202660    0.0000000000
1      1.2326486750    2.1350101330    0.0000000000      1.2326486750    2.1350101330   10.0000000000
1      1.2326486750    2.1350101330   10.0000000000      3.6979460250    2.1350101330   10.0000000000
1      1.2326486750    2.1350101330   10.0000000000      0.0000000000    4.2700202660   10.0000000000
1      0.0000000000    4.2700202660    0.0000000000      2.4652973500    4.2700202660    0.0000000000
1      0.0000000000    4.2700202660    0.0000000000     -1.2326486750    6.4050303990    0.0000000000
1      0.0000000000    4.2700202660    0.0000000000      0.0000000000    4.2700202660   10.0000000000
1      0.0000000000    4.2700202660   10.0000000000      2.4652973500    4.2700202660   10.0000000000
1      0.0000000000    4.2700202660   10.0000000000     -1.2326486750    6.4050303990   10.0000000000
1     -1.2326486750    6.4050303990    0.0000000000      1.2326486750    6.4050303990    0.0000000000
1     -1.2326486750    6.4050303990    0.0000000000     -2.4652973500    8.5400405320    0.0000000000
1     -1.2326486750    6.4050303990    0.0000000000     -1.2326486750    6.4050303990   10.0000000000
1     -1.2326486750    6.4050303990   10.0000000000      1.2326486750    6.4050303990   10.0000000000
1     -1.2326486750    6.4050303990   10.0000000000     -2.4652973500    8.5400405320   10.0000000000
1     -2.4652973500    8.5400405320    0.0000000000      0.0000000000    8.5400405320    0.0000000000
1     -2.4652973500    8.5400405320    0.0000000000     -3.6979460250   10.6750506650    0.0000000000
1     -2.4652973500    8.5400405320    0.0000000000     -2.4652973500    8.5400405320   10.0000000000
1     -2.4652973500    8.5400405320   10.0000000000      0.0000000000    8.5400405320   10.0000000000
1     -2.4652973500    8.5400405320   10.0000000000     -3.6979460250   10.6750506650   10.0000000000
1     -3.6979460250   10.6750506650    0.0000000000     -1.2326486750   10.6750506650    0.0000000000
1     -3.6979460250   10.6750506650    0.0000000000     -3.6979460250   10.6750506650   10.0000000000
1     -3.6979460250   10.6750506650   10.0000000000     -1.2326486750   10.6750506650   10.0000000000
1      4.9305947000    0.0000000000    0.0000000000      7.3958920500    0.0000000000    0.0000000000
1      4.9305947000    0.0000000000    0.0000000000      3.6979460250    2.1350101330    0.0000000000
1      4.9305947000    0.0000000000    0.0000000000      4.9305947000    0.0000000000   10.0000000000
1      4.9305947000    0.0000000000   10.0000000000      7.3958920500    0.0000000000   10.0000000000
1      4.9305947000    0.0000000000   10.0000000000      3.6979460250    2.1350101330   10.0000000000
1      3.6979460250    2.1350101330    0.0000000000      6.1632433750    2.1350101330    0.0000000000
1      3.6979460250    2.1350101330    0.0000000000      2.4652973500    4.2700202660    0.0000000000
1      3.6979460250    2.1350101330    0.0000000000      3.6979460250    2.1350101330   10.0000000000
1      3.6979460250    2.1350101330   10.0000000000      6.1632433750    2.1350101330   10.0000000000
1      3.6979460250    2.1350101330   10.0000000000      2.4652973500    4.2700202660   10.0000000000
1      2.4652973500    4.2700202660    0.0000000000      4.9305947000    4.2700202660    0.0000000000
1      2.4652973500    4.2700202660    0.0000000000      1.2326486750    6.4050303990    0.0000000000
1      2.4652973500    4.2700202660    0.0000000000      2.4652973500    4.2700202660   10.0000000000
1      2.4652973500    4.2700202660   10.0000000000      4.9305947000    4.2700202660   10.0000000000
1      2.4652973500    4.2700202660   10.0000000000      1.2326486750    6.4050303990   10.0000000000
1      1.2326486750    6.4050303990    0.0000000000      3.6979460250    6.4050303990    0.0000000000
1      1.2326486750    6.4050303990    0.0000000000      0.0000000000    8.5400405320    0.0000000000
1      1.2326486750    6.4050303990    0.0000000000      1.2326486750    6.4050303990   10.0000000000
1      1.2326486750    6.4050303990   10.0000000000      3.6979460250    6.4050303990   10.0000000000
1      1.2326486750    6.4050303990   10.0000000000      0.0000000000    8.5400405320   10.0000000000
1      0.0000000000    8.5400405320    0.0000000000      2.4652973500    8.5400405320    0.0000000000
1      0.0000000000    8.5400405320    0.0000000000     -1.2326486750   10.6750506650    0.0000000000
1      0.0000000000    8.5400405320    0.0000000000      0.0000000000    8.5400405320   10.0000000000
1      0.0000000000    8.5400405320   10.0000000000      2.4652973500    8.5400405320   10.0000000000
1      0.0000000000    8.5400405320   10.0000000000     -1.2326486750   10.6750506650   10.0000000000
1     -1.2326486750   10.6750506650    0.0000000000      1.2326486750   10.6750506650    0.0000000000
1     -1.2326486750   10.6750506650    0.0000000000     -1.2326486750   10.6750506650   10.0000000000
1     -1.2326486750   10.6750506650   10.0000000000      1.2326486750   10.6750506650   10.0000000000
1      7.3958920500    0.0000000000    0.0000000000      9.8611894000    0.0000000000    0.0000000000
1      7.3958920500    0.0000000000    0.0000000000      6.1632433750    2.1350101330    0.0000000000
1      7.3958920500    0.0000000000    0.0000000000      7.3958920500    0.0000000000   10.0000000000
1      7.3958920500    0.0000000000   10.0000000000      9.8611894000    0.0000000000   10.0000000000
1      7.3958920500    0.0000000000   10.0000000000      6.1632433750    2.1350101330   10.0000000000
1      6.1632433750    2.1350101330    0.0000000000      8.6285407250    2.1350101330    0.0000000000
1      6.1632433750    2.1350101330    0.0000000000      4.9305947000    4.2700202660    0.0000000000
1      6.1632433750    2.1350101330    0.0000000000      6.1632433750    2.1350101330   10.0000000000
1      6.1632433750    2.1350101330   10.0000000000      8.6285407250    2.1350101330   10.0000000000
1      6.1632433750    2.1350101330   10.0000000000      4.9305947000    4.2700202660   10.0000000000
1      4.9305947000    4.2700202660    0.0000000000      7.3958920500    4.2700202660    0.0000000000
1      4.9305947000    4.2700202660    0.0000000000      3.6979460250    6.4050303990    0.0000000000
1      4.9305947000    4.2700202660    0.0000000000      4.9305947000    4.2700202660   10.0000000000
1      4.9305947000    4.2700202660   10.0000000000      7.3958920500    4.2700202660   10.0000000000
1      4.9305947000    4.2700202660   10.0000000000      3.6979460250    6.4050303990   10.0000000000
1      3.6979460250    6.4050303990    0.0000000000      6.1632433750    6.4050303990    0.0000000000
1      3.6979460250    6.4050303990    0.0000000000      2.4652973500    8.5400405320    0.0000000000
1      3.6979460250    6.4050303990    0.0000000000      3.6979460250    6.4050303990   10.0000000000
1      3.6979460250    6.4050303990   10.0000000000      6.1632433750    6.4050303990   10.0000000000
1      3.6979460250    6.4050303990   10.0000000000      2.4652973500    8.5400405320   10.0000000000
1      2.4652973500    8.5400405320    0.0000000000      4.9305947000    8.5400405320    0.0000000000
1      2.4652973500    8.5400405320    0.0000000000      1.2326486750   10.6750506650    0.0000000000
1      2.4652973500    8.5400405320    0.0000000000      2.4652973500    8.5400405320   10.0000000000
1      2.4652973500    8.5400405320   10.0000000000      4.9305947000    8.5400405320   10.0000000000
1      2.4652973500    8.5400405320   10.0000000000      1.2326486750   10.6750506650   10.0000000000
1      1.2326486750   10.6750506650    0.0000000000      3.6979460250   10.6750506650    0.0000000000
1      1.2326486750   10.6750506650    0.0000000000      1.2326486750   10.6750506650   10.0000000000
1      1.2326486750   10.6750506650   10.0000000000      3.6979460250   10.6750506650   10.0000000000
1      9.8611894000    0.0000000000    0.0000000000     12.3264867500    0.0000000000    0.0000000000
1      9.8611894000    0.0000000000    0.0000000000      8.6285407250    2.1350101330    0.0000000000
1      9.8611894000    0.0000000000    0.0000000000      9.8611894000    0.0000000000   10.0000000000
1      9.8611894000    0.0000000000   10.0000000000     12.3264867500    0.0000000000   10.0000000000
1      9.8611894000    0.0000000000   10.0000000000      8.6285407250    2.1350101330   10.0000000000
1      8.6285407250    2.1350101330    0.0000000000     11.0938380750    2.1350101330    0.0000000000
1      8.6285407250    2.1350101330    0.0000000000      7.3958920500    4.2700202660    0.0000000000
1      8.6285407250    2.1350101330    0.0000000000      8.6285407250    2.1350101330   10.0000000000
1      8.6285407250    2.1350101330   10.0000000000     11.0938380750    2.1350101330   10.0000000000