
     Program PWSCF v.6.4.1 starts on  2Sep2022 at  1: 7:19 

     This program is part of the open-source Quantum ESPRESSO suite
     for quantum simulation of materials; please cite
         "P. Giannozzi et al., J. Phys.:Condens. Matter 21 395502 (2009);
         "P. Giannozzi et al., J. Phys.:Condens. Matter 29 465901 (2017);
          URL http://www.quantum-espresso.org", 
     in publications or presentations arising from this work. More details at
     http://www.quantum-espresso.org/quote

     Parallel version (MPI), running on     6 processors

     MPI processes distributed on     1 nodes
     R & G space division:  proc/nbgrp/npool/nimage =       6
     Reading input from distance-4.5.in

     Current dimensions of program PWSCF are:
     Max number of different atomic species (ntypx) = 10
     Max number of k-points (npk) =  40000
     Max angular momentum in pseudopotentials (lmaxx) =  3

     IMPORTANT: XC functional enforced from input :
     Exchange-correlation      = RVV10 ( 1  4 13  4 3 0)
     Any further DFT definition will be discarded
     Please, verify this is what you really want

               file H.pbe-rrkjus.UPF: wavefunction(s)  1S renormalized
               file V.pbe-spnl-rrkjus_psl.1.0.0.UPF: wavefunction(s)  3P 3D renormalized

     Subspace diagonalization in iterative solution of the eigenvalue problem:
     a serial algorithm will be used


     Parallelization info
     --------------------
     sticks:   dense  smooth     PW     G-vecs:    dense   smooth      PW
     Min        3051    1746    432               270999   117096   14629
     Max        3053    1747    437               271001   117099   14630
     Sum       18313   10477   2611              1626001   702581   87777



     bravais-lattice index     =            4
     lattice parameter (alat)  =      23.2937  a.u.
     unit-cell volume          =    8879.8548 (a.u.)^3
     number of atoms/cell      =           52
     number of atomic types    =            3
     number of electrons       =       211.00
     number of Kohn-Sham states=          127
     kinetic-energy cutoff     =      70.0000  Ry
     charge density cutoff     =     490.0000  Ry
     convergence threshold     =      1.0E-06
     mixing beta               =       0.7000
     number of iterations used =            8  plain     mixing
     Exchange-correlation      = RVV10 ( 1  4 13  4 3 0)

     celldm(1)=  23.293684  celldm(2)=   0.000000  celldm(3)=   0.811261
     celldm(4)=   0.000000  celldm(5)=   0.000000  celldm(6)=   0.000000

     crystal axes: (cart. coord. in units of alat)
               a(1) = (   1.000000   0.000000   0.000000 )  
               a(2) = (  -0.500000   0.866025   0.000000 )  
               a(3) = (   0.000000   0.000000   0.811261 )  

     reciprocal axes: (cart. coord. in units 2 pi/alat)
               b(1) = (  1.000000  0.577350 -0.000000 )  
               b(2) = (  0.000000  1.154701  0.000000 )  
               b(3) = (  0.000000 -0.000000  1.232649 )  


     PseudoPot. # 1 for H  read from file:
     /home/cristian/Escritorio/Proyecto_Grafeno/pseudopotenciales/H.pbe-rrkjus.UPF
     MD5 check sum: 7cc9d459525c9a0585f487a71c3c9563
     Pseudo is Ultrasoft, Zval =  1.0
     Generated by new atomic code, or converted to UPF format
     Using radial grid of 1061 points,  2 beta functions with: 
                l(1) =   0
                l(2) =   0
     Q(r) pseudized with 0 coefficients 


     PseudoPot. # 2 for C  read from file:
     /home/cristian/Escritorio/Proyecto_Grafeno/pseudopotenciales/C.pbe-n-rrkjus_psl.1.0.0.UPF
     MD5 check sum: 1fdd950c42eb37d8afe3dd2f8d12311e
     Pseudo is Ultrasoft + core correction, Zval =  4.0
     Generated using "atomic" code by A. Dal Corso v.6.3MaX
     Using radial grid of 1073 points,  4 beta functions with: 
                l(1) =   0
                l(2) =   0
                l(3) =   1
                l(4) =   1
     Q(r) pseudized with 0 coefficients 


     PseudoPot. # 3 for V  read from file:
     /home/cristian/Escritorio/Proyecto_Grafeno/pseudopotenciales/V.pbe-spnl-rrkjus_psl.1.0.0.UPF
     MD5 check sum: 79b3eb63147daf0b665d9f1bcc691206
     Pseudo is Ultrasoft + core correction, Zval = 13.0
     Generated using "atomic" code by A. Dal Corso v.6.2.2
     Using radial grid of 1181 points,  6 beta functions with: 
                l(1) =   0
                l(2) =   0
                l(3) =   1
                l(4) =   1
                l(5) =   2
                l(6) =   2
     Q(r) pseudized with 0 coefficients 


     vdW kernel table read from file rVV10_kernel_table
     MD5 check sum: b8e2538accc0c0b3206b45ba4daaba6c

     atomic species   valence    mass     pseudopotential
        H              1.00     1.00794     H ( 1.00)
        C              4.00    12.01070     C ( 1.00)
        V             13.00    50.94150     V ( 1.00)

     Starting magnetic structure 
     atomic species   magnetization
        H            0.500
        C            0.300
        V            0.800

     No symmetry found


                                    s                        frac. trans.

      isym =  1     identity                                     

 cryst.   s( 1) = (     1          0          0      )
                  (     0          1          0      )
                  (     0          0          1      )

 cart.    s( 1) = (  1.0000000  0.0000000  0.0000000 )
                  (  0.0000000  1.0000000  0.0000000 )
                  (  0.0000000  0.0000000  1.0000000 )


     point group C_1 (1)    
     there are  1 classes
     the character table:

       E    
A      1.00

     the symmetry operations in each class and the name of the first element:

     E        1
          identity                                               

   Cartesian axes

     site n.     atom                  positions (alat units)
         1           H   tau(   1) = (   0.2194937   0.4330127   0.3650675  )
         2           H   tau(   2) = (   0.2805063   0.4330127   0.3650675  )
         3           C   tau(   3) = (   0.0000000   0.0000000   0.0000000  )
         4           C   tau(   4) = (   0.0000000   0.1154701   0.0000000  )
         5           C   tau(   5) = (  -0.1000000   0.1732051   0.0000000  )
         6           C   tau(   6) = (  -0.1000000   0.2886751   0.0000000  )
         7           C   tau(   7) = (  -0.2000000   0.3464102   0.0000000  )
         8           C   tau(   8) = (  -0.2000000   0.4618802   0.0000000  )
         9           C   tau(   9) = (  -0.3000000   0.5196152   0.0000000  )
        10           C   tau(  10) = (  -0.3000000   0.6350853   0.0000000  )
        11           C   tau(  11) = (  -0.4000000   0.6928203   0.0000000  )
        12           C   tau(  12) = (  -0.4000000   0.8082904   0.0000000  )
        13           C   tau(  13) = (   0.2000000   0.0000000   0.0000000  )
        14           C   tau(  14) = (   0.2000000   0.1154701   0.0000000  )
        15           C   tau(  15) = (   0.1000000   0.1732051   0.0000000  )
        16           C   tau(  16) = (   0.1000000   0.2886751   0.0000000  )
        17           C   tau(  17) = (   0.0000000   0.3464102   0.0000000  )
        18           C   tau(  18) = (   0.0000000   0.4618802   0.0000000  )
        19           C   tau(  19) = (  -0.1000000   0.5196152   0.0000000  )
        20           C   tau(  20) = (  -0.1000000   0.6350853   0.0000000  )
        21           C   tau(  21) = (  -0.2000000   0.6928203   0.0000000  )
        22           C   tau(  22) = (  -0.2000000   0.8082904   0.0000000  )
        23           C   tau(  23) = (   0.4000000   0.0000000   0.0000000  )
        24           C   tau(  24) = (   0.4000000   0.1154701   0.0000000  )
        25           C   tau(  25) = (   0.3000000   0.1732051   0.0000000  )
        26           C   tau(  26) = (   0.3000000   0.2886751   0.0000000  )
        27           C   tau(  27) = (   0.2000000   0.3464102   0.0000000  )
        28           V   tau(  28) = (   0.2000000   0.4618802   0.0000000  )
        29           C   tau(  29) = (   0.1000000   0.5196152   0.0000000  )
        30           C   tau(  30) = (   0.1000000   0.6350853   0.0000000  )
        31           C   tau(  31) = (   0.0000000   0.6928203   0.0000000  )
        32           C   tau(  32) = (   0.0000000   0.8082904   0.0000000  )
        33           C   tau(  33) = (   0.6000000   0.0000000   0.0000000  )
        34           C   tau(  34) = (   0.6000000   0.1154701   0.0000000  )
        35           C   tau(  35) = (   0.5000000   0.1732051   0.0000000  )
        36           C   tau(  36) = (   0.5000000   0.2886751   0.0000000  )
        37           C   tau(  37) = (   0.4000000   0.3464102   0.0000000  )
        38           C   tau(  38) = (   0.4000000   0.4618802   0.0000000  )
        39           C   tau(  39) = (   0.3000000   0.5196152   0.0000000  )
        40           C   tau(  40) = (   0.3000000   0.6350853   0.0000000  )
        41           C   tau(  41) = (   0.2000000   0.6928203   0.0000000  )
        42           C   tau(  42) = (   0.2000000   0.8082904   0.0000000  )
        43           C   tau(  43) = (   0.8000000   0.0000000   0.0000000  )
        44           C   tau(  44) = (   0.8000000   0.1154701   0.0000000  )
        45           C   tau(  45) = (   0.7000000   0.1732051   0.0000000  )
        46           C   tau(  46) = (   0.7000000   0.2886751   0.0000000  )
        47           C   tau(  47) = (   0.6000000   0.3464102   0.0000000  )
        48           C   tau(  48) = (   0.6000000   0.4618802   0.0000000  )
        49           C   tau(  49) = (   0.5000000   0.5196152   0.0000000  )
        50           C   tau(  50) = (   0.5000000   0.6350853   0.0000000  )
        51           C   tau(  51) = (   0.4000000   0.6928203   0.0000000  )
        52           C   tau(  52) = (   0.4000000   0.8082904   0.0000000  )

   Crystallographic axes

     site n.     atom                  positions (cryst. coord.)
         1           H   tau(   1) = (  0.4694937  0.5000000  0.4500000  )
         2           H   tau(   2) = (  0.5305063  0.5000000  0.4500000  )
         3           C   tau(   3) = (  0.0000000  0.0000000  0.0000000  )
         4           C   tau(   4) = (  0.0666667  0.1333333  0.0000000  )
         5           C   tau(   5) = (  0.0000000  0.2000000  0.0000000  )
         6           C   tau(   6) = (  0.0666667  0.3333333  0.0000000  )
         7           C   tau(   7) = (  0.0000000  0.4000000  0.0000000  )
         8           C   tau(   8) = (  0.0666667  0.5333333  0.0000000  )
         9           C   tau(   9) = (  0.0000000  0.6000000  0.0000000  )
        10           C   tau(  10) = (  0.0666667  0.7333333  0.0000000  )
        11           C   tau(  11) = (  0.0000000  0.8000000  0.0000000  )
        12           C   tau(  12) = (  0.0666667  0.9333333  0.0000000  )
        13           C   tau(  13) = (  0.2000000  0.0000000  0.0000000  )
        14           C   tau(  14) = (  0.2666667  0.1333333  0.0000000  )
        15           C   tau(  15) = (  0.2000000  0.2000000  0.0000000  )
        16           C   tau(  16) = (  0.2666667  0.3333333  0.0000000  )
        17           C   tau(  17) = (  0.2000000  0.4000000  0.0000000  )
        18           C   tau(  18) = (  0.2666667  0.5333333  0.0000000  )
        19           C   tau(  19) = (  0.2000000  0.6000000  0.0000000  )
        20           C   tau(  20) = (  0.2666667  0.7333333  0.0000000  )
        21           C   tau(  21) = (  0.2000000  0.8000000  0.0000000  )
        22           C   tau(  22) = (  0.2666667  0.9333333  0.0000000  )
        23           C   tau(  23) = (  0.4000000  0.0000000  0.0000000  )
        24           C   tau(  24) = (  0.4666667  0.1333333  0.0000000  )
        25           C   tau(  25) = (  0.4000000  0.2000000  0.0000000  )
        26           C   tau(  26) = (  0.4666667  0.3333333  0.0000000  )
        27           C   tau(  27) = (  0.4000000  0.4000000  0.0000000  )
        28           V   tau(  28) = (  0.4666667  0.5333333  0.0000000  )
        29           C   tau(  29) = (  0.4000000  0.6000000  0.0000000  )
        30           C   tau(  30) = (  0.4666667  0.7333333  0.0000000  )
        31           C   tau(  31) = (  0.4000000  0.8000000  0.0000000  )
        32           C   tau(  32) = (  0.4666667  0.9333333  0.0000000  )
        33           C   tau(  33) = (  0.6000000  0.0000000  0.0000000  )
        34           C   tau(  34) = (  0.6666667  0.1333333  0.0000000  )
        35           C   tau(  35) = (  0.6000000  0.2000000  0.0000000  )
        36           C   tau(  36) = (  0.6666667  0.3333333  0.0000000  )
        37           C   tau(  37) = (  0.6000000  0.4000000  0.0000000  )
        38           C   tau(  38) = (  0.6666667  0.5333333  0.0000000  )
        39           C   tau(  39) = (  0.6000000  0.6000000  0.0000000  )
        40           C   tau(  40) = (  0.6666667  0.7333333  0.0000000  )
        41           C   tau(  41) = (  0.6000000  0.8000000  0.0000000  )
        42           C   tau(  42) = (  0.6666667  0.9333333  0.0000000  )
        43           C   tau(  43) = (  0.8000000  0.0000000  0.0000000  )
        44           C   tau(  44) = (  0.8666667  0.1333333  0.0000000  )
        45           C   tau(  45) = (  0.8000000  0.2000000  0.0000000  )
        46           C   tau(  46) = (  0.8666667  0.3333333  0.0000000  )
        47           C   tau(  47) = (  0.8000000  0.4000000  0.0000000  )
        48           C   tau(  48) = (  0.8666667  0.5333333  0.0000000  )
        49           C   tau(  49) = (  0.8000000  0.6000000  0.0000000  )
        50           C   tau(  50) = (  0.8666667  0.7333333  0.0000000  )
        51           C   tau(  51) = (  0.8000000  0.8000000  0.0000000  )
        52           C   tau(  52) = (  0.8666667  0.9333333  0.0000000  )

     number of k points=     1  Marzari-Vanderbilt smearing, width (Ry)=  0.0010
                       cart. coord. in units 2pi/alat
        k(    1) = (   0.0000000   0.0000000   0.0000000), wk =   1.0000000

                       cryst. coord.
        k(    1) = (   0.0000000   0.0000000   0.0000000), wk =   1.0000000

     Dense  grid:  1626001 G-vectors     FFT dimensions: ( 180, 180, 135)

     Smooth grid:   702581 G-vectors     FFT dimensions: ( 125, 125, 108)

     Dynamical RAM for                 wfc:      28.36 MB

     Dynamical RAM for     wfc (w. buffer):      85.09 MB

     Dynamical RAM for           str. fact:      12.41 MB

     Dynamical RAM for           local pot:       0.00 MB

     Dynamical RAM for          nlocal pot:      92.46 MB

     Dynamical RAM for                qrad:      19.73 MB

     Dynamical RAM for          rho,v,vnew:      58.92 MB

     Dynamical RAM for               rhoin:      19.64 MB

     Dynamical RAM for            rho*nmix:     132.32 MB

     Dynamical RAM for           G-vectors:      16.40 MB

     Dynamical RAM for          h,s,v(r/c):      11.81 MB

     Dynamical RAM for          <psi|beta>:       0.80 MB

     Dynamical RAM for                 psi:     113.46 MB

     Dynamical RAM for                hpsi:     113.46 MB

     Dynamical RAM for                spsi:     113.46 MB

     Dynamical RAM for      wfcinit/wfcrot:      93.90 MB

     Dynamical RAM for           addusdens:     975.89 MB

     Estimated static dynamical RAM per process >     487.63 MB

     Estimated max dynamical RAM per process >       1.43 GB

     Estimated total dynamical RAM >       8.58 GB
     Generating pointlists ...
     new r_m :   0.0252 (alat units)  0.5862 (a.u.) for type    1
     new r_m :   0.0476 (alat units)  1.1095 (a.u.) for type    2
     new r_m :   0.0476 (alat units)  1.1095 (a.u.) for type    3

     Check: negative core charge=   -0.000002

     Initial potential from superposition of free atoms

     starting charge  210.80465, renormalised to  211.00000

     negative rho (up, down):  9.137E-05 1.088E-02


---------------------------------------------------------------------------------
Carrying out rVV10 run using the following parameters:
Nqs =      20    Nr_points =    1024   r_max =   100.000
b_value =  6.30000    beta =  0.00901
     q_mesh =  0.00010000  0.00030000  0.00058939  0.00100810
               0.00161396  0.00249058  0.00375900  0.00559430
               0.00824984  0.01209221  0.01765183  0.02569619
               0.03733578  0.05417739  0.07854596  0.11380545
               0.16482331  0.23864234  0.34545298  0.50000000

Gradients computed in Reciprocal space

---------------------------------------------------------------------------------


     Starting wfcs are  208 randomized atomic wfcs

     total cpu time spent up to now is       79.3 secs

     Self-consistent Calculation

     iteration #  1     ecut=    70.00 Ry     beta= 0.70
     Davidson diagonalization with overlap
     ethr =  1.00E-02,  avg # of iterations =  3.0

     negative rho (up, down):  1.720E-04 9.100E-03

     total cpu time spent up to now is      206.0 secs

     total energy              =    -753.61145875 Ry
     Harris-Foulkes estimate   =    -756.86060386 Ry
     estimated scf accuracy    <      11.00374062 Ry

     total magnetization       =     5.00 Bohr mag/cell
     absolute magnetization    =     6.00 Bohr mag/cell

     iteration #  2     ecut=    70.00 Ry     beta= 0.70
     Davidson diagonalization with overlap
     ethr =  5.22E-03,  avg # of iterations =  6.0

     negative rho (up, down):  2.052E-03 1.497E-01

     total cpu time spent up to now is      321.6 secs

     total energy              =    -747.34927253 Ry
     Harris-Foulkes estimate   =    -765.66221142 Ry
     estimated scf accuracy    <      63.10912886 Ry

     total magnetization       =     3.00 Bohr mag/cell
     absolute magnetization    =     3.36 Bohr mag/cell

     iteration #  3     ecut=    70.00 Ry     beta= 0.70
     Davidson diagonalization with overlap
     ethr =  5.22E-03,  avg # of iterations =  5.5

     negative rho (up, down):  1.283E-03 2.045E-02

     total cpu time spent up to now is      492.4 secs

     total energy              =    -755.75670675 Ry
     Harris-Foulkes estimate   =    -758.31584140 Ry
     estimated scf accuracy    <      12.29255980 Ry

     total magnetization       =     5.00 Bohr mag/cell
     absolute magnetization    =     5.77 Bohr mag/cell

     iteration #  4     ecut=    70.00 Ry     beta= 0.70
     Davidson diagonalization with overlap
     ethr =  5.22E-03,  avg # of iterations =  3.0

     negative rho (up, down):  3.915E-02 1.920E-02

     total cpu time spent up to now is      584.4 secs

     total energy              =    -757.10157889 Ry
     Harris-Foulkes estimate   =    -757.47262712 Ry
     estimated scf accuracy    <       1.13519013 Ry

     total magnetization       =     1.00 Bohr mag/cell
     absolute magnetization    =     1.70 Bohr mag/cell

     iteration #  5     ecut=    70.00 Ry     beta= 0.70
     Davidson diagonalization with overlap
     ethr =  5.38E-04,  avg # of iterations =  9.0

     negative rho (up, down):  3.795E-02 1.650E-02

     total cpu time spent up to now is      696.8 secs

     total energy              =    -757.24887838 Ry
     Harris-Foulkes estimate   =    -757.29426529 Ry
     estimated scf accuracy    <       0.18009326 Ry

     total magnetization       =     1.00 Bohr mag/cell
     absolute magnetization    =     1.49 Bohr mag/cell

     iteration #  6     ecut=    70.00 Ry     beta= 0.70
     Davidson diagonalization with overlap
     ethr =  8.54E-05,  avg # of iterations =  5.5

     negative rho (up, down):  3.035E-02 1.432E-02

     total cpu time spent up to now is      812.8 secs

     total energy              =    -757.27533704 Ry
     Harris-Foulkes estimate   =    -757.34848230 Ry
     estimated scf accuracy    <       0.31256010 Ry

     total magnetization       =     1.00 Bohr mag/cell
     absolute magnetization    =     1.42 Bohr mag/cell

     iteration #  7     ecut=    70.00 Ry     beta= 0.70
     Davidson diagonalization with overlap
     ethr =  8.54E-05,  avg # of iterations =  4.0

     negative rho (up, down):  3.077E-02 1.168E-02

     total cpu time spent up to now is      916.9 secs

     total energy              =    -757.31597055 Ry
     Harris-Foulkes estimate   =    -757.32262759 Ry
     estimated scf accuracy    <       0.04002093 Ry

     total magnetization       =     1.00 Bohr mag/cell
     absolute magnetization    =     1.37 Bohr mag/cell

     iteration #  8     ecut=    70.00 Ry     beta= 0.70
     Davidson diagonalization with overlap
     ethr =  1.90E-05,  avg # of iterations =  7.5

     negative rho (up, down):  3.019E-02 2.256E-02

     total cpu time spent up to now is     1030.8 secs

     total energy              =    -757.32373673 Ry
     Harris-Foulkes estimate   =    -757.32941183 Ry
     estimated scf accuracy    <       0.04469014 Ry

     total magnetization       =     1.00 Bohr mag/cell
     absolute magnetization    =     1.38 Bohr mag/cell

     iteration #  9     ecut=    70.00 Ry     beta= 0.70
     Davidson diagonalization with overlap
     ethr =  1.90E-05,  avg # of iterations =  3.0

     negative rho (up, down):  3.397E-02 1.543E-02

     total cpu time spent up to now is     1127.8 secs

     total energy              =    -757.32669252 Ry
     Harris-Foulkes estimate   =    -757.32895375 Ry
     estimated scf accuracy    <       0.00764767 Ry

     total magnetization       =     1.00 Bohr mag/cell
     absolute magnetization    =     1.40 Bohr mag/cell

     iteration # 10     ecut=    70.00 Ry     beta= 0.70
     Davidson diagonalization with overlap
     ethr =  3.62E-06,  avg # of iterations =  3.5

     negative rho (up, down):  3.555E-02 1.446E-02

     total cpu time spent up to now is     1225.7 secs

     total energy              =    -757.32686541 Ry
     Harris-Foulkes estimate   =    -757.32934415 Ry
     estimated scf accuracy    <       0.02131595 Ry

     total magnetization       =     1.00 Bohr mag/cell
     absolute magnetization    =     1.43 Bohr mag/cell

     iteration # 11     ecut=    70.00 Ry     beta= 0.70
     Davidson diagonalization with overlap
     ethr =  3.62E-06,  avg # of iterations =  2.0

     negative rho (up, down):  3.360E-02 1.377E-02

     total cpu time spent up to now is     1317.1 secs

     total energy              =    -757.32893992 Ry
     Harris-Foulkes estimate   =    -757.32795709 Ry
     estimated scf accuracy    <       0.00353301 Ry

     total magnetization       =     1.00 Bohr mag/cell
     absolute magnetization    =     1.42 Bohr mag/cell

     iteration # 12     ecut=    70.00 Ry     beta= 0.70
     Davidson diagonalization with overlap
     ethr =  1.67E-06,  avg # of iterations =  4.0

     negative rho (up, down):  3.314E-02 4.224E-03

     total cpu time spent up to now is     1413.6 secs

     total energy              =    -757.33027221 Ry
     Harris-Foulkes estimate   =    -757.32926559 Ry
     estimated scf accuracy    <       0.00071468 Ry

     total magnetization       =     1.00 Bohr mag/cell
     absolute magnetization    =     1.44 Bohr mag/cell

     iteration # 13     ecut=    70.00 Ry     beta= 0.70
     Davidson diagonalization with overlap
     ethr =  3.39E-07,  avg # of iterations =  4.0

     negative rho (up, down):  3.344E-02 4.830E-03

     total cpu time spent up to now is     1508.6 secs

     total energy              =    -757.33032336 Ry
     Harris-Foulkes estimate   =    -757.33036017 Ry
     estimated scf accuracy    <       0.00006680 Ry

     total magnetization       =     1.00 Bohr mag/cell
     absolute magnetization    =     1.46 Bohr mag/cell

     iteration # 14     ecut=    70.00 Ry     beta= 0.70
     Davidson diagonalization with overlap
     ethr =  3.17E-08,  avg # of iterations =  3.5

     negative rho (up, down):  3.379E-02 3.185E-03

     total cpu time spent up to now is     1617.9 secs

     total energy              =    -757.33036286 Ry
     Harris-Foulkes estimate   =    -757.33035223 Ry
     estimated scf accuracy    <       0.00007292 Ry

     total magnetization       =     1.00 Bohr mag/cell
     absolute magnetization    =     1.48 Bohr mag/cell

     iteration # 15     ecut=    70.00 Ry     beta= 0.70
     Davidson diagonalization with overlap
     ethr =  3.17E-08,  avg # of iterations =  2.5

     negative rho (up, down):  3.383E-02 2.121E-03

     total cpu time spent up to now is     1712.8 secs

     total energy              =    -757.33037688 Ry
     Harris-Foulkes estimate   =    -757.33037388 Ry
     estimated scf accuracy    <       0.00002819 Ry

     total magnetization       =     1.00 Bohr mag/cell
     absolute magnetization    =     1.49 Bohr mag/cell

     iteration # 16     ecut=    70.00 Ry     beta= 0.70
     Davidson diagonalization with overlap
     ethr =  1.34E-08,  avg # of iterations =  2.5

     negative rho (up, down):  3.388E-02 2.492E-03

     total cpu time spent up to now is     1804.2 secs

     total energy              =    -757.33037785 Ry
     Harris-Foulkes estimate   =    -757.33038022 Ry
     estimated scf accuracy    <       0.00005014 Ry

     total magnetization       =     1.00 Bohr mag/cell
     absolute magnetization    =     1.50 Bohr mag/cell

     iteration # 17     ecut=    70.00 Ry     beta= 0.70
     Davidson diagonalization with overlap
     ethr =  1.34E-08,  avg # of iterations =  2.0

     negative rho (up, down):  3.381E-02 1.863E-03

     total cpu time spent up to now is     1894.8 secs

     total energy              =    -757.33037809 Ry
     Harris-Foulkes estimate   =    -757.33037915 Ry
     estimated scf accuracy    <       0.00002836 Ry

     total magnetization       =     1.00 Bohr mag/cell
     absolute magnetization    =     1.51 Bohr mag/cell

     iteration # 18     ecut=    70.00 Ry     beta= 0.70
     Davidson diagonalization with overlap
     ethr =  1.34E-08,  avg # of iterations =  2.0

     negative rho (up, down):  3.391E-02 2.361E-03

     total cpu time spent up to now is     1985.8 secs

     total energy              =    -757.33037833 Ry
     Harris-Foulkes estimate   =    -757.33038088 Ry
     estimated scf accuracy    <       0.00001187 Ry

     total magnetization       =     1.00 Bohr mag/cell
     absolute magnetization    =     1.51 Bohr mag/cell

     iteration # 19     ecut=    70.00 Ry     beta= 0.70
     Davidson diagonalization with overlap
     ethr =  5.63E-09,  avg # of iterations =  3.0

     negative rho (up, down):  3.382E-02 2.225E-03

     total cpu time spent up to now is     2085.9 secs

     total energy              =    -757.33037921 Ry
     Harris-Foulkes estimate   =    -757.33038285 Ry
     estimated scf accuracy    <       0.00004358 Ry

     total magnetization       =     1.00 Bohr mag/cell
     absolute magnetization    =     1.52 Bohr mag/cell

     iteration # 20     ecut=    70.00 Ry     beta= 0.70
     Davidson diagonalization with overlap
     ethr =  5.63E-09,  avg # of iterations =  3.5

     negative rho (up, down):  3.381E-02 1.958E-03

     total cpu time spent up to now is     2183.5 secs

     total energy              =    -757.33037947 Ry
     Harris-Foulkes estimate   =    -757.33038267 Ry
     estimated scf accuracy    <       0.00006716 Ry

     total magnetization       =     1.00 Bohr mag/cell
     absolute magnetization    =     1.52 Bohr mag/cell

     iteration # 21     ecut=    70.00 Ry     beta= 0.70
     Davidson diagonalization with overlap
     ethr =  5.63E-09,  avg # of iterations =  3.0

     negative rho (up, down):  3.387E-02 1.718E-03

     total cpu time spent up to now is     2276.2 secs

     total energy              =    -757.33038258 Ry
     Harris-Foulkes estimate   =    -757.33038266 Ry
     estimated scf accuracy    <       0.00002703 Ry

     total magnetization       =     1.00 Bohr mag/cell
     absolute magnetization    =     1.52 Bohr mag/cell

     iteration # 22     ecut=    70.00 Ry     beta= 0.70
     Davidson diagonalization with overlap
     ethr =  5.63E-09,  avg # of iterations =  3.0

     negative rho (up, down):  3.386E-02 1.888E-03

     total cpu time spent up to now is     2381.3 secs

     total energy              =    -757.33038657 Ry
     Harris-Foulkes estimate   =    -757.33038640 Ry
     estimated scf accuracy    <       0.00002659 Ry

     total magnetization       =     1.00 Bohr mag/cell
     absolute magnetization    =     1.54 Bohr mag/cell

     iteration # 23     ecut=    70.00 Ry     beta= 0.70
     Davidson diagonalization with overlap
     ethr =  5.63E-09,  avg # of iterations =  1.0

     negative rho (up, down):  3.384E-02 2.182E-03

     total cpu time spent up to now is     2471.5 secs

     total energy              =    -757.33038586 Ry
     Harris-Foulkes estimate   =    -757.33038692 Ry
     estimated scf accuracy    <       0.00002012 Ry

     total magnetization       =     1.00 Bohr mag/cell
     absolute magnetization    =     1.54 Bohr mag/cell

     iteration # 24     ecut=    70.00 Ry     beta= 0.70
     Davidson diagonalization with overlap
     ethr =  5.63E-09,  avg # of iterations =  1.5

     negative rho (up, down):  3.384E-02 2.115E-03

     total cpu time spent up to now is     2562.0 secs

     total energy              =    -757.33038597 Ry
     Harris-Foulkes estimate   =    -757.33038627 Ry
     estimated scf accuracy    <       0.00001014 Ry

     total magnetization       =     1.00 Bohr mag/cell
     absolute magnetization    =     1.54 Bohr mag/cell

     iteration # 25     ecut=    70.00 Ry     beta= 0.70
     Davidson diagonalization with overlap
     ethr =  4.81E-09,  avg # of iterations =  1.5

     negative rho (up, down):  3.385E-02 1.634E-03

     total cpu time spent up to now is     2652.4 secs

     total energy              =    -757.33038651 Ry
     Harris-Foulkes estimate   =    -757.33038644 Ry
     estimated scf accuracy    <       0.00000654 Ry

     total magnetization       =     1.00 Bohr mag/cell
     absolute magnetization    =     1.54 Bohr mag/cell

     iteration # 26     ecut=    70.00 Ry     beta= 0.70
     Davidson diagonalization with overlap
     ethr =  3.10E-09,  avg # of iterations =  2.5

     negative rho (up, down):  3.385E-02 1.659E-03

     total cpu time spent up to now is     2745.6 secs

     total energy              =    -757.33038686 Ry
     Harris-Foulkes estimate   =    -757.33038727 Ry
     estimated scf accuracy    <       0.00000158 Ry

     total magnetization       =     1.00 Bohr mag/cell
     absolute magnetization    =     1.54 Bohr mag/cell

     iteration # 27     ecut=    70.00 Ry     beta= 0.70
     Davidson diagonalization with overlap
     ethr =  7.47E-10,  avg # of iterations =  2.5

     negative rho (up, down):  3.385E-02 1.640E-03

     total cpu time spent up to now is     2837.4 secs

     total energy              =    -757.33038675 Ry
     Harris-Foulkes estimate   =    -757.33038707 Ry
     estimated scf accuracy    <       0.00000307 Ry

     total magnetization       =     1.00 Bohr mag/cell
     absolute magnetization    =     1.54 Bohr mag/cell

     iteration # 28     ecut=    70.00 Ry     beta= 0.70
     Davidson diagonalization with overlap
     ethr =  7.47E-10,  avg # of iterations =  3.0

     negative rho (up, down):  3.386E-02 1.613E-03

     total cpu time spent up to now is     2949.7 secs

     total energy              =    -757.33038738 Ry
     Harris-Foulkes estimate   =    -757.33038740 Ry
     estimated scf accuracy    <       0.00000112 Ry

     total magnetization       =     1.00 Bohr mag/cell
     absolute magnetization    =     1.54 Bohr mag/cell

     iteration # 29     ecut=    70.00 Ry     beta= 0.70
     Davidson diagonalization with overlap
     ethr =  5.29E-10,  avg # of iterations =  2.5

     negative rho (up, down):  3.386E-02 1.607E-03

     Magnetic moment per site:
     atom:    1    charge:    0.2114    magn:   -0.0000    constr:    0.0000
     atom:    2    charge:    0.2110    magn:   -0.0000    constr:    0.0000
     atom:    3    charge:    1.7176    magn:   -0.0068    constr:    0.0000
     atom:    4    charge:    1.7157    magn:    0.0094    constr:    0.0000
     atom:    5    charge:    1.7183    magn:   -0.0042    constr:    0.0000
     atom:    6    charge:    1.7141    magn:    0.0026    constr:    0.0000
     atom:    7    charge:    1.7183    magn:   -0.0042    constr:    0.0000
     atom:    8    charge:    1.7157    magn:    0.0094    constr:    0.0000
     atom:    9    charge:    1.7177    magn:   -0.0068    constr:    0.0000
     atom:   10    charge:    1.7145    magn:    0.0310    constr:    0.0000
     atom:   11    charge:    1.7186    magn:   -0.0089    constr:    0.0000
     atom:   12    charge:    1.7144    magn:    0.0312    constr:    0.0000
     atom:   13    charge:    1.7186    magn:   -0.0089    constr:    0.0000
     atom:   14    charge:    1.7145    magn:    0.0231    constr:    0.0000
     atom:   15    charge:    1.7169    magn:   -0.0079    constr:    0.0000
     atom:   16    charge:    1.7111    magn:    0.0301    constr:    0.0000
     atom:   17    charge:    1.7270    magn:   -0.0053    constr:    0.0000
     atom:   18    charge:    1.7110    magn:    0.0301    constr:    0.0000
     atom:   19    charge:    1.7169    magn:   -0.0079    constr:    0.0000
     atom:   20    charge:    1.7145    magn:    0.0233    constr:    0.0000
     atom:   21    charge:    1.7186    magn:   -0.0089    constr:    0.0000
     atom:   22    charge:    1.7144    magn:    0.0305    constr:    0.0000
     atom:   23    charge:    1.7177    magn:   -0.0067    constr:    0.0000
     atom:   24    charge:    1.7157    magn:    0.0093    constr:    0.0000
     atom:   25    charge:    1.7169    magn:   -0.0078    constr:    0.0000
     atom:   26    charge:    1.7111    magn:    0.0294    constr:    0.0000
     atom:   27    charge:    1.9148    magn:   -0.0004    constr:    0.0000
     atom:   28    charge:    7.8614    magn:    0.1022    constr:    0.0000
     atom:   29    charge:    1.9148    magn:   -0.0004    constr:    0.0000
     atom:   30    charge:    1.7110    magn:    0.0297    constr:    0.0000
     atom:   31    charge:    1.7169    magn:   -0.0079    constr:    0.0000
     atom:   32    charge:    1.7157    magn:    0.0093    constr:    0.0000
     atom:   33    charge:    1.7183    magn:   -0.0042    constr:    0.0000
     atom:   34    charge:    1.7138    magn:    0.0067    constr:    0.0000
     atom:   35    charge:    1.7183    magn:   -0.0042    constr:    0.0000
     atom:   36    charge:    1.7141    magn:    0.0026    constr:    0.0000
     atom:   37    charge:    1.7270    magn:   -0.0051    constr:    0.0000
     atom:   38    charge:    1.7111    magn:    0.0293    constr:    0.0000
     atom:   39    charge:    1.9149    magn:   -0.0004    constr:    0.0000
     atom:   40    charge:    1.7110    magn:    0.0296    constr:    0.0000
     atom:   41    charge:    1.7270    magn:   -0.0052    constr:    0.0000
     atom:   42    charge:    1.7141    magn:    0.0026    constr:    0.0000
     atom:   43    charge:    1.7183    magn:   -0.0042    constr:    0.0000
     atom:   44    charge:    1.7138    magn:    0.0069    constr:    0.0000
     atom:   45    charge:    1.7245    magn:   -0.0031    constr:    0.0000
     atom:   46    charge:    1.7138    magn:    0.0068    constr:    0.0000
     atom:   47    charge:    1.7183    magn:   -0.0042    constr:    0.0000
     atom:   48    charge:    1.7157    magn:    0.0094    constr:    0.0000
     atom:   49    charge:    1.7169    magn:   -0.0078    constr:    0.0000
     atom:   50    charge:    1.7145    magn:    0.0228    constr:    0.0000
     atom:   51    charge:    1.7169    magn:   -0.0078    constr:    0.0000
     atom:   52    charge:    1.7157    magn:    0.0094    constr:    0.0000

     total cpu time spent up to now is     3047.1 secs

     End of self-consistent calculation

 ------ SPIN UP ------------


          k = 0.0000 0.0000 0.0000 ( 87777 PWs)   bands (ev):

   -62.8457 -37.9302 -37.9289 -36.6131 -19.6360 -18.7936 -18.7923 -18.7234
   -18.6778 -18.6772 -18.2424 -16.9376 -16.9375 -16.9371 -16.8011 -16.8005
   -16.5180 -16.0845 -16.0844 -15.9904 -15.8357 -15.8355 -15.0843 -13.8965
   -13.8904 -13.8898 -13.8635 -13.8634 -13.1353 -12.9189 -12.9187 -12.9009
   -12.5074 -12.5073 -12.1142 -11.6472 -11.6470 -11.5225 -11.1410 -11.1409
   -10.1521  -9.3395  -9.3393  -9.2591  -9.1837  -9.1835  -9.0939  -9.0693
    -9.0692  -9.0532  -8.4651  -8.4649  -7.8960  -7.8958  -7.8610  -7.8023
    -7.6786  -7.2554  -7.2550  -6.9629  -6.9618  -6.8986  -6.7254  -6.7042
    -6.7002  -6.6995  -6.5932  -6.5931  -6.5466  -6.4363  -6.4357  -6.3920
    -6.3874  -6.3871  -6.3349  -6.3145  -5.2614  -5.2610  -5.1570  -5.1564
    -4.9470  -4.9468  -4.8357  -4.7477  -4.6208  -4.6093  -4.6090  -4.2451
    -3.9866  -3.9864  -3.7604  -3.7603  -3.6605  -3.6324  -3.5000  -3.4999
    -2.8995  -2.2609  -2.2606  -2.2248  -2.2241  -1.7490  -1.6830  -1.6828
    -0.5413  -0.2406  -0.2404   0.8671   1.0482   1.0799   1.0802   1.7923
     2.0495   2.0497   2.5955   2.8953   2.8956   2.9742   3.3253   3.5048
     3.5989   3.7320   3.7448   3.7837   3.9794   4.0009   4.0013

     occupation numbers 
     1.0000   1.0000   1.0000   1.0000   1.0000   1.0000   1.0000   1.0000
     1.0000   1.0000   1.0000   1.0000   1.0000   1.0000   1.0000   1.0000
     1.0000   1.0000   1.0000   1.0000   1.0000   1.0000   1.0000   1.0000
     1.0000   1.0000   1.0000   1.0000   1.0000   1.0000   1.0000   1.0000
     1.0000   1.0000   1.0000   1.0000   1.0000   1.0000   1.0000   1.0000
     1.0000   1.0000   1.0000   1.0000   1.0000   1.0000   1.0000   1.0000
     1.0000   1.0000   1.0000   1.0000   1.0000   1.0000   1.0000   1.0000
     1.0000   1.0000   1.0000   1.0000   1.0000   1.0000   1.0000   1.0000
     1.0000   1.0000   1.0000   1.0000   1.0000   1.0000   1.0000   1.0000
     1.0000   1.0000   1.0000   1.0000   1.0000   1.0000   1.0000   1.0000
     1.0000   1.0000   1.0000   1.0000   1.0000   1.0000   1.0000   1.0000
     1.0000   1.0000   1.0000   1.0000   1.0000   1.0000   1.0000   1.0000
     1.0000   1.0000   1.0000   1.0000   1.0000   1.0000   1.0000   1.0000
     1.0000   0.5063   0.4937   0.0000   0.0000   0.0000   0.0000   0.0000
     0.0000   0.0000   0.0000   0.0000   0.0000   0.0000   0.0000   0.0000
     0.0000   0.0000   0.0000   0.0000   0.0000   0.0000   0.0000

 ------ SPIN DOWN ----------


          k = 0.0000 0.0000 0.0000 ( 87777 PWs)   bands (ev):

   -62.6484 -37.7690 -37.7645 -36.3433 -19.6142 -18.7721 -18.7705 -18.7032
   -18.6612 -18.6605 -18.2104 -16.9215 -16.9187 -16.9181 -16.7728 -16.7720
   -16.5038 -16.0573 -16.0572 -15.9746 -15.8147 -15.8144 -15.0696 -13.8599
   -13.8598 -13.8594 -13.8499 -13.8486 -13.1385 -12.9083 -12.9080 -12.8853
   -12.4993 -12.4991 -12.0958 -11.6293 -11.6292 -11.5092 -11.1286 -11.1284
   -10.1376  -9.3226  -9.3222  -9.2461  -9.1663  -9.1660  -9.0859  -9.0551
    -9.0551  -9.0440  -8.4583  -8.4581  -7.8846  -7.8843  -7.8540  -7.7500
    -7.6701  -7.2466  -7.2462  -6.8854  -6.8839  -6.8782  -6.7238  -6.6679
    -6.6672  -6.6520  -6.5819  -6.5818  -6.5370  -6.4267  -6.4261  -6.3862
    -6.3808  -6.3805  -6.3268  -6.2373  -5.2532  -5.2527  -5.0724  -5.0708
    -4.9371  -4.9369  -4.8299  -4.7417  -4.5789  -4.5584  -4.5577  -4.2073
    -3.9356  -3.9348  -3.6861  -3.6860  -3.6142  -3.6024  -3.4934  -3.4933
    -2.8662  -2.1934  -2.1926  -2.1591  -2.1580  -1.6672  -1.6671  -1.6545
    -0.5356  -0.0154  -0.0113   0.9441   1.1011   1.1013   1.1256   1.8640
     2.1197   2.1207   2.6027   2.9667   2.9670   3.0155   3.3290   3.5108
     3.6433   3.7345   3.7467   3.7882   4.0000   4.0721   4.0732

     occupation numbers 
     1.0000   1.0000   1.0000   1.0000   1.0000   1.0000   1.0000   1.0000
     1.0000   1.0000   1.0000   1.0000   1.0000   1.0000   1.0000   1.0000
     1.0000   1.0000   1.0000   1.0000   1.0000   1.0000   1.0000   1.0000
     1.0000   1.0000   1.0000   1.0000   1.0000   1.0000   1.0000   1.0000
     1.0000   1.0000   1.0000   1.0000   1.0000   1.0000   1.0000   1.0000
     1.0000   1.0000   1.0000   1.0000   1.0000   1.0000   1.0000   1.0000
     1.0000   1.0000   1.0000   1.0000   1.0000   1.0000   1.0000   1.0000
     1.0000   1.0000   1.0000   1.0000   1.0000   1.0000   1.0000   1.0000
     1.0000   1.0000   1.0000   1.0000   1.0000   1.0000   1.0000   1.0000
     1.0000   1.0000   1.0000   1.0000   1.0000   1.0000   1.0000   1.0000
     1.0000   1.0000   1.0000   1.0000   1.0000   1.0000   1.0000   1.0000
     1.0000   1.0000   1.0000   1.0000   1.0000   1.0000   1.0000   1.0000
     1.0000   1.0000   1.0000   1.0000   1.0000   1.0000   1.0000   1.0000
     1.0000   0.0000   0.0000   0.0000   0.0000   0.0000   0.0000   0.0000
     0.0000   0.0000   0.0000   0.0000   0.0000   0.0000   0.0000   0.0000
     0.0000   0.0000   0.0000   0.0000   0.0000   0.0000   0.0000

     the Fermi energy is    -0.2386 ev

!    total energy              =    -757.33038742 Ry
     Harris-Foulkes estimate   =    -757.33038760 Ry
     estimated scf accuracy    <       0.00000038 Ry

     The total energy is the sum of the following terms:

     one-electron contribution =   -2568.09645451 Ry
     hartree contribution      =    1330.87940455 Ry
     xc contribution           =    -252.66452888 Ry
     ewald contribution        =     732.55151955 Ry
     smearing contrib. (-TS)   =      -0.00032813 Ry

     total magnetization       =     1.00 Bohr mag/cell
     absolute magnetization    =     1.54 Bohr mag/cell

     convergence has been achieved in  29 iterations

     Writing output data file vanadio-bridge2-distance-4.5.save/

     init_run     :     76.97s CPU     78.20s WALL (       1 calls)
     electrons    :   2919.10s CPU   2967.94s WALL (       1 calls)

     Called by init_run:
     wfcinit      :     41.59s CPU     41.83s WALL (       1 calls)
     wfcinit:atom :      0.04s CPU      0.08s WALL (       2 calls)
     wfcinit:wfcr :     41.21s CPU     41.36s WALL (       2 calls)
     potinit      :     14.73s CPU     15.15s WALL (       1 calls)
     hinit0       :     12.22s CPU     12.24s WALL (       1 calls)

     Called by electrons:
     c_bands      :   1889.57s CPU   1900.04s WALL (      29 calls)
     sum_band     :    594.53s CPU    610.00s WALL (      29 calls)
     v_of_rho     :    215.43s CPU    224.52s WALL (      30 calls)
     v_h          :      2.24s CPU      2.31s WALL (      30 calls)
     v_xc         :    213.19s CPU    222.21s WALL (      30 calls)
     newd         :    214.25s CPU    228.51s WALL (      30 calls)
     mix_rho      :     12.92s CPU     13.15s WALL (      29 calls)

     Called by c_bands:
     init_us_2    :      5.33s CPU      5.37s WALL (     118 calls)
     cegterg      :   1876.00s CPU   1886.37s WALL (      58 calls)

     Called by sum_band:
     sum_band:bec :      0.05s CPU      0.05s WALL (      58 calls)
     addusdens    :    364.62s CPU    378.65s WALL (      29 calls)

     Called by *egterg:
     h_psi        :    984.22s CPU    991.27s WALL (     259 calls)
     s_psi        :    331.84s CPU    332.09s WALL (     259 calls)
     g_psi        :      1.07s CPU      1.08s WALL (     199 calls)
     cdiaghg      :     18.52s CPU     18.53s WALL (     257 calls)
     cegterg:over :    230.91s CPU    231.08s WALL (     199 calls)
     cegterg:upda :    146.89s CPU    147.80s WALL (     199 calls)
     cegterg:last :    103.74s CPU    103.80s WALL (      59 calls)

     Called by h_psi:
     h_psi:pot    :    983.07s CPU    988.97s WALL (     259 calls)
     h_psi:calbec :    329.69s CPU    329.95s WALL (     259 calls)
     vloc_psi     :    321.34s CPU    326.81s WALL (     259 calls)
     add_vuspsi   :    332.04s CPU    332.20s WALL (     259 calls)

     General routines
     calbec       :    467.43s CPU    467.77s WALL (     317 calls)
     fft          :    127.75s CPU    131.64s WALL (    2244 calls)
     ffts         :      2.20s CPU      2.25s WALL (     118 calls)
     fftw         :    339.26s CPU    345.25s WALL (   42698 calls)
     interpolate  :      5.03s CPU      5.19s WALL (      60 calls)

     Parallel routines
     fft_scatt_xy :     82.69s CPU     83.79s WALL (   45060 calls)
     fft_scatt_yz :    163.51s CPU    170.77s WALL (   45060 calls)

     PWSCF        :  49m57.38s CPU  50m47.79s WALL


   This run was terminated on:   1:58: 7   2Sep2022            

=------------------------------------------------------------------------------=
   JOB DONE.
=------------------------------------------------------------------------------=
