
     Program PWSCF v.6.4.1 starts on  2Sep2022 at  4:19:45 

     This program is part of the open-source Quantum ESPRESSO suite
     for quantum simulation of materials; please cite
         "P. Giannozzi et al., J. Phys.:Condens. Matter 21 395502 (2009);
         "P. Giannozzi et al., J. Phys.:Condens. Matter 29 465901 (2017);
          URL http://www.quantum-espresso.org", 
     in publications or presentations arising from this work. More details at
     http://www.quantum-espresso.org/quote

     Parallel version (MPI), running on     6 processors

     MPI processes distributed on     1 nodes
     R & G space division:  proc/nbgrp/npool/nimage =       6
     Reading input from distance-2.8.in

     Current dimensions of program PWSCF are:
     Max number of different atomic species (ntypx) = 10
     Max number of k-points (npk) =  40000
     Max angular momentum in pseudopotentials (lmaxx) =  3

     IMPORTANT: XC functional enforced from input :
     Exchange-correlation      = RVV10 ( 1  4 13  4 3 0)
     Any further DFT definition will be discarded
     Please, verify this is what you really want

               file H.pbe-rrkjus.UPF: wavefunction(s)  1S renormalized
               file V.pbe-spnl-rrkjus_psl.1.0.0.UPF: wavefunction(s)  3P 3D renormalized

     Subspace diagonalization in iterative solution of the eigenvalue problem:
     a serial algorithm will be used


     Parallelization info
     --------------------
     sticks:   dense  smooth     PW     G-vecs:    dense   smooth      PW
     Min        3051    1746    432               270999   117096   14629
     Max        3053    1747    437               271001   117099   14630
     Sum       18313   10477   2611              1626001   702581   87777



     bravais-lattice index     =            4
     lattice parameter (alat)  =      23.2937  a.u.
     unit-cell volume          =    8879.8548 (a.u.)^3
     number of atoms/cell      =           52
     number of atomic types    =            3
     number of electrons       =       211.00
     number of Kohn-Sham states=          127
     kinetic-energy cutoff     =      70.0000  Ry
     charge density cutoff     =     490.0000  Ry
     convergence threshold     =      1.0E-06
     mixing beta               =       0.7000
     number of iterations used =            8  plain     mixing
     Exchange-correlation      = RVV10 ( 1  4 13  4 3 0)

     celldm(1)=  23.293684  celldm(2)=   0.000000  celldm(3)=   0.811261
     celldm(4)=   0.000000  celldm(5)=   0.000000  celldm(6)=   0.000000

     crystal axes: (cart. coord. in units of alat)
               a(1) = (   1.000000   0.000000   0.000000 )  
               a(2) = (  -0.500000   0.866025   0.000000 )  
               a(3) = (   0.000000   0.000000   0.811261 )  

     reciprocal axes: (cart. coord. in units 2 pi/alat)
               b(1) = (  1.000000  0.577350 -0.000000 )  
               b(2) = (  0.000000  1.154701  0.000000 )  
               b(3) = (  0.000000 -0.000000  1.232649 )  


     PseudoPot. # 1 for H  read from file:
     /home/cristian/Escritorio/Proyecto_Grafeno/pseudopotenciales/H.pbe-rrkjus.UPF
     MD5 check sum: 7cc9d459525c9a0585f487a71c3c9563
     Pseudo is Ultrasoft, Zval =  1.0
     Generated by new atomic code, or converted to UPF format
     Using radial grid of 1061 points,  2 beta functions with: 
                l(1) =   0
                l(2) =   0
     Q(r) pseudized with 0 coefficients 


     PseudoPot. # 2 for C  read from file:
     /home/cristian/Escritorio/Proyecto_Grafeno/pseudopotenciales/C.pbe-n-rrkjus_psl.1.0.0.UPF
     MD5 check sum: 1fdd950c42eb37d8afe3dd2f8d12311e
     Pseudo is Ultrasoft + core correction, Zval =  4.0
     Generated using "atomic" code by A. Dal Corso v.6.3MaX
     Using radial grid of 1073 points,  4 beta functions with: 
                l(1) =   0
                l(2) =   0
                l(3) =   1
                l(4) =   1
     Q(r) pseudized with 0 coefficients 


     PseudoPot. # 3 for V  read from file:
     /home/cristian/Escritorio/Proyecto_Grafeno/pseudopotenciales/V.pbe-spnl-rrkjus_psl.1.0.0.UPF
     MD5 check sum: 79b3eb63147daf0b665d9f1bcc691206
     Pseudo is Ultrasoft + core correction, Zval = 13.0
     Generated using "atomic" code by A. Dal Corso v.6.2.2
     Using radial grid of 1181 points,  6 beta functions with: 
                l(1) =   0
                l(2) =   0
                l(3) =   1
                l(4) =   1
                l(5) =   2
                l(6) =   2
     Q(r) pseudized with 0 coefficients 


     vdW kernel table read from file rVV10_kernel_table
     MD5 check sum: b8e2538accc0c0b3206b45ba4daaba6c

     atomic species   valence    mass     pseudopotential
        H              1.00     1.00794     H ( 1.00)
        C              4.00    12.01070     C ( 1.00)
        V             13.00    50.94150     V ( 1.00)

     Starting magnetic structure 
     atomic species   magnetization
        H            0.500
        C            0.300
        V            0.800

     No symmetry found


                                    s                        frac. trans.

      isym =  1     identity                                     

 cryst.   s( 1) = (     1          0          0      )
                  (     0          1          0      )
                  (     0          0          1      )

 cart.    s( 1) = (  1.0000000  0.0000000  0.0000000 )
                  (  0.0000000  1.0000000  0.0000000 )
                  (  0.0000000  0.0000000  1.0000000 )


     point group C_1 (1)    
     there are  1 classes
     the character table:

       E    
A      1.00

     the symmetry operations in each class and the name of the first element:

     E        1
          identity                                               

   Cartesian axes

     site n.     atom                  positions (alat units)
         1           H   tau(   1) = (   0.2194937   0.4330127   0.2271531  )
         2           H   tau(   2) = (   0.2805063   0.4330127   0.2271531  )
         3           C   tau(   3) = (   0.0000000   0.0000000   0.0000000  )
         4           C   tau(   4) = (   0.0000000   0.1154701   0.0000000  )
         5           C   tau(   5) = (  -0.1000000   0.1732051   0.0000000  )
         6           C   tau(   6) = (  -0.1000000   0.2886751   0.0000000  )
         7           C   tau(   7) = (  -0.2000000   0.3464102   0.0000000  )
         8           C   tau(   8) = (  -0.2000000   0.4618802   0.0000000  )
         9           C   tau(   9) = (  -0.3000000   0.5196152   0.0000000  )
        10           C   tau(  10) = (  -0.3000000   0.6350853   0.0000000  )
        11           C   tau(  11) = (  -0.4000000   0.6928203   0.0000000  )
        12           C   tau(  12) = (  -0.4000000   0.8082904   0.0000000  )
        13           C   tau(  13) = (   0.2000000   0.0000000   0.0000000  )
        14           C   tau(  14) = (   0.2000000   0.1154701   0.0000000  )
        15           C   tau(  15) = (   0.1000000   0.1732051   0.0000000  )
        16           C   tau(  16) = (   0.1000000   0.2886751   0.0000000  )
        17           C   tau(  17) = (   0.0000000   0.3464102   0.0000000  )
        18           C   tau(  18) = (   0.0000000   0.4618802   0.0000000  )
        19           C   tau(  19) = (  -0.1000000   0.5196152   0.0000000  )
        20           C   tau(  20) = (  -0.1000000   0.6350853   0.0000000  )
        21           C   tau(  21) = (  -0.2000000   0.6928203   0.0000000  )
        22           C   tau(  22) = (  -0.2000000   0.8082904   0.0000000  )
        23           C   tau(  23) = (   0.4000000   0.0000000   0.0000000  )
        24           C   tau(  24) = (   0.4000000   0.1154701   0.0000000  )
        25           C   tau(  25) = (   0.3000000   0.1732051   0.0000000  )
        26           C   tau(  26) = (   0.3000000   0.2886751   0.0000000  )
        27           C   tau(  27) = (   0.2000000   0.3464102   0.0000000  )
        28           V   tau(  28) = (   0.2000000   0.4618802   0.0000000  )
        29           C   tau(  29) = (   0.1000000   0.5196152   0.0000000  )
        30           C   tau(  30) = (   0.1000000   0.6350853   0.0000000  )
        31           C   tau(  31) = (   0.0000000   0.6928203   0.0000000  )
        32           C   tau(  32) = (   0.0000000   0.8082904   0.0000000  )
        33           C   tau(  33) = (   0.6000000   0.0000000   0.0000000  )
        34           C   tau(  34) = (   0.6000000   0.1154701   0.0000000  )
        35           C   tau(  35) = (   0.5000000   0.1732051   0.0000000  )
        36           C   tau(  36) = (   0.5000000   0.2886751   0.0000000  )
        37           C   tau(  37) = (   0.4000000   0.3464102   0.0000000  )
        38           C   tau(  38) = (   0.4000000   0.4618802   0.0000000  )
        39           C   tau(  39) = (   0.3000000   0.5196152   0.0000000  )
        40           C   tau(  40) = (   0.3000000   0.6350853   0.0000000  )
        41           C   tau(  41) = (   0.2000000   0.6928203   0.0000000  )
        42           C   tau(  42) = (   0.2000000   0.8082904   0.0000000  )
        43           C   tau(  43) = (   0.8000000   0.0000000   0.0000000  )
        44           C   tau(  44) = (   0.8000000   0.1154701   0.0000000  )
        45           C   tau(  45) = (   0.7000000   0.1732051   0.0000000  )
        46           C   tau(  46) = (   0.7000000   0.2886751   0.0000000  )
        47           C   tau(  47) = (   0.6000000   0.3464102   0.0000000  )
        48           C   tau(  48) = (   0.6000000   0.4618802   0.0000000  )
        49           C   tau(  49) = (   0.5000000   0.5196152   0.0000000  )
        50           C   tau(  50) = (   0.5000000   0.6350853   0.0000000  )
        51           C   tau(  51) = (   0.4000000   0.6928203   0.0000000  )
        52           C   tau(  52) = (   0.4000000   0.8082904   0.0000000  )

   Crystallographic axes

     site n.     atom                  positions (cryst. coord.)
         1           H   tau(   1) = (  0.4694937  0.5000000  0.2800000  )
         2           H   tau(   2) = (  0.5305063  0.5000000  0.2800000  )
         3           C   tau(   3) = (  0.0000000  0.0000000  0.0000000  )
         4           C   tau(   4) = (  0.0666667  0.1333333  0.0000000  )
         5           C   tau(   5) = (  0.0000000  0.2000000  0.0000000  )
         6           C   tau(   6) = (  0.0666667  0.3333333  0.0000000  )
         7           C   tau(   7) = (  0.0000000  0.4000000  0.0000000  )
         8           C   tau(   8) = (  0.0666667  0.5333333  0.0000000  )
         9           C   tau(   9) = (  0.0000000  0.6000000  0.0000000  )
        10           C   tau(  10) = (  0.0666667  0.7333333  0.0000000  )
        11           C   tau(  11) = (  0.0000000  0.8000000  0.0000000  )
        12           C   tau(  12) = (  0.0666667  0.9333333  0.0000000  )
        13           C   tau(  13) = (  0.2000000  0.0000000  0.0000000  )
        14           C   tau(  14) = (  0.2666667  0.1333333  0.0000000  )
        15           C   tau(  15) = (  0.2000000  0.2000000  0.0000000  )
        16           C   tau(  16) = (  0.2666667  0.3333333  0.0000000  )
        17           C   tau(  17) = (  0.2000000  0.4000000  0.0000000  )
        18           C   tau(  18) = (  0.2666667  0.5333333  0.0000000  )
        19           C   tau(  19) = (  0.2000000  0.6000000  0.0000000  )
        20           C   tau(  20) = (  0.2666667  0.7333333  0.0000000  )
        21           C   tau(  21) = (  0.2000000  0.8000000  0.0000000  )
        22           C   tau(  22) = (  0.2666667  0.9333333  0.0000000  )
        23           C   tau(  23) = (  0.4000000  0.0000000  0.0000000  )
        24           C   tau(  24) = (  0.4666667  0.1333333  0.0000000  )
        25           C   tau(  25) = (  0.4000000  0.2000000  0.0000000  )
        26           C   tau(  26) = (  0.4666667  0.3333333  0.0000000  )
        27           C   tau(  27) = (  0.4000000  0.4000000  0.0000000  )
        28           V   tau(  28) = (  0.4666667  0.5333333  0.0000000  )
        29           C   tau(  29) = (  0.4000000  0.6000000  0.0000000  )
        30           C   tau(  30) = (  0.4666667  0.7333333  0.0000000  )
        31           C   tau(  31) = (  0.4000000  0.8000000  0.0000000  )
        32           C   tau(  32) = (  0.4666667  0.9333333  0.0000000  )
        33           C   tau(  33) = (  0.6000000  0.0000000  0.0000000  )
        34           C   tau(  34) = (  0.6666667  0.1333333  0.0000000  )
        35           C   tau(  35) = (  0.6000000  0.2000000  0.0000000  )
        36           C   tau(  36) = (  0.6666667  0.3333333  0.0000000  )
        37           C   tau(  37) = (  0.6000000  0.4000000  0.0000000  )
        38           C   tau(  38) = (  0.6666667  0.5333333  0.0000000  )
        39           C   tau(  39) = (  0.6000000  0.6000000  0.0000000  )
        40           C   tau(  40) = (  0.6666667  0.7333333  0.0000000  )
        41           C   tau(  41) = (  0.6000000  0.8000000  0.0000000  )
        42           C   tau(  42) = (  0.6666667  0.9333333  0.0000000  )
        43           C   tau(  43) = (  0.8000000  0.0000000  0.0000000  )
        44           C   tau(  44) = (  0.8666667  0.1333333  0.0000000  )
        45           C   tau(  45) = (  0.8000000  0.2000000  0.0000000  )
        46           C   tau(  46) = (  0.8666667  0.3333333  0.0000000  )
        47           C   tau(  47) = (  0.8000000  0.4000000  0.0000000  )
        48           C   tau(  48) = (  0.8666667  0.5333333  0.0000000  )
        49           C   tau(  49) = (  0.8000000  0.6000000  0.0000000  )
        50           C   tau(  50) = (  0.8666667  0.7333333  0.0000000  )
        51           C   tau(  51) = (  0.8000000  0.8000000  0.0000000  )
        52           C   tau(  52) = (  0.8666667  0.9333333  0.0000000  )

     number of k points=     1  Marzari-Vanderbilt smearing, width (Ry)=  0.0010
                       cart. coord. in units 2pi/alat
        k(    1) = (   0.0000000   0.0000000   0.0000000), wk =   1.0000000

                       cryst. coord.
        k(    1) = (   0.0000000   0.0000000   0.0000000), wk =   1.0000000

     Dense  grid:  1626001 G-vectors     FFT dimensions: ( 180, 180, 135)

     Smooth grid:   702581 G-vectors     FFT dimensions: ( 125, 125, 108)

     Dynamical RAM for                 wfc:      28.36 MB

     Dynamical RAM for     wfc (w. buffer):      85.09 MB

     Dynamical RAM for           str. fact:      12.41 MB

     Dynamical RAM for           local pot:       0.00 MB

     Dynamical RAM for          nlocal pot:      92.46 MB

     Dynamical RAM for                qrad:      19.73 MB

     Dynamical RAM for          rho,v,vnew:      58.92 MB

     Dynamical RAM for               rhoin:      19.64 MB

     Dynamical RAM for            rho*nmix:     132.32 MB

     Dynamical RAM for           G-vectors:      16.40 MB

     Dynamical RAM for          h,s,v(r/c):      11.81 MB

     Dynamical RAM for          <psi|beta>:       0.80 MB

     Dynamical RAM for                 psi:     113.46 MB

     Dynamical RAM for                hpsi:     113.46 MB

     Dynamical RAM for                spsi:     113.46 MB

     Dynamical RAM for      wfcinit/wfcrot:      93.90 MB

     Dynamical RAM for           addusdens:     975.89 MB

     Estimated static dynamical RAM per process >     487.63 MB

     Estimated max dynamical RAM per process >       1.43 GB

     Estimated total dynamical RAM >       8.58 GB
     Generating pointlists ...
     new r_m :   0.0252 (alat units)  0.5862 (a.u.) for type    1
     new r_m :   0.0476 (alat units)  1.1095 (a.u.) for type    2
     new r_m :   0.0476 (alat units)  1.1095 (a.u.) for type    3

     Check: negative core charge=   -0.000002

     Initial potential from superposition of free atoms

     starting charge  210.80465, renormalised to  211.00000

     negative rho (up, down):  1.179E-04 1.543E-02


---------------------------------------------------------------------------------
Carrying out rVV10 run using the following parameters:
Nqs =      20    Nr_points =    1024   r_max =   100.000
b_value =  6.30000    beta =  0.00901
     q_mesh =  0.00010000  0.00030000  0.00058939  0.00100810
               0.00161396  0.00249058  0.00375900  0.00559430
               0.00824984  0.01209221  0.01765183  0.02569619
               0.03733578  0.05417739  0.07854596  0.11380545
               0.16482331  0.23864234  0.34545298  0.50000000

Gradients computed in Reciprocal space

---------------------------------------------------------------------------------


     Starting wfcs are  208 randomized atomic wfcs

     total cpu time spent up to now is       78.8 secs

     Self-consistent Calculation

     iteration #  1     ecut=    70.00 Ry     beta= 0.70
     Davidson diagonalization with overlap
     ethr =  1.00E-02,  avg # of iterations =  3.0

     negative rho (up, down):  2.413E-04 1.285E-02

     total cpu time spent up to now is      204.0 secs

     total energy              =    -753.00745149 Ry
     Harris-Foulkes estimate   =    -756.94741918 Ry
     estimated scf accuracy    <      11.78009816 Ry

     total magnetization       =     5.00 Bohr mag/cell
     absolute magnetization    =     6.05 Bohr mag/cell

     iteration #  2     ecut=    70.00 Ry     beta= 0.70
     Davidson diagonalization with overlap
     ethr =  5.58E-03,  avg # of iterations =  7.0

     negative rho (up, down):  3.267E-03 1.835E-01

     total cpu time spent up to now is      321.9 secs

     total energy              =    -746.71544687 Ry
     Harris-Foulkes estimate   =    -767.77569348 Ry
     estimated scf accuracy    <      72.58933575 Ry

     total magnetization       =     3.00 Bohr mag/cell
     absolute magnetization    =     3.35 Bohr mag/cell

     iteration #  3     ecut=    70.00 Ry     beta= 0.70
     Davidson diagonalization with overlap
     ethr =  5.58E-03,  avg # of iterations =  5.0

     negative rho (up, down):  1.117E-03 2.256E-02

     total cpu time spent up to now is      487.3 secs

     total energy              =    -755.74341325 Ry
     Harris-Foulkes estimate   =    -758.10402482 Ry
     estimated scf accuracy    <      10.82814327 Ry

     total magnetization       =     5.00 Bohr mag/cell
     absolute magnetization    =     5.80 Bohr mag/cell

     iteration #  4     ecut=    70.00 Ry     beta= 0.70
     Davidson diagonalization with overlap
     ethr =  5.13E-03,  avg # of iterations =  2.5

     negative rho (up, down):  4.523E-02 2.129E-02

     total cpu time spent up to now is      579.3 secs

     total energy              =    -757.06010772 Ry
     Harris-Foulkes estimate   =    -757.48846037 Ry
     estimated scf accuracy    <       1.27468127 Ry

     total magnetization       =     1.00 Bohr mag/cell
     absolute magnetization    =     1.76 Bohr mag/cell

     iteration #  5     ecut=    70.00 Ry     beta= 0.70
     Davidson diagonalization with overlap
     ethr =  6.04E-04,  avg # of iterations =  8.0

     negative rho (up, down):  5.177E-02 1.846E-02

     total cpu time spent up to now is      691.2 secs

     total energy              =    -757.22164123 Ry
     Harris-Foulkes estimate   =    -757.32507716 Ry
     estimated scf accuracy    <       0.33513258 Ry

     total magnetization       =     1.00 Bohr mag/cell
     absolute magnetization    =     1.50 Bohr mag/cell

     iteration #  6     ecut=    70.00 Ry     beta= 0.70
     Davidson diagonalization with overlap
     ethr =  1.59E-04,  avg # of iterations =  4.0

     negative rho (up, down):  2.973E-02 1.830E-02

     total cpu time spent up to now is      800.3 secs

     total energy              =    -757.29426343 Ry
     Harris-Foulkes estimate   =    -757.32816986 Ry
     estimated scf accuracy    <       0.21496865 Ry

     total magnetization       =     1.00 Bohr mag/cell
     absolute magnetization    =     1.46 Bohr mag/cell

     iteration #  7     ecut=    70.00 Ry     beta= 0.70
     Davidson diagonalization with overlap
     ethr =  1.02E-04,  avg # of iterations =  3.0

     negative rho (up, down):  3.330E-02 1.484E-02

     total cpu time spent up to now is      896.2 secs

     total energy              =    -757.32073726 Ry
     Harris-Foulkes estimate   =    -757.32912394 Ry
     estimated scf accuracy    <       0.04240041 Ry

     total magnetization       =     1.00 Bohr mag/cell
     absolute magnetization    =     1.37 Bohr mag/cell

     iteration #  8     ecut=    70.00 Ry     beta= 0.70
     Davidson diagonalization with overlap
     ethr =  2.01E-05,  avg # of iterations =  5.5

     negative rho (up, down):  3.067E-02 2.871E-02

     total cpu time spent up to now is     1010.1 secs

     total energy              =    -757.32895461 Ry
     Harris-Foulkes estimate   =    -757.33593359 Ry
     estimated scf accuracy    <       0.04332595 Ry

     total magnetization       =     1.00 Bohr mag/cell
     absolute magnetization    =     1.38 Bohr mag/cell

     iteration #  9     ecut=    70.00 Ry     beta= 0.70
     Davidson diagonalization with overlap
     ethr =  2.01E-05,  avg # of iterations =  4.5

     negative rho (up, down):  3.351E-02 2.205E-02

     total cpu time spent up to now is     1107.5 secs

     total energy              =    -757.33368823 Ry
     Harris-Foulkes estimate   =    -757.33445013 Ry
     estimated scf accuracy    <       0.00549170 Ry

     total magnetization       =     1.00 Bohr mag/cell
     absolute magnetization    =     1.39 Bohr mag/cell

     iteration # 10     ecut=    70.00 Ry     beta= 0.70
     Davidson diagonalization with overlap
     ethr =  2.60E-06,  avg # of iterations =  8.5

     negative rho (up, down):  3.491E-02 1.553E-02

     total cpu time spent up to now is     1209.2 secs

     total energy              =    -757.33442779 Ry
     Harris-Foulkes estimate   =    -757.33486189 Ry
     estimated scf accuracy    <       0.00514311 Ry

     total magnetization       =     1.00 Bohr mag/cell
     absolute magnetization    =     1.41 Bohr mag/cell

     iteration # 11     ecut=    70.00 Ry     beta= 0.70
     Davidson diagonalization with overlap
     ethr =  2.44E-06,  avg # of iterations =  2.5

     negative rho (up, down):  3.530E-02 1.695E-02

     total cpu time spent up to now is     1300.2 secs

     total energy              =    -757.33438798 Ry
     Harris-Foulkes estimate   =    -757.33497304 Ry
     estimated scf accuracy    <       0.00649658 Ry

     total magnetization       =     1.00 Bohr mag/cell
     absolute magnetization    =     1.43 Bohr mag/cell

     iteration # 12     ecut=    70.00 Ry     beta= 0.70
     Davidson diagonalization with overlap
     ethr =  2.44E-06,  avg # of iterations =  1.5

     negative rho (up, down):  3.341E-02 1.093E-02

     total cpu time spent up to now is     1391.1 secs

     total energy              =    -757.33586513 Ry
     Harris-Foulkes estimate   =    -757.33486961 Ry
     estimated scf accuracy    <       0.00225872 Ry

     total magnetization       =     1.00 Bohr mag/cell
     absolute magnetization    =     1.44 Bohr mag/cell

     iteration # 13     ecut=    70.00 Ry     beta= 0.70
     Davidson diagonalization with overlap
     ethr =  1.07E-06,  avg # of iterations =  3.0

     negative rho (up, down):  3.368E-02 5.970E-03

     total cpu time spent up to now is     1484.4 secs

     total energy              =    -757.33604645 Ry
     Harris-Foulkes estimate   =    -757.33600277 Ry
     estimated scf accuracy    <       0.00010712 Ry

     total magnetization       =     1.00 Bohr mag/cell
     absolute magnetization    =     1.46 Bohr mag/cell

     iteration # 14     ecut=    70.00 Ry     beta= 0.70
     Davidson diagonalization with overlap
     ethr =  5.08E-08,  avg # of iterations =  4.0

     negative rho (up, down):  3.396E-02 2.500E-03

     total cpu time spent up to now is     1591.6 secs

     total energy              =    -757.33609530 Ry
     Harris-Foulkes estimate   =    -757.33608980 Ry
     estimated scf accuracy    <       0.00006492 Ry

     total magnetization       =     1.00 Bohr mag/cell
     absolute magnetization    =     1.47 Bohr mag/cell

     iteration # 15     ecut=    70.00 Ry     beta= 0.70
     Davidson diagonalization with overlap
     ethr =  3.08E-08,  avg # of iterations =  3.5

     negative rho (up, down):  3.407E-02 2.853E-03

     total cpu time spent up to now is     1687.8 secs

     total energy              =    -757.33610606 Ry
     Harris-Foulkes estimate   =    -757.33610820 Ry
     estimated scf accuracy    <       0.00001716 Ry

     total magnetization       =     1.00 Bohr mag/cell
     absolute magnetization    =     1.49 Bohr mag/cell

     iteration # 16     ecut=    70.00 Ry     beta= 0.70
     Davidson diagonalization with overlap
     ethr =  8.13E-09,  avg # of iterations =  3.0

     negative rho (up, down):  3.413E-02 2.908E-03

     total cpu time spent up to now is     1784.0 secs

     total energy              =    -757.33610995 Ry
     Harris-Foulkes estimate   =    -757.33611000 Ry
     estimated scf accuracy    <       0.00002551 Ry

     total magnetization       =     1.00 Bohr mag/cell
     absolute magnetization    =     1.49 Bohr mag/cell

     iteration # 17     ecut=    70.00 Ry     beta= 0.70
     Davidson diagonalization with overlap
     ethr =  8.13E-09,  avg # of iterations =  1.0

     negative rho (up, down):  3.408E-02 2.055E-03

     total cpu time spent up to now is     1874.1 secs

     total energy              =    -757.33611121 Ry
     Harris-Foulkes estimate   =    -757.33611082 Ry
     estimated scf accuracy    <       0.00001067 Ry

     total magnetization       =     1.00 Bohr mag/cell
     absolute magnetization    =     1.50 Bohr mag/cell

     iteration # 18     ecut=    70.00 Ry     beta= 0.70
     Davidson diagonalization with overlap
     ethr =  5.06E-09,  avg # of iterations =  3.0

     negative rho (up, down):  3.415E-02 2.330E-03

     total cpu time spent up to now is     1968.4 secs

     total energy              =    -757.33611208 Ry
     Harris-Foulkes estimate   =    -757.33611278 Ry
     estimated scf accuracy    <       0.00000427 Ry

     total magnetization       =     1.00 Bohr mag/cell
     absolute magnetization    =     1.51 Bohr mag/cell

     iteration # 19     ecut=    70.00 Ry     beta= 0.70
     Davidson diagonalization with overlap
     ethr =  2.02E-09,  avg # of iterations =  3.5

     negative rho (up, down):  3.412E-02 1.859E-03

     total cpu time spent up to now is     2066.1 secs

     total energy              =    -757.33611381 Ry
     Harris-Foulkes estimate   =    -757.33611332 Ry
     estimated scf accuracy    <       0.00001173 Ry

     total magnetization       =     1.00 Bohr mag/cell
     absolute magnetization    =     1.52 Bohr mag/cell

     iteration # 20     ecut=    70.00 Ry     beta= 0.70
     Davidson diagonalization with overlap
     ethr =  2.02E-09,  avg # of iterations =  3.0

     negative rho (up, down):  3.411E-02 1.899E-03

     total cpu time spent up to now is     2158.5 secs

     total energy              =    -757.33611383 Ry
     Harris-Foulkes estimate   =    -757.33611427 Ry
     estimated scf accuracy    <       0.00000600 Ry

     total magnetization       =     1.00 Bohr mag/cell
     absolute magnetization    =     1.52 Bohr mag/cell

     iteration # 21     ecut=    70.00 Ry     beta= 0.70
     Davidson diagonalization with overlap
     ethr =  2.02E-09,  avg # of iterations =  2.0

     negative rho (up, down):  3.413E-02 1.829E-03

     total cpu time spent up to now is     2249.7 secs

     total energy              =    -757.33611358 Ry
     Harris-Foulkes estimate   =    -757.33611437 Ry
     estimated scf accuracy    <       0.00000982 Ry

     total magnetization       =     1.00 Bohr mag/cell
     absolute magnetization    =     1.52 Bohr mag/cell

     iteration # 22     ecut=    70.00 Ry     beta= 0.70
     Davidson diagonalization with overlap
     ethr =  2.02E-09,  avg # of iterations =  3.0

     negative rho (up, down):  3.412E-02 1.848E-03

     total cpu time spent up to now is     2350.0 secs

     total energy              =    -757.33611470 Ry
     Harris-Foulkes estimate   =    -757.33611470 Ry
     estimated scf accuracy    <       0.00000751 Ry

     total magnetization       =     1.00 Bohr mag/cell
     absolute magnetization    =     1.53 Bohr mag/cell

     iteration # 23     ecut=    70.00 Ry     beta= 0.70
     Davidson diagonalization with overlap
     ethr =  2.02E-09,  avg # of iterations =  1.0

     negative rho (up, down):  3.412E-02 1.837E-03

     total cpu time spent up to now is     2440.3 secs

     total energy              =    -757.33611494 Ry
     Harris-Foulkes estimate   =    -757.33611496 Ry
     estimated scf accuracy    <       0.00000776 Ry

     total magnetization       =     1.00 Bohr mag/cell
     absolute magnetization    =     1.53 Bohr mag/cell

     iteration # 24     ecut=    70.00 Ry     beta= 0.70
     Davidson diagonalization with overlap
     ethr =  2.02E-09,  avg # of iterations =  1.0

     negative rho (up, down):  3.413E-02 1.832E-03

     total cpu time spent up to now is     2530.4 secs

     total energy              =    -757.33611474 Ry
     Harris-Foulkes estimate   =    -757.33611500 Ry
     estimated scf accuracy    <       0.00000587 Ry

     total magnetization       =     1.00 Bohr mag/cell
     absolute magnetization    =     1.53 Bohr mag/cell

     iteration # 25     ecut=    70.00 Ry     beta= 0.70
     Davidson diagonalization with overlap
     ethr =  2.02E-09,  avg # of iterations =  1.0

     negative rho (up, down):  3.412E-02 1.865E-03

     total cpu time spent up to now is     2620.5 secs

     total energy              =    -757.33611493 Ry
     Harris-Foulkes estimate   =    -757.33611492 Ry
     estimated scf accuracy    <       0.00000225 Ry

     total magnetization       =     1.00 Bohr mag/cell
     absolute magnetization    =     1.54 Bohr mag/cell

     iteration # 26     ecut=    70.00 Ry     beta= 0.70
     Davidson diagonalization with overlap
     ethr =  1.07E-09,  avg # of iterations =  1.0

     negative rho (up, down):  3.412E-02 1.854E-03

     total cpu time spent up to now is     2710.5 secs

     total energy              =    -757.33611501 Ry
     Harris-Foulkes estimate   =    -757.33611503 Ry
     estimated scf accuracy    <       0.00000161 Ry

     total magnetization       =     1.00 Bohr mag/cell
     absolute magnetization    =     1.53 Bohr mag/cell

     iteration # 27     ecut=    70.00 Ry     beta= 0.70
     Davidson diagonalization with overlap
     ethr =  7.63E-10,  avg # of iterations =  2.0

     negative rho (up, down):  3.412E-02 1.874E-03

     total cpu time spent up to now is     2801.4 secs

     total energy              =    -757.33611467 Ry
     Harris-Foulkes estimate   =    -757.33611510 Ry
     estimated scf accuracy    <       0.00000245 Ry

     total magnetization       =     1.00 Bohr mag/cell
     absolute magnetization    =     1.53 Bohr mag/cell

     iteration # 28     ecut=    70.00 Ry     beta= 0.70
     Davidson diagonalization with overlap
     ethr =  7.63E-10,  avg # of iterations =  2.5

     negative rho (up, down):  3.412E-02 1.837E-03

     Magnetic moment per site:
     atom:    1    charge:    0.2117    magn:   -0.0000    constr:    0.0000
     atom:    2    charge:    0.2091    magn:   -0.0000    constr:    0.0000
     atom:    3    charge:    1.7177    magn:   -0.0068    constr:    0.0000
     atom:    4    charge:    1.7157    magn:    0.0094    constr:    0.0000
     atom:    5    charge:    1.7183    magn:   -0.0041    constr:    0.0000
     atom:    6    charge:    1.7141    magn:    0.0026    constr:    0.0000
     atom:    7    charge:    1.7184    magn:   -0.0042    constr:    0.0000
     atom:    8    charge:    1.7157    magn:    0.0092    constr:    0.0000
     atom:    9    charge:    1.7177    magn:   -0.0067    constr:    0.0000
     atom:   10    charge:    1.7144    magn:    0.0304    constr:    0.0000
     atom:   11    charge:    1.7186    magn:   -0.0089    constr:    0.0000
     atom:   12    charge:    1.7144    magn:    0.0310    constr:    0.0000
     atom:   13    charge:    1.7186    magn:   -0.0089    constr:    0.0000
     atom:   14    charge:    1.7145    magn:    0.0227    constr:    0.0000
     atom:   15    charge:    1.7170    magn:   -0.0078    constr:    0.0000
     atom:   16    charge:    1.7109    magn:    0.0291    constr:    0.0000
     atom:   17    charge:    1.7271    magn:   -0.0051    constr:    0.0000
     atom:   18    charge:    1.7110    magn:    0.0294    constr:    0.0000
     atom:   19    charge:    1.7169    magn:   -0.0078    constr:    0.0000
     atom:   20    charge:    1.7145    magn:    0.0232    constr:    0.0000
     atom:   21    charge:    1.7186    magn:   -0.0089    constr:    0.0000
     atom:   22    charge:    1.7145    magn:    0.0313    constr:    0.0000
     atom:   23    charge:    1.7177    magn:   -0.0068    constr:    0.0000
     atom:   24    charge:    1.7157    magn:    0.0094    constr:    0.0000
     atom:   25    charge:    1.7169    magn:   -0.0078    constr:    0.0000
     atom:   26    charge:    1.7111    magn:    0.0294    constr:    0.0000
     atom:   27    charge:    1.9149    magn:   -0.0004    constr:    0.0000
     atom:   28    charge:    7.8608    magn:    0.1020    constr:    0.0000
     atom:   29    charge:    1.9149    magn:   -0.0004    constr:    0.0000
     atom:   30    charge:    1.7111    magn:    0.0303    constr:    0.0000
     atom:   31    charge:    1.7169    magn:   -0.0079    constr:    0.0000
     atom:   32    charge:    1.7157    magn:    0.0094    constr:    0.0000
     atom:   33    charge:    1.7183    magn:   -0.0042    constr:    0.0000
     atom:   34    charge:    1.7138    magn:    0.0069    constr:    0.0000
     atom:   35    charge:    1.7183    magn:   -0.0041    constr:    0.0000
     atom:   36    charge:    1.7141    magn:    0.0026    constr:    0.0000
     atom:   37    charge:    1.7269    magn:   -0.0051    constr:    0.0000
     atom:   38    charge:    1.7113    magn:    0.0296    constr:    0.0000
     atom:   39    charge:    1.9150    magn:   -0.0002    constr:    0.0000
     atom:   40    charge:    1.7110    magn:    0.0301    constr:    0.0000
     atom:   41    charge:    1.7270    magn:   -0.0053    constr:    0.0000
     atom:   42    charge:    1.7141    magn:    0.0026    constr:    0.0000
     atom:   43    charge:    1.7183    magn:   -0.0042    constr:    0.0000
     atom:   44    charge:    1.7138    magn:    0.0068    constr:    0.0000
     atom:   45    charge:    1.7246    magn:   -0.0030    constr:    0.0000
     atom:   46    charge:    1.7138    magn:    0.0067    constr:    0.0000
     atom:   47    charge:    1.7183    magn:   -0.0041    constr:    0.0000
     atom:   48    charge:    1.7157    magn:    0.0092    constr:    0.0000
     atom:   49    charge:    1.7169    magn:   -0.0078    constr:    0.0000
     atom:   50    charge:    1.7146    magn:    0.0233    constr:    0.0000
     atom:   51    charge:    1.7169    magn:   -0.0079    constr:    0.0000
     atom:   52    charge:    1.7157    magn:    0.0094    constr:    0.0000

     total cpu time spent up to now is     2902.7 secs

     End of self-consistent calculation

 ------ SPIN UP ------------


          k = 0.0000 0.0000 0.0000 ( 87777 PWs)   bands (ev):

   -62.8230 -37.9090 -37.9062 -36.5871 -19.6237 -18.7812 -18.7798 -18.7114
   -18.6670 -18.6637 -18.2275 -16.9259 -16.9255 -16.9242 -16.7879 -16.7869
   -16.5054 -16.0718 -16.0712 -15.9782 -15.8224 -15.8211 -15.0700 -13.8831
   -13.8765 -13.8748 -13.8516 -13.8510 -13.1218 -12.9063 -12.9060 -12.8884
   -12.4944 -12.4933 -12.1015 -11.6337 -11.6334 -11.5095 -11.1277 -11.1272
   -10.1393  -9.3252  -9.3245  -9.2444  -9.1709  -9.1707  -9.0814  -9.0572
    -9.0569  -9.0412  -8.4524  -8.4520  -7.8826  -7.8821  -7.8499  -7.8205
    -7.6650  -7.4101  -7.2426  -7.2409  -6.9504  -6.9265  -6.8822  -6.6906
    -6.6886  -6.6832  -6.5796  -6.5788  -6.5321  -6.4244  -6.4227  -6.3792
    -6.3753  -6.3750  -6.3226  -6.2390  -5.2484  -5.2481  -5.1427  -5.1354
    -4.9343  -4.9332  -4.8228  -4.7353  -4.6102  -4.5995  -4.5977  -4.2248
    -3.9744  -3.9739  -3.7494  -3.7490  -3.6490  -3.6087  -3.4875  -3.4872
    -2.8692  -2.2490  -2.2473  -2.2035  -2.2022  -1.7373  -1.6726  -1.6711
    -0.5138  -0.2265  -0.2262   1.0594   1.0652   1.0915   1.1000   1.8143
     2.0614   2.0617   2.5427   2.9031   2.9070   2.9856   3.2303   3.4842
     3.6845   3.7351   3.7486   3.7887   3.9634   4.0086   4.0127

     occupation numbers 
     1.0000   1.0000   1.0000   1.0000   1.0000   1.0000   1.0000   1.0000
     1.0000   1.0000   1.0000   1.0000   1.0000   1.0000   1.0000   1.0000
     1.0000   1.0000   1.0000   1.0000   1.0000   1.0000   1.0000   1.0000
     1.0000   1.0000   1.0000   1.0000   1.0000   1.0000   1.0000   1.0000
     1.0000   1.0000   1.0000   1.0000   1.0000   1.0000   1.0000   1.0000
     1.0000   1.0000   1.0000   1.0000   1.0000   1.0000   1.0000   1.0000
     1.0000   1.0000   1.0000   1.0000   1.0000   1.0000   1.0000   1.0000
     1.0000   1.0000   1.0000   1.0000   1.0000   1.0000   1.0000   1.0000
     1.0000   1.0000   1.0000   1.0000   1.0000   1.0000   1.0000   1.0000
     1.0000   1.0000   1.0000   1.0000   1.0000   1.0000   1.0000   1.0000
     1.0000   1.0000   1.0000   1.0000   1.0000   1.0000   1.0000   1.0000
     1.0000   1.0000   1.0000   1.0000   1.0000   1.0000   1.0000   1.0000
     1.0000   1.0000   1.0000   1.0000   1.0000   1.0000   1.0000   1.0000
     1.0000   0.5089   0.4911   0.0000   0.0000   0.0000   0.0000   0.0000
     0.0000   0.0000   0.0000   0.0000   0.0000   0.0000   0.0000   0.0000
     0.0000   0.0000   0.0000   0.0000   0.0000   0.0000   0.0000

 ------ SPIN DOWN ----------


          k = 0.0000 0.0000 0.0000 ( 87777 PWs)   bands (ev):

   -62.6260 -37.7476 -37.7427 -36.3178 -19.6019 -18.7599 -18.7580 -18.6912
   -18.6504 -18.6470 -18.1955 -16.9097 -16.9067 -16.9053 -16.7595 -16.7585
   -16.4912 -16.0447 -16.0439 -15.9624 -15.8013 -15.8001 -15.0553 -13.8485
   -13.8470 -13.8462 -13.8356 -13.8337 -13.1249 -12.8957 -12.8955 -12.8729
   -12.4862 -12.4852 -12.0831 -11.6158 -11.6156 -11.4962 -11.1152 -11.1148
   -10.1247  -9.3083  -9.3074  -9.2314  -9.1535  -9.1532  -9.0733  -9.0430
    -9.0428  -9.0319  -8.4457  -8.4452  -7.8711  -7.8705  -7.8422  -7.7716
    -7.6565  -7.3992  -7.2338  -7.2321  -6.8730  -6.8662  -6.8483  -6.6563
    -6.6554  -6.6362  -6.5682  -6.5675  -6.5225  -6.4149  -6.4132  -6.3735
    -6.3687  -6.3683  -6.3145  -6.1626  -5.2401  -5.2398  -5.0577  -5.0502
    -4.9244  -4.9233  -4.8170  -4.7293  -4.5683  -4.5483  -4.5468  -4.1872
    -3.9234  -3.9221  -3.6754  -3.6746  -3.6029  -3.5786  -3.4809  -3.4806
    -2.8349  -2.1811  -2.1796  -2.1377  -2.1360  -1.6569  -1.6555  -1.6430
    -0.5088  -0.0015   0.0026   1.1038   1.1126   1.1368   1.1597   1.8846
     2.1314   2.1327   2.5485   2.9732   2.9784   3.0272   3.2403   3.4919
     3.7194   3.7389   3.7505   3.7975   3.9820   4.0776   4.0835

     occupation numbers 
     1.0000   1.0000   1.0000   1.0000   1.0000   1.0000   1.0000   1.0000
     1.0000   1.0000   1.0000   1.0000   1.0000   1.0000   1.0000   1.0000
     1.0000   1.0000   1.0000   1.0000   1.0000   1.0000   1.0000   1.0000
     1.0000   1.0000   1.0000   1.0000   1.0000   1.0000   1.0000   1.0000
     1.0000   1.0000   1.0000   1.0000   1.0000   1.0000   1.0000   1.0000
     1.0000   1.0000   1.0000   1.0000   1.0000   1.0000   1.0000   1.0000
     1.0000   1.0000   1.0000   1.0000   1.0000   1.0000   1.0000   1.0000
     1.0000   1.0000   1.0000   1.0000   1.0000   1.0000   1.0000   1.0000
     1.0000   1.0000   1.0000   1.0000   1.0000   1.0000   1.0000   1.0000
     1.0000   1.0000   1.0000   1.0000   1.0000   1.0000   1.0000   1.0000
     1.0000   1.0000   1.0000   1.0000   1.0000   1.0000   1.0000   1.0000
     1.0000   1.0000   1.0000   1.0000   1.0000   1.0000   1.0000   1.0000
     1.0000   1.0000   1.0000   1.0000   1.0000   1.0000   1.0000   1.0000
     1.0000   0.0000   0.0000   0.0000   0.0000   0.0000   0.0000   0.0000
     0.0000   0.0000   0.0000   0.0000   0.0000   0.0000   0.0000   0.0000
     0.0000   0.0000   0.0000   0.0000   0.0000   0.0000   0.0000

     the Fermi energy is    -0.2245 ev

!    total energy              =    -757.33611497 Ry
     Harris-Foulkes estimate   =    -757.33611511 Ry
     estimated scf accuracy    <       0.00000022 Ry

     The total energy is the sum of the following terms:

     one-electron contribution =   -2590.10253981 Ry
     hartree contribution      =    1341.95336863 Ry
     xc contribution           =    -252.67636160 Ry
     ewald contribution        =     743.48974589 Ry
     smearing contrib. (-TS)   =      -0.00032807 Ry

     total magnetization       =     1.00 Bohr mag/cell
     absolute magnetization    =     1.54 Bohr mag/cell

     convergence has been achieved in  28 iterations

     Writing output data file vanadio-bridge2-distance-2.8.save/

     init_run     :     76.38s CPU     77.68s WALL (       1 calls)
     electrons    :   2776.04s CPU   2824.04s WALL (       1 calls)

     Called by init_run:
     wfcinit      :     41.36s CPU     41.66s WALL (       1 calls)
     wfcinit:atom :      0.04s CPU      0.08s WALL (       2 calls)
     wfcinit:wfcr :     40.98s CPU     41.17s WALL (       2 calls)
     potinit      :     14.41s CPU     14.85s WALL (       1 calls)
     hinit0       :     12.14s CPU     12.16s WALL (       1 calls)

     Called by electrons:
     c_bands      :   1782.57s CPU   1792.80s WALL (      28 calls)
     sum_band     :    572.96s CPU    588.43s WALL (      28 calls)
     v_of_rho     :    209.60s CPU    218.62s WALL (      29 calls)
     v_h          :      2.20s CPU      2.27s WALL (      29 calls)
     v_xc         :    207.41s CPU    216.35s WALL (      29 calls)
     newd         :    206.21s CPU    219.99s WALL (      29 calls)
     mix_rho      :     12.51s CPU     12.73s WALL (      28 calls)

     Called by c_bands:
     init_us_2    :      5.23s CPU      5.27s WALL (     114 calls)
     cegterg      :   1769.56s CPU   1779.69s WALL (      56 calls)

     Called by sum_band:
     sum_band:bec :      0.04s CPU      0.04s WALL (      56 calls)
     addusdens    :    353.60s CPU    367.61s WALL (      28 calls)

     Called by *egterg:
     h_psi        :    936.36s CPU    943.50s WALL (     243 calls)
     s_psi        :    316.78s CPU    317.01s WALL (     243 calls)
     g_psi        :      1.01s CPU      1.02s WALL (     185 calls)
     cdiaghg      :     16.84s CPU     16.86s WALL (     241 calls)
     cegterg:over :    211.41s CPU    211.54s WALL (     185 calls)
     cegterg:upda :    134.03s CPU    134.86s WALL (     185 calls)
     cegterg:last :     98.69s CPU     98.74s WALL (      57 calls)

     Called by h_psi:
     h_psi:pot    :    935.28s CPU    941.29s WALL (     243 calls)
     h_psi:calbec :    313.62s CPU    313.84s WALL (     243 calls)
     vloc_psi     :    305.51s CPU    311.15s WALL (     243 calls)
     add_vuspsi   :    316.15s CPU    316.30s WALL (     243 calls)

     General routines
     calbec       :    446.81s CPU    447.11s WALL (     299 calls)
     fft          :    120.31s CPU    123.98s WALL (    2169 calls)
     ffts         :      2.07s CPU      2.14s WALL (     114 calls)
     fftw         :    323.45s CPU    329.62s WALL (   40638 calls)
     interpolate  :      4.90s CPU      5.03s WALL (      58 calls)

     Parallel routines
     fft_scatt_xy :     80.24s CPU     81.46s WALL (   42921 calls)
     fft_scatt_yz :    149.33s CPU    156.27s WALL (   42921 calls)

     PWSCF        :  47m33.71s CPU  48m23.34s WALL


   This run was terminated on:   5: 8: 8   2Sep2022            

=------------------------------------------------------------------------------=
   JOB DONE.
=------------------------------------------------------------------------------=
