
     Program PWSCF v.6.4.1 starts on 26May2022 at 18:31:31 

     This program is part of the open-source Quantum ESPRESSO suite
     for quantum simulation of materials; please cite
         "P. Giannozzi et al., J. Phys.:Condens. Matter 21 395502 (2009);
         "P. Giannozzi et al., J. Phys.:Condens. Matter 29 465901 (2017);
          URL http://www.quantum-espresso.org", 
     in publications or presentations arising from this work. More details at
     http://www.quantum-espresso.org/quote

     Parallel version (MPI), running on     6 processors

     MPI processes distributed on     1 nodes
     R & G space division:  proc/nbgrp/npool/nimage =       6
     Reading input from c-15.in

     Current dimensions of program PWSCF are:
     Max number of different atomic species (ntypx) = 10
     Max number of k-points (npk) =  40000
     Max angular momentum in pseudopotentials (lmaxx) =  3

     Subspace diagonalization in iterative solution of the eigenvalue problem:
     a serial algorithm will be used

     Found symmetry operation: I + ( -0.5000 -0.5000  0.0000)
     This is a supercell, fractional translations are disabled
     Message from routine setup:
     DEPRECATED: symmetry with ibrav=0, use correct ibrav instead

     Parallelization info
     --------------------
     sticks:   dense  smooth     PW     G-vecs:    dense   smooth      PW
     Min          36      36     12                  410      410      85
     Max          37      37     16                  413      413      86
     Sum         221     221     81                 2469     2469     515



     bravais-lattice index     =            0
     lattice parameter (alat)  =       6.7388  a.u.
     unit-cell volume          =     306.0135 (a.u.)^3
     number of atoms/cell      =            8
     number of atomic types    =            1
     number of electrons       =        32.00
     number of Kohn-Sham states=           20
     kinetic-energy cutoff     =      15.0000  Ry
     charge density cutoff     =      60.0000  Ry
     convergence threshold     =      1.0E-06
     mixing beta               =       0.7000
     number of iterations used =            8  plain     mixing
     Exchange-correlation      = PBE ( 1  4  3  4 0 0)

     celldm(1)=   6.738763  celldm(2)=   0.000000  celldm(3)=   0.000000
     celldm(4)=   0.000000  celldm(5)=   0.000000  celldm(6)=   0.000000

     crystal axes: (cart. coord. in units of alat)
               a(1) = (   1.000000   0.000000   0.000000 )  
               a(2) = (   0.000000   1.000000   0.000000 )  
               a(3) = (   0.000000   0.000000   1.000000 )  

     reciprocal axes: (cart. coord. in units 2 pi/alat)
               b(1) = (  1.000000  0.000000  0.000000 )  
               b(2) = (  0.000000  1.000000  0.000000 )  
               b(3) = (  0.000000  0.000000  1.000000 )  


     PseudoPot. # 1 for C  read from file:
     /home/cristian/Escritorio/Proyecto_Grafeno/pseudopotenciales/C.pbe-n-rrkjus_psl.1.0.0.UPF
     MD5 check sum: 1fdd950c42eb37d8afe3dd2f8d12311e
     Pseudo is Ultrasoft + core correction, Zval =  4.0
     Generated using "atomic" code by A. Dal Corso v.6.3MaX
     Using radial grid of 1073 points,  4 beta functions with: 
                l(1) =   0
                l(2) =   0
                l(3) =   1
                l(4) =   1
     Q(r) pseudized with 0 coefficients 


     atomic species   valence    mass     pseudopotential
        C              4.00    12.01100     C ( 1.00)

     24 Sym. Ops. (no inversion) found


                                    s                        frac. trans.

      isym =  1     identity                                     

 cryst.   s( 1) = (     1          0          0      )
                  (     0          1          0      )
                  (     0          0          1      )

 cart.    s( 1) = (  1.0000000  0.0000000  0.0000000 )
                  (  0.0000000  1.0000000  0.0000000 )
                  (  0.0000000  0.0000000  1.0000000 )


      isym =  2     180 deg rotation - cart. axis [0,0,1]        

 cryst.   s( 2) = (    -1          0          0      )
                  (     0         -1          0      )
                  (     0          0          1      )

 cart.    s( 2) = ( -1.0000000  0.0000000  0.0000000 )
                  (  0.0000000 -1.0000000  0.0000000 )
                  (  0.0000000  0.0000000  1.0000000 )


      isym =  3     180 deg rotation - cart. axis [0,1,0]        

 cryst.   s( 3) = (    -1          0          0      )
                  (     0          1          0      )
                  (     0          0         -1      )

 cart.    s( 3) = ( -1.0000000  0.0000000  0.0000000 )
                  (  0.0000000  1.0000000  0.0000000 )
                  (  0.0000000  0.0000000 -1.0000000 )


      isym =  4     180 deg rotation - cart. axis [1,0,0]        

 cryst.   s( 4) = (     1          0          0      )
                  (     0         -1          0      )
                  (     0          0         -1      )

 cart.    s( 4) = (  1.0000000  0.0000000  0.0000000 )
                  (  0.0000000 -1.0000000  0.0000000 )
                  (  0.0000000  0.0000000 -1.0000000 )


      isym =  5     120 deg rotation - cart. axis [-1,-1,-1]     

 cryst.   s( 5) = (     0          0          1      )
                  (     1          0          0      )
                  (     0          1          0      )

 cart.    s( 5) = (  0.0000000  1.0000000  0.0000000 )
                  (  0.0000000  0.0000000  1.0000000 )
                  (  1.0000000  0.0000000  0.0000000 )


      isym =  6     120 deg rotation - cart. axis [-1,1,1]       

 cryst.   s( 6) = (     0          0         -1      )
                  (    -1          0          0      )
                  (     0          1          0      )

 cart.    s( 6) = (  0.0000000 -1.0000000  0.0000000 )
                  (  0.0000000  0.0000000  1.0000000 )
                  ( -1.0000000  0.0000000  0.0000000 )


      isym =  7     120 deg rotation - cart. axis [1,1,-1]       

 cryst.   s( 7) = (     0          0         -1      )
                  (     1          0          0      )
                  (     0         -1          0      )

 cart.    s( 7) = (  0.0000000  1.0000000  0.0000000 )
                  (  0.0000000  0.0000000 -1.0000000 )
                  ( -1.0000000  0.0000000  0.0000000 )


      isym =  8     120 deg rotation - cart. axis [1,-1,1]       

 cryst.   s( 8) = (     0          0          1      )
                  (    -1          0          0      )
                  (     0         -1          0      )

 cart.    s( 8) = (  0.0000000 -1.0000000  0.0000000 )
                  (  0.0000000  0.0000000 -1.0000000 )
                  (  1.0000000  0.0000000  0.0000000 )


      isym =  9     120 deg rotation - cart. axis [1,1,1]        

 cryst.   s( 9) = (     0          1          0      )
                  (     0          0          1      )
                  (     1          0          0      )

 cart.    s( 9) = (  0.0000000  0.0000000  1.0000000 )
                  (  1.0000000  0.0000000  0.0000000 )
                  (  0.0000000  1.0000000  0.0000000 )


      isym = 10     120 deg rotation - cart. axis [-1,1,-1]      

 cryst.   s(10) = (     0         -1          0      )
                  (     0          0         -1      )
                  (     1          0          0      )

 cart.    s(10) = (  0.0000000  0.0000000  1.0000000 )
                  ( -1.0000000  0.0000000  0.0000000 )
                  (  0.0000000 -1.0000000  0.0000000 )


      isym = 11     120 deg rotation - cart. axis [1,-1,-1]      

 cryst.   s(11) = (     0         -1          0      )
                  (     0          0          1      )
                  (    -1          0          0      )

 cart.    s(11) = (  0.0000000  0.0000000 -1.0000000 )
                  ( -1.0000000  0.0000000  0.0000000 )
                  (  0.0000000  1.0000000  0.0000000 )


      isym = 12     120 deg rotation - cart. axis [-1,-1,1]      

 cryst.   s(12) = (     0          1          0      )
                  (     0          0         -1      )
                  (    -1          0          0      )

 cart.    s(12) = (  0.0000000  0.0000000 -1.0000000 )
                  (  1.0000000  0.0000000  0.0000000 )
                  (  0.0000000 -1.0000000  0.0000000 )


      isym = 13     inv. 180 deg rotation - cart. axis [1,1,0]   

 cryst.   s(13) = (     0         -1          0      )
                  (    -1          0          0      )
                  (     0          0          1      )

 cart.    s(13) = (  0.0000000 -1.0000000  0.0000000 )
                  ( -1.0000000  0.0000000  0.0000000 )
                  (  0.0000000  0.0000000  1.0000000 )


      isym = 14     inv. 180 deg rotation - cart. axis [1,-1,0]  

 cryst.   s(14) = (     0          1          0      )
                  (     1          0          0      )
                  (     0          0          1      )

 cart.    s(14) = (  0.0000000  1.0000000  0.0000000 )
                  (  1.0000000  0.0000000  0.0000000 )
                  (  0.0000000  0.0000000  1.0000000 )


      isym = 15     inv.  90 deg rotation - cart. axis [0,0,-1]  

 cryst.   s(15) = (     0          1          0      )
                  (    -1          0          0      )
                  (     0          0         -1      )

 cart.    s(15) = (  0.0000000 -1.0000000  0.0000000 )
                  (  1.0000000  0.0000000  0.0000000 )
                  (  0.0000000  0.0000000 -1.0000000 )


      isym = 16     inv.  90 deg rotation - cart. axis [0,0,1]   

 cryst.   s(16) = (     0         -1          0      )
                  (     1          0          0      )
                  (     0          0         -1      )

 cart.    s(16) = (  0.0000000  1.0000000  0.0000000 )
                  ( -1.0000000  0.0000000  0.0000000 )
                  (  0.0000000  0.0000000 -1.0000000 )


      isym = 17     inv. 180 deg rotation - cart. axis [1,0,1]   

 cryst.   s(17) = (     0          0         -1      )
                  (     0          1          0      )
                  (    -1          0          0      )

 cart.    s(17) = (  0.0000000  0.0000000 -1.0000000 )
                  (  0.0000000  1.0000000  0.0000000 )
                  ( -1.0000000  0.0000000  0.0000000 )


      isym = 18     inv. 180 deg rotation - cart. axis [-1,0,1]  

 cryst.   s(18) = (     0          0          1      )
                  (     0          1          0      )
                  (     1          0          0      )

 cart.    s(18) = (  0.0000000  0.0000000  1.0000000 )
                  (  0.0000000  1.0000000  0.0000000 )
                  (  1.0000000  0.0000000  0.0000000 )


      isym = 19     inv.  90 deg rotation - cart. axis [0,1,0]   

 cryst.   s(19) = (     0          0          1      )
                  (     0         -1          0      )
                  (    -1          0          0      )

 cart.    s(19) = (  0.0000000  0.0000000 -1.0000000 )
                  (  0.0000000 -1.0000000  0.0000000 )
                  (  1.0000000  0.0000000  0.0000000 )


      isym = 20     inv.  90 deg rotation - cart. axis [0,-1,0]  

 cryst.   s(20) = (     0          0         -1      )
                  (     0         -1          0      )
                  (     1          0          0      )

 cart.    s(20) = (  0.0000000  0.0000000  1.0000000 )
                  (  0.0000000 -1.0000000  0.0000000 )
                  ( -1.0000000  0.0000000  0.0000000 )


      isym = 21     inv. 180 deg rotation - cart. axis [0,1,1]   

 cryst.   s(21) = (     1          0          0      )
                  (     0          0         -1      )
                  (     0         -1          0      )

 cart.    s(21) = (  1.0000000  0.0000000  0.0000000 )
                  (  0.0000000  0.0000000 -1.0000000 )
                  (  0.0000000 -1.0000000  0.0000000 )


      isym = 22     inv. 180 deg rotation - cart. axis [0,1,-1]  

 cryst.   s(22) = (     1          0          0      )
                  (     0          0          1      )
                  (     0          1          0      )

 cart.    s(22) = (  1.0000000  0.0000000  0.0000000 )
                  (  0.0000000  0.0000000  1.0000000 )
                  (  0.0000000  1.0000000  0.0000000 )


      isym = 23     inv.  90 deg rotation - cart. axis [-1,0,0]  

 cryst.   s(23) = (    -1          0          0      )
                  (     0          0          1      )
                  (     0         -1          0      )

 cart.    s(23) = ( -1.0000000  0.0000000  0.0000000 )
                  (  0.0000000  0.0000000 -1.0000000 )
                  (  0.0000000  1.0000000  0.0000000 )


      isym = 24     inv.  90 deg rotation - cart. axis [1,0,0]   

 cryst.   s(24) = (    -1          0          0      )
                  (     0          0         -1      )
                  (     0          1          0      )

 cart.    s(24) = ( -1.0000000  0.0000000  0.0000000 )
                  (  0.0000000  0.0000000  1.0000000 )
                  (  0.0000000 -1.0000000  0.0000000 )


   Cartesian axes

     site n.     atom                  positions (alat units)
         1           C   tau(   1) = (   0.0000000   0.0000000   0.0000000  )
         2           C   tau(   2) = (   0.5000000   0.5000000   0.0000000  )
         3           C   tau(   3) = (   0.0000000   0.5000000   0.5000000  )
         4           C   tau(   4) = (   0.5000000   0.0000000   0.5000000  )
         5           C   tau(   5) = (   0.2500000   0.2500000   0.2500000  )
         6           C   tau(   6) = (   0.7500000   0.7500000   0.2500000  )
         7           C   tau(   7) = (   0.2500000   0.7500000   0.7500000  )
         8           C   tau(   8) = (   0.7500000   0.2500000   0.7500000  )

   Crystallographic axes

     site n.     atom                  positions (cryst. coord.)
         1           C   tau(   1) = (  0.0000000  0.0000000  0.0000000  )
         2           C   tau(   2) = (  0.5000000  0.5000000  0.0000000  )
         3           C   tau(   3) = (  0.0000000  0.5000000  0.5000000  )
         4           C   tau(   4) = (  0.5000000  0.0000000  0.5000000  )
         5           C   tau(   5) = (  0.2500000  0.2500000  0.2500000  )
         6           C   tau(   6) = (  0.7500000  0.7500000  0.2500000  )
         7           C   tau(   7) = (  0.2500000  0.7500000  0.7500000  )
         8           C   tau(   8) = (  0.7500000  0.2500000  0.7500000  )

     number of k points=    35  Marzari-Vanderbilt smearing, width (Ry)=  0.0200
                       cart. coord. in units 2pi/alat
        k(    1) = (   0.0000000   0.0000000   0.0000000), wk =   0.0039062
        k(    2) = (   0.0000000   0.0000000   0.1250000), wk =   0.0234375
        k(    3) = (   0.0000000   0.0000000   0.2500000), wk =   0.0234375
        k(    4) = (   0.0000000   0.0000000   0.3750000), wk =   0.0234375
        k(    5) = (   0.0000000   0.0000000  -0.5000000), wk =   0.0117188
        k(    6) = (   0.0000000   0.1250000   0.1250000), wk =   0.0468750
        k(    7) = (   0.0000000   0.1250000   0.2500000), wk =   0.0937500
        k(    8) = (   0.0000000   0.1250000   0.3750000), wk =   0.0937500
        k(    9) = (   0.0000000   0.1250000  -0.5000000), wk =   0.0468750
        k(   10) = (   0.0000000   0.2500000   0.2500000), wk =   0.0468750
        k(   11) = (   0.0000000   0.2500000   0.3750000), wk =   0.0937500
        k(   12) = (   0.0000000   0.2500000  -0.5000000), wk =   0.0468750
        k(   13) = (   0.0000000   0.3750000   0.3750000), wk =   0.0468750
        k(   14) = (   0.0000000   0.3750000  -0.5000000), wk =   0.0468750
        k(   15) = (   0.0000000  -0.5000000  -0.5000000), wk =   0.0117188
        k(   16) = (   0.1250000   0.1250000   0.1250000), wk =   0.0312500
        k(   17) = (   0.1250000   0.1250000   0.2500000), wk =   0.0937500
        k(   18) = (   0.1250000   0.1250000   0.3750000), wk =   0.0937500
        k(   19) = (   0.1250000   0.1250000  -0.5000000), wk =   0.0468750
        k(   20) = (   0.1250000   0.2500000   0.2500000), wk =   0.0937500
        k(   21) = (   0.1250000   0.2500000   0.3750000), wk =   0.1875000
        k(   22) = (   0.1250000   0.2500000  -0.5000000), wk =   0.0937500
        k(   23) = (   0.1250000   0.3750000   0.3750000), wk =   0.0937500
        k(   24) = (   0.1250000   0.3750000  -0.5000000), wk =   0.0937500
        k(   25) = (   0.1250000  -0.5000000  -0.5000000), wk =   0.0234375
        k(   26) = (   0.2500000   0.2500000   0.2500000), wk =   0.0312500
        k(   27) = (   0.2500000   0.2500000   0.3750000), wk =   0.0937500
        k(   28) = (   0.2500000   0.2500000  -0.5000000), wk =   0.0468750
        k(   29) = (   0.2500000   0.3750000   0.3750000), wk =   0.0937500
        k(   30) = (   0.2500000   0.3750000  -0.5000000), wk =   0.0937500
        k(   31) = (   0.2500000  -0.5000000  -0.5000000), wk =   0.0234375
        k(   32) = (   0.3750000   0.3750000   0.3750000), wk =   0.0312500
        k(   33) = (   0.3750000   0.3750000  -0.5000000), wk =   0.0468750
        k(   34) = (   0.3750000  -0.5000000  -0.5000000), wk =   0.0234375
        k(   35) = (  -0.5000000  -0.5000000  -0.5000000), wk =   0.0039062

                       cryst. coord.
        k(    1) = (   0.0000000   0.0000000   0.0000000), wk =   0.0039062
        k(    2) = (   0.0000000   0.0000000   0.1250000), wk =   0.0234375
        k(    3) = (   0.0000000   0.0000000   0.2500000), wk =   0.0234375
        k(    4) = (   0.0000000   0.0000000   0.3750000), wk =   0.0234375
        k(    5) = (   0.0000000   0.0000000  -0.5000000), wk =   0.0117188
        k(    6) = (   0.0000000   0.1250000   0.1250000), wk =   0.0468750
        k(    7) = (   0.0000000   0.1250000   0.2500000), wk =   0.0937500
        k(    8) = (   0.0000000   0.1250000   0.3750000), wk =   0.0937500
        k(    9) = (   0.0000000   0.1250000  -0.5000000), wk =   0.0468750
        k(   10) = (   0.0000000   0.2500000   0.2500000), wk =   0.0468750
        k(   11) = (   0.0000000   0.2500000   0.3750000), wk =   0.0937500
        k(   12) = (   0.0000000   0.2500000  -0.5000000), wk =   0.0468750
        k(   13) = (   0.0000000   0.3750000   0.3750000), wk =   0.0468750
        k(   14) = (   0.0000000   0.3750000  -0.5000000), wk =   0.0468750
        k(   15) = (   0.0000000  -0.5000000  -0.5000000), wk =   0.0117188
        k(   16) = (   0.1250000   0.1250000   0.1250000), wk =   0.0312500
        k(   17) = (   0.1250000   0.1250000   0.2500000), wk =   0.0937500
        k(   18) = (   0.1250000   0.1250000   0.3750000), wk =   0.0937500
        k(   19) = (   0.1250000   0.1250000  -0.5000000), wk =   0.0468750
        k(   20) = (   0.1250000   0.2500000   0.2500000), wk =   0.0937500
        k(   21) = (   0.1250000   0.2500000   0.3750000), wk =   0.1875000
        k(   22) = (   0.1250000   0.2500000  -0.5000000), wk =   0.0937500
        k(   23) = (   0.1250000   0.3750000   0.3750000), wk =   0.0937500
        k(   24) = (   0.1250000   0.3750000  -0.5000000), wk =   0.0937500
        k(   25) = (   0.1250000  -0.5000000  -0.5000000), wk =   0.0234375
        k(   26) = (   0.2500000   0.2500000   0.2500000), wk =   0.0312500
        k(   27) = (   0.2500000   0.2500000   0.3750000), wk =   0.0937500
        k(   28) = (   0.2500000   0.2500000  -0.5000000), wk =   0.0468750
        k(   29) = (   0.2500000   0.3750000   0.3750000), wk =   0.0937500
        k(   30) = (   0.2500000   0.3750000  -0.5000000), wk =   0.0937500
        k(   31) = (   0.2500000  -0.5000000  -0.5000000), wk =   0.0234375
        k(   32) = (   0.3750000   0.3750000   0.3750000), wk =   0.0312500
        k(   33) = (   0.3750000   0.3750000  -0.5000000), wk =   0.0468750
        k(   34) = (   0.3750000  -0.5000000  -0.5000000), wk =   0.0234375
        k(   35) = (  -0.5000000  -0.5000000  -0.5000000), wk =   0.0039062

     Dense  grid:     2469 G-vectors     FFT dimensions: (  18,  18,  18)

     Dynamical RAM for                 wfc:       0.02 MB

     Dynamical RAM for     wfc (w. buffer):       0.55 MB

     Dynamical RAM for           str. fact:       0.01 MB

     Dynamical RAM for           local pot:       0.00 MB

     Dynamical RAM for          nlocal pot:       0.05 MB

     Dynamical RAM for                qrad:       0.19 MB

     Dynamical RAM for          rho,v,vnew:       0.04 MB

     Dynamical RAM for               rhoin:       0.01 MB

     Dynamical RAM for            rho*nmix:       0.10 MB

     Dynamical RAM for           G-vectors:       0.03 MB

     Dynamical RAM for          h,s,v(r/c):       0.29 MB

     Dynamical RAM for          <psi|beta>:       0.02 MB

     Dynamical RAM for                 psi:       0.06 MB

     Dynamical RAM for                hpsi:       0.06 MB

     Dynamical RAM for                spsi:       0.06 MB

     Dynamical RAM for      wfcinit/wfcrot:       0.07 MB

     Dynamical RAM for           addusdens:       0.32 MB

     Estimated static dynamical RAM per process >       1.03 MB

     Estimated max dynamical RAM per process >       1.52 MB

     Estimated total dynamical RAM >       9.14 MB

     Check: negative core charge=   -0.006131

     Initial potential from superposition of free atoms

     starting charge   31.99967, renormalised to   32.00000
     Starting wfcs are   32 randomized atomic wfcs

     total cpu time spent up to now is        0.4 secs

     Self-consistent Calculation

     iteration #  1     ecut=    15.00 Ry     beta= 0.70
     Davidson diagonalization with overlap
     ethr =  1.00E-02,  avg # of iterations =  3.0

     total cpu time spent up to now is        0.7 secs

     total energy              =     -97.98198880 Ry
     Harris-Foulkes estimate   =     -98.08939888 Ry
     estimated scf accuracy    <       0.37270399 Ry

     iteration #  2     ecut=    15.00 Ry     beta= 0.70
     Davidson diagonalization with overlap
     ethr =  1.16E-03,  avg # of iterations =  1.1

     total cpu time spent up to now is        0.9 secs

     total energy              =     -97.99203258 Ry
     Harris-Foulkes estimate   =     -97.99621236 Ry
     estimated scf accuracy    <       0.01748649 Ry

     iteration #  3     ecut=    15.00 Ry     beta= 0.70
     Davidson diagonalization with overlap
     ethr =  5.46E-05,  avg # of iterations =  4.9

     total cpu time spent up to now is        1.3 secs

     total energy              =     -97.99285018 Ry
     Harris-Foulkes estimate   =     -97.99294118 Ry
     estimated scf accuracy    <       0.00025377 Ry

     iteration #  4     ecut=    15.00 Ry     beta= 0.70
     Davidson diagonalization with overlap
     ethr =  7.93E-07,  avg # of iterations =  4.5

     total cpu time spent up to now is        1.7 secs

     total energy              =     -97.99289660 Ry
     Harris-Foulkes estimate   =     -97.99289914 Ry
     estimated scf accuracy    <       0.00000465 Ry

     iteration #  5     ecut=    15.00 Ry     beta= 0.70
     Davidson diagonalization with overlap
     ethr =  1.45E-08,  avg # of iterations =  2.2

     total cpu time spent up to now is        1.9 secs

     End of self-consistent calculation

          k = 0.0000 0.0000 0.0000 (   305 PWs)   bands (ev):

    -8.1427   0.8047   0.8047   0.8047   0.8063   0.8063   0.8063   7.9803
     7.9803   7.9803   7.9804   7.9804   7.9804  15.2463  15.2463  15.2463
    18.4466  18.4466  18.4466  18.5076

     occupation numbers 
     1.0000   1.0000   1.0000   1.0000   1.0000   1.0000   1.0000   1.0000
     1.0000   1.0000   1.0000   1.0000   1.0000   0.7335   0.7335   0.7335
     0.0000   0.0000   0.0000   0.0000

          k = 0.0000 0.0000 0.1250 (   289 PWs)   bands (ev):

    -7.9937  -1.1467   0.9467   0.9467   0.9489   0.9490   2.8219   7.7738
     7.7738   7.7761   7.7761   8.3195   8.3195  14.6320  14.6320  14.7806
    17.9845  19.1316  19.1317  19.1917

     occupation numbers 
     1.0000   1.0000   1.0000   1.0000   1.0000   1.0000   1.0000   1.0000
     1.0000   1.0000   1.0000   1.0000   1.0000   1.0049   1.0049   1.0281
     0.0000   0.0000   0.0000   0.0000

          k = 0.0000 0.0000 0.2500 (   292 PWs)   bands (ev):

    -7.5473  -2.9484   1.1777   1.1777   1.1777   1.1777   4.9995   6.8164
     6.8164   6.8261   6.8261   8.7389   8.7389  13.3865  13.3865  13.5534
    17.8851  19.8944  20.4003  20.8234

     occupation numbers 
     1.0000   1.0000   1.0000   1.0000   1.0000   1.0000   1.0000   1.0000
     1.0000   1.0000   1.0000   1.0000   1.0000   1.0000   1.0000   1.0000
     0.0000   0.0000   0.0000   0.0000

          k = 0.0000 0.0000 0.3750 (   304 PWs)   bands (ev):

    -6.8245  -4.5081   1.4490   1.4491   1.4524   1.4524   6.0960   6.0960
     6.1124   6.1125   7.1742   9.4380   9.4380  11.1708  11.5855  11.5855
    18.0560  18.9853  21.9734  23.1142

     occupation numbers 
     1.0000   1.0000   1.0000   1.0000   1.0000   1.0000   1.0000   1.0000
     1.0000   1.0000   1.0000   1.0000   1.0000   1.0000   1.0000   1.0000
     0.0000   0.0000   0.0000   0.0000

          k = 0.0000 0.0000-0.5000 (   320 PWs)   bands (ev):

    -5.8048  -5.8048   1.5101   1.5101   1.5159   1.5159   5.6172   5.6172
     5.6356   5.6357   9.2603   9.2604  10.3984  10.3984  10.3984  10.3984
    18.4457  18.4457  23.8674  23.8675

     occupation numbers 
     1.0000   1.0000   1.0000   1.0000   1.0000   1.0000   1.0000   1.0000
     1.0000   1.0000   1.0000   1.0000   1.0000   1.0000   1.0000   1.0000
     0.0000   0.0000   0.0000   0.0000

          k = 0.0000 0.1250 0.1250 (   288 PWs)   bands (ev):

    -7.8449  -1.0029  -1.0029   0.8858   1.1053   2.9221   2.9221   6.6351
     7.9828   7.9829   8.0271   8.0271   8.3585  13.5578  14.0515  15.0790
    18.7101  18.7101  18.7442  19.8536

     occupation numbers 
     1.0000   1.0000   1.0000   1.0000   1.0000   1.0000   1.0000   1.0000
     1.0000   1.0000   1.0000   1.0000   1.0000   1.0000   1.0000   1.0452
     0.0000   0.0000   0.0000   0.0000

          k = 0.0000 0.1250 0.2500 (   291 PWs)   bands (ev):

    -7.4041  -2.8167  -0.7216   0.9177   1.4990   3.0279   4.9156   5.6423
     6.9265   7.2387   8.3192   8.3792   8.5350  11.9603  12.7244  14.4084
    18.5755  19.6821  20.4419  20.5373

     occupation numbers 
     1.0000   1.0000   1.0000   1.0000   1.0000   1.0000   1.0000   1.0000
     1.0000   1.0000   1.0000   1.0000   1.0000   1.0000   1.0000   1.0001
     0.0000   0.0000   0.0000   0.0000

          k = 0.0000 0.1250 0.3750 (   301 PWs)   bands (ev):

    -6.6761  -4.3689  -0.2128   0.7728   1.9331   2.8891   5.1127   5.9597
     6.8433   6.9156   7.5930   9.0523   9.4951  10.1247  11.1523  12.7482
    18.7522  19.7879  21.5036  22.4755

     occupation numbers 
     1.0000   1.0000   1.0000   1.0000   1.0000   1.0000   1.0000   1.0000
     1.0000   1.0000   1.0000   1.0000   1.0000   1.0000   1.0000   1.0000
     0.0000   0.0000   0.0000   0.0000

          k = 0.0000 0.1250-0.5000 (   302 PWs)   bands (ev):

    -5.6614  -5.6614   0.3613   0.3613   2.4784   2.4784   5.2715   5.2715
     7.0672   7.0672   8.5704   8.5704   9.9887   9.9887  10.9010  10.9010
    19.1397  19.1397  23.7820  23.7820

     occupation numbers 
     1.0000   1.0000   1.0000   1.0000   1.0000   1.0000   1.0000   1.0000
     1.0000   1.0000   1.0000   1.0000   1.0000   1.0000   1.0000   1.0000
     0.0000   0.0000   0.0000   0.0000

          k = 0.0000 0.2500 0.2500 (   304 PWs)   bands (ev):

    -6.9699  -2.4290  -2.4290   0.4881   1.8582   4.5744   4.5744   4.8375
     7.2203   7.2203   8.2355   8.2355   9.0637  10.0612  11.2384  14.4269
    19.4395  20.3207  20.3207  21.7521

     occupation numbers 
     1.0000   1.0000   1.0000   1.0000   1.0000   1.0000   1.0000   1.0000
     1.0000   1.0000   1.0000   1.0000   1.0000   1.0000   1.0000   1.0002
     0.0000   0.0000   0.0000   0.0000

          k = 0.0000 0.2500 0.3750 (   306 PWs)   bands (ev):

    -6.2403  -3.9565  -1.8497  -0.2071   2.4918   3.9427   4.6797   5.9900
     6.1314   7.8451   8.5074   8.6181   9.2313   9.7087   9.9426  13.3769
    20.4868  20.5654  21.6012  22.8086

     occupation numbers 
     1.0000   1.0000   1.0000   1.0000   1.0000   1.0000   1.0000   1.0000
     1.0000   1.0000   1.0000   1.0000   1.0000   1.0000   1.0000   1.0000
     0.0000   0.0000   0.0000   0.0000

          k = 0.0000 0.2500-0.5000 (   302 PWs)   bands (ev):

    -5.2333  -5.2332  -1.0343  -1.0342   3.2829   3.2829   5.2818   5.2818
     7.2913   7.2913   8.7246   8.7246   8.7825   8.7825  11.7314  11.7314
    20.9828  20.9828  22.5543  22.5543

     occupation numbers 
     1.0000   1.0000   1.0000   1.0000   1.0000   1.0000   1.0000   1.0000
     1.0000   1.0000   1.0000   1.0000   1.0000   1.0000   1.0000   1.0000
     0.0000   0.0000   0.0000   0.0000

          k = 0.0000 0.3750 0.3750 (   296 PWs)   bands (ev):

    -5.5202  -3.2778  -3.2778  -1.2694   3.2565   5.0109   5.0109   5.0558
     6.7415   6.7415   7.3670   8.7607  10.2612  10.2612  10.3043  13.4221
    20.7170  22.9279  22.9279  22.9282

     occupation numbers 
     1.0000   1.0000   1.0000   1.0000   1.0000   1.0000   1.0000   1.0000
     1.0000   1.0000   1.0000   1.0000   1.0000   1.0000   1.0000   1.0000
     0.0000   0.0000   0.0000   0.0000

          k = 0.0000 0.3750-0.5000 (   304 PWs)   bands (ev):

    -4.5293  -4.5292  -2.3678  -2.3678   4.0336   4.0336   5.7110   5.7110
     6.1085   6.1085   7.5971   7.5972  10.4707  10.4707  12.0483  12.0483
    21.8214  21.8214  23.0738  23.0740

     occupation numbers 
     1.0000   1.0000   1.0000   1.0000   1.0000   1.0000   1.0000   1.0000
     1.0000   1.0000   1.0000   1.0000   1.0000   1.0000   1.0000   1.0000
     0.0000   0.0000   0.0000   0.0000

          k = 0.0000-0.5000-0.5000 (   300 PWs)   bands (ev):

    -3.5579  -3.5579  -3.5579  -3.5579   5.0140   5.0140   5.0140   5.0140
     6.5381   6.5381   6.5381   6.5381  11.6473  11.6473  11.6473  11.6473
    22.0000  22.0000  22.0000  22.0000

     occupation numbers 
     1.0000   1.0000   1.0000   1.0000   1.0000   1.0000   1.0000   1.0000
     1.0000   1.0000   1.0000   1.0000   1.0000   1.0000   1.0000   1.0000
     0.0000   0.0000   0.0000   0.0000

          k = 0.1250 0.1250 0.1250 (   293 PWs)   bands (ev):

    -7.6964  -0.9364  -0.9364  -0.9364   2.9283   2.9283   2.9283   6.8346
     6.8346   6.8347   8.5367   8.5368   8.5368  12.4411  14.5567  14.5567
    18.7291  18.7291  18.7291  20.8699

     occupation numbers 
     1.0000   1.0000   1.0000   1.0000   1.0000   1.0000   1.0000   1.0000
     1.0000   1.0000   1.0000   1.0000   1.0000   1.0000   1.0016   1.0016
     0.0000   0.0000   0.0000   0.0000

          k = 0.1250 0.1250 0.2500 (   296 PWs)   bands (ev):

    -7.2626  -2.6887  -0.6182  -0.6182   2.8484   2.8485   4.7018   6.0056
     6.0056   7.5756   8.4716   8.4716   8.9401  10.5167  13.2260  14.1227
    18.8254  19.6960  19.6960  20.9858

     occupation numbers 
     1.0000   1.0000   1.0000   1.0000   1.0000   1.0000   1.0000   1.0000
     1.0000   1.0000   1.0000   1.0000   1.0000   1.0000   1.0000   1.0000
     0.0000   0.0000   0.0000   0.0000

          k = 0.1250 0.1250 0.3750 (   300 PWs)   bands (ev):

    -6.5299  -4.2322  -0.2404  -0.2404   2.5396   2.5396   5.6829   5.6830
     6.2400   7.8396   7.8396   8.8966   8.9698   9.6121  11.9549  12.7420
    19.1168  20.3909  21.5990  21.5991

     occupation numbers 
     1.0000   1.0000   1.0000   1.0000   1.0000   1.0000   1.0000   1.0000
     1.0000   1.0000   1.0000   1.0000   1.0000   1.0000   1.0000   1.0000
     0.0000   0.0000   0.0000   0.0000

          k = 0.1250 0.1250-0.5000 (   298 PWs)   bands (ev):

    -5.5162  -5.5161  -0.0132  -0.0132   2.2611   2.2611   5.6427   5.6427
     7.6422   7.6423   7.6762   7.6762  10.6416  10.6416  10.7690  10.7690
    19.7447  19.7447  23.6257  23.6258

     occupation numbers 
     1.0000   1.0000   1.0000   1.0000   1.0000   1.0000   1.0000   1.0000
     1.0000   1.0000   1.0000   1.0000   1.0000   1.0000   1.0000   1.0000
     0.0000   0.0000   0.0000   0.0000

          k = 0.1250 0.2500 0.2500 (   301 PWs)   bands (ev):

    -6.8221  -2.3358  -2.3358  -0.4730   2.3811   4.0292   4.0292   5.5484
     7.1083   7.1083   8.9356   8.9428   8.9428   9.2292  12.4841  14.1588
    19.6111  19.9117  19.9117  22.0519

     occupation numbers 
     1.0000   1.0000   1.0000   1.0000   1.0000   1.0000   1.0000   1.0000
     1.0000   1.0000   1.0000   1.0000   1.0000   1.0000   1.0000   1.0000
     0.0000   0.0000   0.0000   0.0000

          k = 0.1250 0.2500 0.3750 (   301 PWs)   bands (ev):

    -6.0982  -3.8210  -1.7440  -0.5115   2.0629   3.1573   5.1183   5.7918
     6.7568   7.4875   8.6186   8.7027   9.3700   9.9307  11.1508  13.2034
    20.3836  20.7274  21.6595  21.8264

     occupation numbers 
     1.0000   1.0000   1.0000   1.0000   1.0000   1.0000   1.0000   1.0000
     1.0000   1.0000   1.0000   1.0000   1.0000   1.0000   1.0000   1.0000
     0.0000   0.0000   0.0000   0.0000

          k = 0.1250 0.2500-0.5000 (   294 PWs)   bands (ev):

    -5.0905  -5.0905  -1.0366  -1.0366   2.4072   2.4072   6.2598   6.2598
     6.3059   6.3060   9.0181   9.0181   9.9384   9.9385  11.7297  11.7297
    21.0633  21.0633  22.7390  22.7390

     occupation numbers 
     1.0000   1.0000   1.0000   1.0000   1.0000   1.0000   1.0000   1.0000
     1.0000   1.0000   1.0000   1.0000   1.0000   1.0000   1.0000   1.0000
     0.0000   0.0000   0.0000   0.0000

          k = 0.1250 0.3750 0.3750 (   302 PWs)   bands (ev):

    -5.3842  -3.1543  -3.1542  -1.3182   2.1657   3.9426   3.9426   6.1206
     6.2992   7.8002   7.8002   9.9218  10.2911  10.3112  10.3112  12.9556
    20.8596  22.3843  22.3843  22.8629

     occupation numbers 
     1.0000   1.0000   1.0000   1.0000   1.0000   1.0000   1.0000   1.0000
     1.0000   1.0000   1.0000   1.0000   1.0000   1.0000   1.0000   1.0000
     0.0000   0.0000   0.0000   0.0000

          k = 0.1250 0.3750-0.5000 (   302 PWs)   bands (ev):

    -4.3929  -4.3929  -2.2980  -2.2980   2.9230   2.9230   4.9352   4.9352
     6.9320   6.9320   8.8373   8.8374  10.5507  10.5507  11.9817  11.9817
    21.9783  21.9783  22.9082  22.9082

     occupation numbers 
     1.0000   1.0000   1.0000   1.0000   1.0000   1.0000   1.0000   1.0000
     1.0000   1.0000   1.0000   1.0000   1.0000   1.0000   1.0000   1.0000
     0.0000   0.0000   0.0000   0.0000

          k = 0.1250-0.5000-0.5000 (   304 PWs)   bands (ev):

    -3.4423  -3.4423  -3.4423  -3.4422   3.8106   3.8107   3.8107   3.8107
     7.8217   7.8217   7.8217   7.8218  11.5609  11.5609  11.5610  11.5610
    22.1250  22.1250  22.1251  22.1251

     occupation numbers 
     1.0000   1.0000   1.0000   1.0000   1.0000   1.0000   1.0000   1.0000
     1.0000   1.0000   1.0000   1.0000   1.0000   1.0000   1.0000   1.0000
     0.0000   0.0000   0.0000   0.0000

          k = 0.2500 0.2500 0.2500 (   305 PWs)   bands (ev):

    -6.3918  -2.0039  -2.0039  -2.0039   2.9533   2.9533   2.9533   7.2665
     7.2665   7.2666   7.2868   9.5907   9.5907   9.5907  13.0007  13.0007
    19.9494  19.9494  19.9494  21.9908

     occupation numbers 
     1.0000   1.0000   1.0000   1.0000   1.0000   1.0000   1.0000   1.0000
     1.0000   1.0000   1.0000   1.0000   1.0000   1.0000   1.0000   1.0000
     0.0000   0.0000   0.0000   0.0000

          k = 0.2500 0.2500 0.3750 (   297 PWs)   bands (ev):

    -5.6712  -3.4275  -1.5418  -1.5417   1.9808   1.9808   3.7391   5.9407
     7.6104   7.6104   9.3351   9.7566   9.7566  10.1872  12.1201  12.7703
    20.6373  21.1458  21.1458  22.0366

     occupation numbers 
     1.0000   1.0000   1.0000   1.0000   1.0000   1.0000   1.0000   1.0000
     1.0000   1.0000   1.0000   1.0000   1.0000   1.0000   1.0000   1.0000
     0.0000   0.0000   0.0000   0.0000

          k = 0.2500 0.2500-0.5000 (   298 PWs)   bands (ev):

    -4.6734  -4.6733  -1.2963  -1.2963   1.4483   1.4483   4.7277   4.7277
     7.6105   7.6106   9.6878   9.6878  11.2112  11.2113  11.5328  11.5329
    21.4241  21.4241  22.6845  22.6845

     occupation numbers 
     1.0000   1.0000   1.0000   1.0000   1.0000   1.0000   1.0000   1.0000
     1.0000   1.0000   1.0000   1.0000   1.0000   1.0000   1.0000   1.0000
     0.0000   0.0000   0.0000   0.0000

          k = 0.2500 0.3750 0.3750 (   305 PWs)   bands (ev):

    -4.9657  -2.8352  -2.8352  -1.5645   1.2746   2.4375   2.4375   4.4918
     8.0961   9.1592   9.1592  10.5370  10.6395  10.6395  11.5237  12.6286
    21.2277  21.7065  21.7065  22.4577

     occupation numbers 
     1.0000   1.0000   1.0000   1.0000   1.0000   1.0000   1.0000   1.0000
     1.0000   1.0000   1.0000   1.0000   1.0000   1.0000   1.0000   1.0000
     0.0000   0.0000   0.0000   0.0000

          k = 0.2500 0.3750-0.5000 (   306 PWs)   bands (ev):

    -4.0003  -4.0003  -2.1108  -2.1107   1.4404   1.4404   3.3227   3.3228
     8.6929   8.6929  10.4780  10.4780  10.8751  10.8751  11.9089  11.9089
    22.3227  22.3227  22.4319  22.4319

     occupation numbers 
     1.0000   1.0000   1.0000   1.0000   1.0000   1.0000   1.0000   1.0000
     1.0000   1.0000   1.0000   1.0000   1.0000   1.0000   1.0000   1.0000
     0.0000   0.0000   0.0000   0.0000

          k = 0.2500-0.5000-0.5000 (   300 PWs)   bands (ev):

    -3.0984  -3.0984  -3.0984  -3.0984   2.2563   2.2563   2.2563   2.2564
     9.5900   9.5900   9.5900   9.5901  11.7872  11.7872  11.7872  11.7872
    22.3955  22.3955  22.3956  22.3956

     occupation numbers 
     1.0000   1.0000   1.0000   1.0000   1.0000   1.0000   1.0000   1.0000
     1.0000   1.0000   1.0000   1.0000   1.0000   1.0000   1.0000   1.0000
     0.0000   0.0000   0.0000   0.0000

          k = 0.3750 0.3750 0.3750 (   302 PWs)   bands (ev):

    -4.2845  -2.3676  -2.3676  -2.3676   1.2292   1.2292   1.2292   3.0899
    10.0283  10.0283  10.0284  11.1539  11.1539  11.1539  12.1844  12.1844
    21.7858  21.7858  21.7859  22.1045

     occupation numbers 
     1.0000   1.0000   1.0000   1.0000   1.0000   1.0000   1.0000   1.0000
     1.0000   1.0000   1.0000   1.0000   1.0000   1.0000   1.0000   1.0000
     0.0000   0.0000   0.0000   0.0000

          k = 0.3750 0.3750-0.5000 (   294 PWs)   bands (ev):

    -3.3751  -3.3750  -2.1032  -2.1032   0.7196   0.7197   2.0025   2.0025
    10.5462  10.5463  11.4021  11.4021  11.6726  11.6726  11.7212  11.7212
    22.3247  22.3247  22.8233  22.8239

     occupation numbers 
     1.0000   1.0000   1.0000   1.0000   1.0000   1.0000   1.0000   1.0000
     1.0000   1.0000   1.0000   1.0000   1.0000   1.0000   1.0000   1.0000
     0.0000   0.0000   0.0000   0.0000

          k = 0.3750-0.5000-0.5000 (   300 PWs)   bands (ev):

    -2.6531  -2.6531  -2.6531  -2.6530   0.9316   0.9317   0.9317   0.9317
    11.3235  11.3235  11.3235  11.3235  11.8684  11.8684  11.8684  11.8684
    22.4507  22.4507  22.4507  22.4507

     occupation numbers 
     1.0000   1.0000   1.0000   1.0000   1.0000   1.0000   1.0000   1.0000
     1.0000   1.0000   1.0000   1.0000   1.0000   1.0000   1.0000   1.0000
     0.0000   0.0000   0.0000   0.0000

          k =-0.5000-0.5000-0.5000 (   304 PWs)   bands (ev):

    -2.3780  -2.3780  -2.3780  -2.3779   0.3371   0.3371   0.3371   0.3371
    11.8952  11.8952  11.8952  11.8952  11.8952  11.8953  11.8953  11.8953
    22.1171  22.1171  22.1172  22.1172

     occupation numbers 
     1.0000   1.0000   1.0000   1.0000   1.0000   1.0000   1.0000   1.0000
     1.0000   1.0000   1.0000   1.0000   1.0000   1.0000   1.0000   1.0000
     0.0000   0.0000   0.0000   0.0000

     the Fermi energy is    15.3695 ev

!    total energy              =     -97.99289746 Ry
     Harris-Foulkes estimate   =     -97.99289746 Ry
     estimated scf accuracy    <       0.00000003 Ry

     The total energy is the sum of the following terms:

     one-electron contribution =      34.74320625 Ry
     hartree contribution      =       7.12726635 Ry
     xc contribution           =     -37.54353768 Ry
     ewald contribution        =    -102.31998215 Ry
     smearing contrib. (-TS)   =       0.00014977 Ry

     convergence has been achieved in   5 iterations

     Writing output data file c-15.save/

     init_run     :      0.13s CPU      0.14s WALL (       1 calls)
     electrons    :      1.42s CPU      1.50s WALL (       1 calls)

     Called by init_run:
     wfcinit      :      0.11s CPU      0.11s WALL (       1 calls)
     wfcinit:atom :      0.00s CPU      0.00s WALL (      35 calls)
     wfcinit:wfcr :      0.10s CPU      0.11s WALL (      35 calls)
     potinit      :      0.00s CPU      0.00s WALL (       1 calls)
     hinit0       :      0.02s CPU      0.02s WALL (       1 calls)

     Called by electrons:
     c_bands      :      1.30s CPU      1.36s WALL (       5 calls)
     sum_band     :      0.12s CPU      0.13s WALL (       5 calls)
     v_of_rho     :      0.00s CPU      0.00s WALL (       6 calls)
     v_h          :      0.00s CPU      0.00s WALL (       6 calls)
     v_xc         :      0.00s CPU      0.00s WALL (       6 calls)
     newd         :      0.00s CPU      0.00s WALL (       6 calls)
     mix_rho      :      0.00s CPU      0.00s WALL (       5 calls)

     Called by c_bands:
     init_us_2    :      0.01s CPU      0.01s WALL (     385 calls)
     cegterg      :      1.27s CPU      1.33s WALL (     175 calls)

     Called by sum_band:
     sum_band:bec :      0.00s CPU      0.00s WALL (     175 calls)
     addusdens    :      0.00s CPU      0.00s WALL (       5 calls)

     Called by *egterg:
     h_psi        :      0.61s CPU      0.64s WALL (     762 calls)
     s_psi        :      0.05s CPU      0.06s WALL (     762 calls)
     g_psi        :      0.00s CPU      0.00s WALL (     552 calls)
     cdiaghg      :      0.49s CPU      0.51s WALL (     727 calls)
     cegterg:over :      0.10s CPU      0.10s WALL (     552 calls)
     cegterg:upda :      0.02s CPU      0.02s WALL (     552 calls)
     cegterg:last :      0.01s CPU      0.01s WALL (     175 calls)

     Called by h_psi:
     h_psi:pot    :      0.60s CPU      0.64s WALL (     762 calls)
     h_psi:calbec :      0.09s CPU      0.10s WALL (     762 calls)
     vloc_psi     :      0.46s CPU      0.48s WALL (     762 calls)
     add_vuspsi   :      0.05s CPU      0.06s WALL (     762 calls)

     General routines
     calbec       :      0.12s CPU      0.13s WALL (     937 calls)
     fft          :      0.00s CPU      0.00s WALL (      66 calls)
     ffts         :      0.00s CPU      0.00s WALL (       5 calls)
     fftw         :      0.49s CPU      0.52s WALL (   23804 calls)

     Parallel routines
     fft_scatt_xy :      0.04s CPU      0.04s WALL (   23875 calls)
     fft_scatt_yz :      0.25s CPU      0.27s WALL (   23875 calls)

     PWSCF        :      1.87s CPU      1.95s WALL


   This run was terminated on:  18:31:33  26May2022            

=------------------------------------------------------------------------------=
   JOB DONE.
=------------------------------------------------------------------------------=
