
     Program PWSCF v.6.4.1 starts on 26May2022 at 18:31:42 

     This program is part of the open-source Quantum ESPRESSO suite
     for quantum simulation of materials; please cite
         "P. Giannozzi et al., J. Phys.:Condens. Matter 21 395502 (2009);
         "P. Giannozzi et al., J. Phys.:Condens. Matter 29 465901 (2017);
          URL http://www.quantum-espresso.org", 
     in publications or presentations arising from this work. More details at
     http://www.quantum-espresso.org/quote

     Parallel version (MPI), running on     6 processors

     MPI processes distributed on     1 nodes
     R & G space division:  proc/nbgrp/npool/nimage =       6
     Reading input from c-35.in

     Current dimensions of program PWSCF are:
     Max number of different atomic species (ntypx) = 10
     Max number of k-points (npk) =  40000
     Max angular momentum in pseudopotentials (lmaxx) =  3

     Subspace diagonalization in iterative solution of the eigenvalue problem:
     a serial algorithm will be used

     Found symmetry operation: I + ( -0.5000 -0.5000  0.0000)
     This is a supercell, fractional translations are disabled
     Message from routine setup:
     DEPRECATED: symmetry with ibrav=0, use correct ibrav instead

     Parallelization info
     --------------------
     sticks:   dense  smooth     PW     G-vecs:    dense   smooth      PW
     Min          84      84     26                 1432     1432     256
     Max          85      85     27                 1435     1435     259
     Sum         505     505    161                 8601     8601    1551



     bravais-lattice index     =            0
     lattice parameter (alat)  =       6.7388  a.u.
     unit-cell volume          =     306.0135 (a.u.)^3
     number of atoms/cell      =            8
     number of atomic types    =            1
     number of electrons       =        32.00
     number of Kohn-Sham states=           20
     kinetic-energy cutoff     =      35.0000  Ry
     charge density cutoff     =     140.0000  Ry
     convergence threshold     =      1.0E-06
     mixing beta               =       0.7000
     number of iterations used =            8  plain     mixing
     Exchange-correlation      = PBE ( 1  4  3  4 0 0)

     celldm(1)=   6.738763  celldm(2)=   0.000000  celldm(3)=   0.000000
     celldm(4)=   0.000000  celldm(5)=   0.000000  celldm(6)=   0.000000

     crystal axes: (cart. coord. in units of alat)
               a(1) = (   1.000000   0.000000   0.000000 )  
               a(2) = (   0.000000   1.000000   0.000000 )  
               a(3) = (   0.000000   0.000000   1.000000 )  

     reciprocal axes: (cart. coord. in units 2 pi/alat)
               b(1) = (  1.000000  0.000000  0.000000 )  
               b(2) = (  0.000000  1.000000  0.000000 )  
               b(3) = (  0.000000  0.000000  1.000000 )  


     PseudoPot. # 1 for C  read from file:
     /home/cristian/Escritorio/Proyecto_Grafeno/pseudopotenciales/C.pbe-n-rrkjus_psl.1.0.0.UPF
     MD5 check sum: 1fdd950c42eb37d8afe3dd2f8d12311e
     Pseudo is Ultrasoft + core correction, Zval =  4.0
     Generated using "atomic" code by A. Dal Corso v.6.3MaX
     Using radial grid of 1073 points,  4 beta functions with: 
                l(1) =   0
                l(2) =   0
                l(3) =   1
                l(4) =   1
     Q(r) pseudized with 0 coefficients 


     atomic species   valence    mass     pseudopotential
        C              4.00    12.01100     C ( 1.00)

     24 Sym. Ops. (no inversion) found


                                    s                        frac. trans.

      isym =  1     identity                                     

 cryst.   s( 1) = (     1          0          0      )
                  (     0          1          0      )
                  (     0          0          1      )

 cart.    s( 1) = (  1.0000000  0.0000000  0.0000000 )
                  (  0.0000000  1.0000000  0.0000000 )
                  (  0.0000000  0.0000000  1.0000000 )


      isym =  2     180 deg rotation - cart. axis [0,0,1]        

 cryst.   s( 2) = (    -1          0          0      )
                  (     0         -1          0      )
                  (     0          0          1      )

 cart.    s( 2) = ( -1.0000000  0.0000000  0.0000000 )
                  (  0.0000000 -1.0000000  0.0000000 )
                  (  0.0000000  0.0000000  1.0000000 )


      isym =  3     180 deg rotation - cart. axis [0,1,0]        

 cryst.   s( 3) = (    -1          0          0      )
                  (     0          1          0      )
                  (     0          0         -1      )

 cart.    s( 3) = ( -1.0000000  0.0000000  0.0000000 )
                  (  0.0000000  1.0000000  0.0000000 )
                  (  0.0000000  0.0000000 -1.0000000 )


      isym =  4     180 deg rotation - cart. axis [1,0,0]        

 cryst.   s( 4) = (     1          0          0      )
                  (     0         -1          0      )
                  (     0          0         -1      )

 cart.    s( 4) = (  1.0000000  0.0000000  0.0000000 )
                  (  0.0000000 -1.0000000  0.0000000 )
                  (  0.0000000  0.0000000 -1.0000000 )


      isym =  5     120 deg rotation - cart. axis [-1,-1,-1]     

 cryst.   s( 5) = (     0          0          1      )
                  (     1          0          0      )
                  (     0          1          0      )

 cart.    s( 5) = (  0.0000000  1.0000000  0.0000000 )
                  (  0.0000000  0.0000000  1.0000000 )
                  (  1.0000000  0.0000000  0.0000000 )


      isym =  6     120 deg rotation - cart. axis [-1,1,1]       

 cryst.   s( 6) = (     0          0         -1      )
                  (    -1          0          0      )
                  (     0          1          0      )

 cart.    s( 6) = (  0.0000000 -1.0000000  0.0000000 )
                  (  0.0000000  0.0000000  1.0000000 )
                  ( -1.0000000  0.0000000  0.0000000 )


      isym =  7     120 deg rotation - cart. axis [1,1,-1]       

 cryst.   s( 7) = (     0          0         -1      )
                  (     1          0          0      )
                  (     0         -1          0      )

 cart.    s( 7) = (  0.0000000  1.0000000  0.0000000 )
                  (  0.0000000  0.0000000 -1.0000000 )
                  ( -1.0000000  0.0000000  0.0000000 )


      isym =  8     120 deg rotation - cart. axis [1,-1,1]       

 cryst.   s( 8) = (     0          0          1      )
                  (    -1          0          0      )
                  (     0         -1          0      )

 cart.    s( 8) = (  0.0000000 -1.0000000  0.0000000 )
                  (  0.0000000  0.0000000 -1.0000000 )
                  (  1.0000000  0.0000000  0.0000000 )


      isym =  9     120 deg rotation - cart. axis [1,1,1]        

 cryst.   s( 9) = (     0          1          0      )
                  (     0          0          1      )
                  (     1          0          0      )

 cart.    s( 9) = (  0.0000000  0.0000000  1.0000000 )
                  (  1.0000000  0.0000000  0.0000000 )
                  (  0.0000000  1.0000000  0.0000000 )


      isym = 10     120 deg rotation - cart. axis [-1,1,-1]      

 cryst.   s(10) = (     0         -1          0      )
                  (     0          0         -1      )
                  (     1          0          0      )

 cart.    s(10) = (  0.0000000  0.0000000  1.0000000 )
                  ( -1.0000000  0.0000000  0.0000000 )
                  (  0.0000000 -1.0000000  0.0000000 )


      isym = 11     120 deg rotation - cart. axis [1,-1,-1]      

 cryst.   s(11) = (     0         -1          0      )
                  (     0          0          1      )
                  (    -1          0          0      )

 cart.    s(11) = (  0.0000000  0.0000000 -1.0000000 )
                  ( -1.0000000  0.0000000  0.0000000 )
                  (  0.0000000  1.0000000  0.0000000 )


      isym = 12     120 deg rotation - cart. axis [-1,-1,1]      

 cryst.   s(12) = (     0          1          0      )
                  (     0          0         -1      )
                  (    -1          0          0      )

 cart.    s(12) = (  0.0000000  0.0000000 -1.0000000 )
                  (  1.0000000  0.0000000  0.0000000 )
                  (  0.0000000 -1.0000000  0.0000000 )


      isym = 13     inv. 180 deg rotation - cart. axis [1,1,0]   

 cryst.   s(13) = (     0         -1          0      )
                  (    -1          0          0      )
                  (     0          0          1      )

 cart.    s(13) = (  0.0000000 -1.0000000  0.0000000 )
                  ( -1.0000000  0.0000000  0.0000000 )
                  (  0.0000000  0.0000000  1.0000000 )


      isym = 14     inv. 180 deg rotation - cart. axis [1,-1,0]  

 cryst.   s(14) = (     0          1          0      )
                  (     1          0          0      )
                  (     0          0          1      )

 cart.    s(14) = (  0.0000000  1.0000000  0.0000000 )
                  (  1.0000000  0.0000000  0.0000000 )
                  (  0.0000000  0.0000000  1.0000000 )


      isym = 15     inv.  90 deg rotation - cart. axis [0,0,-1]  

 cryst.   s(15) = (     0          1          0      )
                  (    -1          0          0      )
                  (     0          0         -1      )

 cart.    s(15) = (  0.0000000 -1.0000000  0.0000000 )
                  (  1.0000000  0.0000000  0.0000000 )
                  (  0.0000000  0.0000000 -1.0000000 )


      isym = 16     inv.  90 deg rotation - cart. axis [0,0,1]   

 cryst.   s(16) = (     0         -1          0      )
                  (     1          0          0      )
                  (     0          0         -1      )

 cart.    s(16) = (  0.0000000  1.0000000  0.0000000 )
                  ( -1.0000000  0.0000000  0.0000000 )
                  (  0.0000000  0.0000000 -1.0000000 )


      isym = 17     inv. 180 deg rotation - cart. axis [1,0,1]   

 cryst.   s(17) = (     0          0         -1      )
                  (     0          1          0      )
                  (    -1          0          0      )

 cart.    s(17) = (  0.0000000  0.0000000 -1.0000000 )
                  (  0.0000000  1.0000000  0.0000000 )
                  ( -1.0000000  0.0000000  0.0000000 )


      isym = 18     inv. 180 deg rotation - cart. axis [-1,0,1]  

 cryst.   s(18) = (     0          0          1      )
                  (     0          1          0      )
                  (     1          0          0      )

 cart.    s(18) = (  0.0000000  0.0000000  1.0000000 )
                  (  0.0000000  1.0000000  0.0000000 )
                  (  1.0000000  0.0000000  0.0000000 )


      isym = 19     inv.  90 deg rotation - cart. axis [0,1,0]   

 cryst.   s(19) = (     0          0          1      )
                  (     0         -1          0      )
                  (    -1          0          0      )

 cart.    s(19) = (  0.0000000  0.0000000 -1.0000000 )
                  (  0.0000000 -1.0000000  0.0000000 )
                  (  1.0000000  0.0000000  0.0000000 )


      isym = 20     inv.  90 deg rotation - cart. axis [0,-1,0]  

 cryst.   s(20) = (     0          0         -1      )
                  (     0         -1          0      )
                  (     1          0          0      )

 cart.    s(20) = (  0.0000000  0.0000000  1.0000000 )
                  (  0.0000000 -1.0000000  0.0000000 )
                  ( -1.0000000  0.0000000  0.0000000 )


      isym = 21     inv. 180 deg rotation - cart. axis [0,1,1]   

 cryst.   s(21) = (     1          0          0      )
                  (     0          0         -1      )
                  (     0         -1          0      )

 cart.    s(21) = (  1.0000000  0.0000000  0.0000000 )
                  (  0.0000000  0.0000000 -1.0000000 )
                  (  0.0000000 -1.0000000  0.0000000 )


      isym = 22     inv. 180 deg rotation - cart. axis [0,1,-1]  

 cryst.   s(22) = (     1          0          0      )
                  (     0          0          1      )
                  (     0          1          0      )

 cart.    s(22) = (  1.0000000  0.0000000  0.0000000 )
                  (  0.0000000  0.0000000  1.0000000 )
                  (  0.0000000  1.0000000  0.0000000 )


      isym = 23     inv.  90 deg rotation - cart. axis [-1,0,0]  

 cryst.   s(23) = (    -1          0          0      )
                  (     0          0          1      )
                  (     0         -1          0      )

 cart.    s(23) = ( -1.0000000  0.0000000  0.0000000 )
                  (  0.0000000  0.0000000 -1.0000000 )
                  (  0.0000000  1.0000000  0.0000000 )


      isym = 24     inv.  90 deg rotation - cart. axis [1,0,0]   

 cryst.   s(24) = (    -1          0          0      )
                  (     0          0         -1      )
                  (     0          1          0      )

 cart.    s(24) = ( -1.0000000  0.0000000  0.0000000 )
                  (  0.0000000  0.0000000  1.0000000 )
                  (  0.0000000 -1.0000000  0.0000000 )


   Cartesian axes

     site n.     atom                  positions (alat units)
         1           C   tau(   1) = (   0.0000000   0.0000000   0.0000000  )
         2           C   tau(   2) = (   0.5000000   0.5000000   0.0000000  )
         3           C   tau(   3) = (   0.0000000   0.5000000   0.5000000  )
         4           C   tau(   4) = (   0.5000000   0.0000000   0.5000000  )
         5           C   tau(   5) = (   0.2500000   0.2500000   0.2500000  )
         6           C   tau(   6) = (   0.7500000   0.7500000   0.2500000  )
         7           C   tau(   7) = (   0.2500000   0.7500000   0.7500000  )
         8           C   tau(   8) = (   0.7500000   0.2500000   0.7500000  )

   Crystallographic axes

     site n.     atom                  positions (cryst. coord.)
         1           C   tau(   1) = (  0.0000000  0.0000000  0.0000000  )
         2           C   tau(   2) = (  0.5000000  0.5000000  0.0000000  )
         3           C   tau(   3) = (  0.0000000  0.5000000  0.5000000  )
         4           C   tau(   4) = (  0.5000000  0.0000000  0.5000000  )
         5           C   tau(   5) = (  0.2500000  0.2500000  0.2500000  )
         6           C   tau(   6) = (  0.7500000  0.7500000  0.2500000  )
         7           C   tau(   7) = (  0.2500000  0.7500000  0.7500000  )
         8           C   tau(   8) = (  0.7500000  0.2500000  0.7500000  )

     number of k points=    35  Marzari-Vanderbilt smearing, width (Ry)=  0.0200
                       cart. coord. in units 2pi/alat
        k(    1) = (   0.0000000   0.0000000   0.0000000), wk =   0.0039062
        k(    2) = (   0.0000000   0.0000000   0.1250000), wk =   0.0234375
        k(    3) = (   0.0000000   0.0000000   0.2500000), wk =   0.0234375
        k(    4) = (   0.0000000   0.0000000   0.3750000), wk =   0.0234375
        k(    5) = (   0.0000000   0.0000000  -0.5000000), wk =   0.0117188
        k(    6) = (   0.0000000   0.1250000   0.1250000), wk =   0.0468750
        k(    7) = (   0.0000000   0.1250000   0.2500000), wk =   0.0937500
        k(    8) = (   0.0000000   0.1250000   0.3750000), wk =   0.0937500
        k(    9) = (   0.0000000   0.1250000  -0.5000000), wk =   0.0468750
        k(   10) = (   0.0000000   0.2500000   0.2500000), wk =   0.0468750
        k(   11) = (   0.0000000   0.2500000   0.3750000), wk =   0.0937500
        k(   12) = (   0.0000000   0.2500000  -0.5000000), wk =   0.0468750
        k(   13) = (   0.0000000   0.3750000   0.3750000), wk =   0.0468750
        k(   14) = (   0.0000000   0.3750000  -0.5000000), wk =   0.0468750
        k(   15) = (   0.0000000  -0.5000000  -0.5000000), wk =   0.0117188
        k(   16) = (   0.1250000   0.1250000   0.1250000), wk =   0.0312500
        k(   17) = (   0.1250000   0.1250000   0.2500000), wk =   0.0937500
        k(   18) = (   0.1250000   0.1250000   0.3750000), wk =   0.0937500
        k(   19) = (   0.1250000   0.1250000  -0.5000000), wk =   0.0468750
        k(   20) = (   0.1250000   0.2500000   0.2500000), wk =   0.0937500
        k(   21) = (   0.1250000   0.2500000   0.3750000), wk =   0.1875000
        k(   22) = (   0.1250000   0.2500000  -0.5000000), wk =   0.0937500
        k(   23) = (   0.1250000   0.3750000   0.3750000), wk =   0.0937500
        k(   24) = (   0.1250000   0.3750000  -0.5000000), wk =   0.0937500
        k(   25) = (   0.1250000  -0.5000000  -0.5000000), wk =   0.0234375
        k(   26) = (   0.2500000   0.2500000   0.2500000), wk =   0.0312500
        k(   27) = (   0.2500000   0.2500000   0.3750000), wk =   0.0937500
        k(   28) = (   0.2500000   0.2500000  -0.5000000), wk =   0.0468750
        k(   29) = (   0.2500000   0.3750000   0.3750000), wk =   0.0937500
        k(   30) = (   0.2500000   0.3750000  -0.5000000), wk =   0.0937500
        k(   31) = (   0.2500000  -0.5000000  -0.5000000), wk =   0.0234375
        k(   32) = (   0.3750000   0.3750000   0.3750000), wk =   0.0312500
        k(   33) = (   0.3750000   0.3750000  -0.5000000), wk =   0.0468750
        k(   34) = (   0.3750000  -0.5000000  -0.5000000), wk =   0.0234375
        k(   35) = (  -0.5000000  -0.5000000  -0.5000000), wk =   0.0039062

                       cryst. coord.
        k(    1) = (   0.0000000   0.0000000   0.0000000), wk =   0.0039062
        k(    2) = (   0.0000000   0.0000000   0.1250000), wk =   0.0234375
        k(    3) = (   0.0000000   0.0000000   0.2500000), wk =   0.0234375
        k(    4) = (   0.0000000   0.0000000   0.3750000), wk =   0.0234375
        k(    5) = (   0.0000000   0.0000000  -0.5000000), wk =   0.0117188
        k(    6) = (   0.0000000   0.1250000   0.1250000), wk =   0.0468750
        k(    7) = (   0.0000000   0.1250000   0.2500000), wk =   0.0937500
        k(    8) = (   0.0000000   0.1250000   0.3750000), wk =   0.0937500
        k(    9) = (   0.0000000   0.1250000  -0.5000000), wk =   0.0468750
        k(   10) = (   0.0000000   0.2500000   0.2500000), wk =   0.0468750
        k(   11) = (   0.0000000   0.2500000   0.3750000), wk =   0.0937500
        k(   12) = (   0.0000000   0.2500000  -0.5000000), wk =   0.0468750
        k(   13) = (   0.0000000   0.3750000   0.3750000), wk =   0.0468750
        k(   14) = (   0.0000000   0.3750000  -0.5000000), wk =   0.0468750
        k(   15) = (   0.0000000  -0.5000000  -0.5000000), wk =   0.0117188
        k(   16) = (   0.1250000   0.1250000   0.1250000), wk =   0.0312500
        k(   17) = (   0.1250000   0.1250000   0.2500000), wk =   0.0937500
        k(   18) = (   0.1250000   0.1250000   0.3750000), wk =   0.0937500
        k(   19) = (   0.1250000   0.1250000  -0.5000000), wk =   0.0468750
        k(   20) = (   0.1250000   0.2500000   0.2500000), wk =   0.0937500
        k(   21) = (   0.1250000   0.2500000   0.3750000), wk =   0.1875000
        k(   22) = (   0.1250000   0.2500000  -0.5000000), wk =   0.0937500
        k(   23) = (   0.1250000   0.3750000   0.3750000), wk =   0.0937500
        k(   24) = (   0.1250000   0.3750000  -0.5000000), wk =   0.0937500
        k(   25) = (   0.1250000  -0.5000000  -0.5000000), wk =   0.0234375
        k(   26) = (   0.2500000   0.2500000   0.2500000), wk =   0.0312500
        k(   27) = (   0.2500000   0.2500000   0.3750000), wk =   0.0937500
        k(   28) = (   0.2500000   0.2500000  -0.5000000), wk =   0.0468750
        k(   29) = (   0.2500000   0.3750000   0.3750000), wk =   0.0937500
        k(   30) = (   0.2500000   0.3750000  -0.5000000), wk =   0.0937500
        k(   31) = (   0.2500000  -0.5000000  -0.5000000), wk =   0.0234375
        k(   32) = (   0.3750000   0.3750000   0.3750000), wk =   0.0312500
        k(   33) = (   0.3750000   0.3750000  -0.5000000), wk =   0.0468750
        k(   34) = (   0.3750000  -0.5000000  -0.5000000), wk =   0.0234375
        k(   35) = (  -0.5000000  -0.5000000  -0.5000000), wk =   0.0039062

     Dense  grid:     8601 G-vectors     FFT dimensions: (  25,  25,  25)

     Dynamical RAM for                 wfc:       0.05 MB

     Dynamical RAM for     wfc (w. buffer):       1.96 MB

     Dynamical RAM for           str. fact:       0.02 MB

     Dynamical RAM for           local pot:       0.00 MB

     Dynamical RAM for          nlocal pot:       0.17 MB

     Dynamical RAM for                qrad:       0.29 MB

     Dynamical RAM for          rho,v,vnew:       0.14 MB

     Dynamical RAM for               rhoin:       0.05 MB

     Dynamical RAM for            rho*nmix:       0.35 MB

     Dynamical RAM for           G-vectors:       0.09 MB

     Dynamical RAM for          h,s,v(r/c):       0.29 MB

     Dynamical RAM for          <psi|beta>:       0.02 MB

     Dynamical RAM for                 psi:       0.22 MB

     Dynamical RAM for                hpsi:       0.22 MB

     Dynamical RAM for                spsi:       0.22 MB

     Dynamical RAM for      wfcinit/wfcrot:       0.20 MB

     Dynamical RAM for           addusdens:       1.12 MB

     Estimated static dynamical RAM per process >       3.23 MB

     Estimated max dynamical RAM per process >       4.35 MB

     Estimated total dynamical RAM >      26.09 MB

     Check: negative core charge=   -0.000184

     Initial potential from superposition of free atoms

     starting charge   31.99967, renormalised to   32.00000
     Starting wfcs are   32 randomized atomic wfcs

     total cpu time spent up to now is        0.6 secs

     Self-consistent Calculation

     iteration #  1     ecut=    35.00 Ry     beta= 0.70
     Davidson diagonalization with overlap
     ethr =  1.00E-02,  avg # of iterations =  2.5

     total cpu time spent up to now is        1.2 secs

     total energy              =     -99.29992674 Ry
     Harris-Foulkes estimate   =     -99.50934625 Ry
     estimated scf accuracy    <       0.47014768 Ry

     iteration #  2     ecut=    35.00 Ry     beta= 0.70
     Davidson diagonalization with overlap
     ethr =  1.47E-03,  avg # of iterations =  1.4

     total cpu time spent up to now is        1.6 secs

     total energy              =     -99.33397503 Ry
     Harris-Foulkes estimate   =     -99.33460025 Ry
     estimated scf accuracy    <       0.00966586 Ry

     iteration #  3     ecut=    35.00 Ry     beta= 0.70
     Davidson diagonalization with overlap
     ethr =  3.02E-05,  avg # of iterations =  6.2

     total cpu time spent up to now is        2.3 secs

     total energy              =     -99.33521440 Ry
     Harris-Foulkes estimate   =     -99.33514850 Ry
     estimated scf accuracy    <       0.00027454 Ry

     iteration #  4     ecut=    35.00 Ry     beta= 0.70
     Davidson diagonalization with overlap
     ethr =  8.58E-07,  avg # of iterations =  4.0

     total cpu time spent up to now is        2.9 secs

     total energy              =     -99.33524440 Ry
     Harris-Foulkes estimate   =     -99.33524454 Ry
     estimated scf accuracy    <       0.00000253 Ry

     iteration #  5     ecut=    35.00 Ry     beta= 0.70
     Davidson diagonalization with overlap
     ethr =  7.92E-09,  avg # of iterations =  2.5

     total cpu time spent up to now is        3.4 secs

     End of self-consistent calculation

          k = 0.0000 0.0000 0.0000 (  1045 PWs)   bands (ev):

    -8.1246   0.5862   0.5862   0.5869   0.5869   0.5869   0.5881   7.0479
     7.0479   7.0479   7.0485   7.0485   7.0485  13.3536  13.3536  13.3536
    18.1478  18.1480  18.1481  18.1486

     occupation numbers 
     1.0000   1.0000   1.0000   1.0000   1.0000   1.0000   1.0000   1.0000
     1.0000   1.0000   1.0000   1.0000   1.0000   1.0000   1.0000   1.0000
     0.0000   0.0000   0.0000   0.0000

          k = 0.0000 0.0000 0.1250 (  1061 PWs)   bands (ev):

    -7.9803  -1.3377   0.6769   0.6775   0.6775   0.6782   2.6457   6.7395
     6.7397   6.7397   6.7400   7.1890   7.1890  12.8004  12.8004  13.0031
    17.6889  18.7272  18.7276  18.8521

     occupation numbers 
     1.0000   1.0000   1.0000   1.0000   1.0000   1.0000   1.0000   1.0000
     1.0000   1.0000   1.0000   1.0000   1.0000   1.0000   1.0000   1.0000
     0.0000   0.0000   0.0000   0.0000

          k = 0.0000 0.0000 0.2500 (  1077 PWs)   bands (ev):

    -7.5489  -3.0727   0.9236   0.9243   0.9243   0.9249   4.7688   6.0305
     6.0307   6.0307   6.0309   7.6050   7.6050  11.6287  11.6287  12.0314
    17.5162  18.5561  20.1211  20.2596

     occupation numbers 
     1.0000   1.0000   1.0000   1.0000   1.0000   1.0000   1.0000   1.0000
     1.0000   1.0000   1.0000   1.0000   1.0000   1.0000   1.0000   1.0000
     0.0000   0.0000   0.0000   0.0000

          k = 0.0000 0.0000 0.3750 (  1072 PWs)   bands (ev):

    -6.8338  -4.5820   1.2263   1.2271   1.2271   1.2277   5.3276   5.3278
     5.3278   5.3280   6.8654   8.2921   8.2921  10.3661  10.3661  10.5917
    17.5793  18.1756  21.7078  22.3308

     occupation numbers 
     1.0000   1.0000   1.0000   1.0000   1.0000   1.0000   1.0000   1.0000
     1.0000   1.0000   1.0000   1.0000   1.0000   1.0000   1.0000   1.0000
     0.0000   0.0000   0.0000   0.0000

          k = 0.0000 0.0000-0.5000 (  1108 PWs)   bands (ev):

    -5.8419  -5.8413   1.3774   1.3782   1.3782   1.3789   5.0233   5.0234
     5.0234   5.0235   8.8344   8.8352   9.2213   9.2213   9.2218   9.2218
    17.8192  17.8194  23.6364  23.6370

     occupation numbers 
     1.0000   1.0000   1.0000   1.0000   1.0000   1.0000   1.0000   1.0000
     1.0000   1.0000   1.0000   1.0000   1.0000   1.0000   1.0000   1.0000
     0.0000   0.0000   0.0000   0.0000

          k = 0.0000 0.1250 0.1250 (  1069 PWs)   bands (ev):

    -7.8362  -1.2218  -1.2211   0.6694   0.8448   2.6825   2.6832   5.7791
     6.8417   6.8418   6.9484   6.9487   7.2856  11.9329  12.2830  13.1734
    18.2869  18.2874  18.3808  19.2574

     occupation numbers 
     1.0000   1.0000   1.0000   1.0000   1.0000   1.0000   1.0000   1.0000
     1.0000   1.0000   1.0000   1.0000   1.0000   1.0000   1.0000   1.0000
     0.0000   0.0000   0.0000   0.0000

          k = 0.0000 0.1250 0.2500 (  1071 PWs)   bands (ev):

    -7.4056  -2.9438  -0.8849   0.7247   1.1916   2.7342   4.6806   4.8200
     6.0255   6.4504   7.2193   7.2347   7.5074  10.6607  11.1574  12.5840
    18.1263  19.1251  19.1749  19.8572

     occupation numbers 
     1.0000   1.0000   1.0000   1.0000   1.0000   1.0000   1.0000   1.0000
     1.0000   1.0000   1.0000   1.0000   1.0000   1.0000   1.0000   1.0000
     0.0000   0.0000   0.0000   0.0000

          k = 0.0000 0.1250 0.3750 (  1078 PWs)   bands (ev):

    -6.6919  -4.4463  -0.3718   0.6262   1.6854   2.6223   4.2847   5.1171
     6.1380   6.4828   6.7586   7.8999   8.4973   9.3169   9.9246  11.3797
    18.1936  18.7714  20.8531  21.9895

     occupation numbers 
     1.0000   1.0000   1.0000   1.0000   1.0000   1.0000   1.0000   1.0000
     1.0000   1.0000   1.0000   1.0000   1.0000   1.0000   1.0000   1.0000
     0.0000   0.0000   0.0000   0.0000

          k = 0.0000 0.1250-0.5000 (  1080 PWs)   bands (ev):

    -5.7020  -5.7014   0.2062   0.2069   2.2257   2.2264   4.4363   4.4364
     6.2833   6.2835   7.9732   7.9736   8.8108   8.8113   9.8945   9.8945
    18.4309  18.4311  22.8587  22.8590

     occupation numbers 
     1.0000   1.0000   1.0000   1.0000   1.0000   1.0000   1.0000   1.0000
     1.0000   1.0000   1.0000   1.0000   1.0000   1.0000   1.0000   1.0000
     0.0000   0.0000   0.0000   0.0000

          k = 0.0000 0.2500 0.2500 (  1073 PWs)   bands (ev):

    -6.9772  -2.5635  -2.5628   0.3749   1.6169   4.0278   4.3402   4.3412
     6.3553   6.3553   7.4073   7.4073   7.9790   9.3635  10.0973  12.5944
    19.0635  19.7075  19.7081  20.1224

     occupation numbers 
     1.0000   1.0000   1.0000   1.0000   1.0000   1.0000   1.0000   1.0000
     1.0000   1.0000   1.0000   1.0000   1.0000   1.0000   1.0000   1.0000
     0.0000   0.0000   0.0000   0.0000

          k = 0.0000 0.2500 0.3750 (  1076 PWs)   bands (ev):

    -6.2678  -4.0430  -1.9523  -0.3076   2.2135   3.7104   3.9552   5.3469
     5.6496   6.9742   7.5476   8.0703   8.1312   8.8603   8.9209  11.8197
    19.7580  20.0313  20.1876  21.8327

     occupation numbers 
     1.0000   1.0000   1.0000   1.0000   1.0000   1.0000   1.0000   1.0000
     1.0000   1.0000   1.0000   1.0000   1.0000   1.0000   1.0000   1.0000
     0.0000   0.0000   0.0000   0.0000

          k = 0.0000 0.2500-0.5000 (  1074 PWs)   bands (ev):

    -5.2854  -5.2849  -1.1614  -1.1608   2.9435   2.9442   4.4782   4.4784
     6.8410   6.8414   7.8472   7.8476   7.8745   7.8748  10.4605  10.4606
    19.9502  19.9503  21.7540  21.7546

     occupation numbers 
     1.0000   1.0000   1.0000   1.0000   1.0000   1.0000   1.0000   1.0000
     1.0000   1.0000   1.0000   1.0000   1.0000   1.0000   1.0000   1.0000
     0.0000   0.0000   0.0000   0.0000

          k = 0.0000 0.3750 0.3750 (  1067 PWs)   bands (ev):

    -5.5668  -3.3833  -3.3826  -1.4260   2.8929   4.2517   4.6777   4.6788
     5.9116   5.9117   6.8424   7.7852   9.0496   9.1996   9.1999  11.6055
    20.1215  21.5231  21.8163  21.8168

     occupation numbers 
     1.0000   1.0000   1.0000   1.0000   1.0000   1.0000   1.0000   1.0000
     1.0000   1.0000   1.0000   1.0000   1.0000   1.0000   1.0000   1.0000
     0.0000   0.0000   0.0000   0.0000

          k = 0.0000 0.3750-0.5000 (  1070 PWs)   bands (ev):

    -4.5995  -4.5989  -2.4928  -2.4922   3.7282   3.7288   4.9540   4.9542
     5.7036   5.7041   6.7453   6.7457   9.3504   9.3508  10.6695  10.6698
    21.1624  21.1632  21.8423  21.8426

     occupation numbers 
     1.0000   1.0000   1.0000   1.0000   1.0000   1.0000   1.0000   1.0000
     1.0000   1.0000   1.0000   1.0000   1.0000   1.0000   1.0000   1.0000
     0.0000   0.0000   0.0000   0.0000

          k = 0.0000-0.5000-0.5000 (  1056 PWs)   bands (ev):

    -3.6587  -3.6587  -3.6585  -3.6574   4.6497   4.6497   4.6503   4.6513
     5.7410   5.7414   5.7414   5.7417  10.3400  10.3400  10.3401  10.3408
    21.3144  21.3145  21.3145  21.3160

     occupation numbers 
     1.0000   1.0000   1.0000   1.0000   1.0000   1.0000   1.0000   1.0000
     1.0000   1.0000   1.0000   1.0000   1.0000   1.0000   1.0000   1.0000
     0.0000   0.0000   0.0000   0.0000

          k = 0.1250 0.1250 0.1250 (  1069 PWs)   bands (ev):

    -7.6925  -1.1108  -1.1108  -1.1099   2.6805   2.6805   2.6815   6.0023
     6.0023   6.0025   7.4227   7.4231   7.4231  10.9417  12.7019  12.7019
    18.3609  18.3609  18.3616  19.8224

     occupation numbers 
     1.0000   1.0000   1.0000   1.0000   1.0000   1.0000   1.0000   1.0000
     1.0000   1.0000   1.0000   1.0000   1.0000   1.0000   1.0000   1.0000
     0.0000   0.0000   0.0000   0.0000

          k = 0.1250 0.1250 0.2500 (  1062 PWs)   bands (ev):

    -7.2626  -2.8170  -0.7974  -0.7968   2.5665   2.5673   4.4480   5.2222
     5.2223   6.7530   7.3766   7.3769   7.8287   9.5941  11.6519  12.3937
    18.3917  19.2316  19.2320  19.5801

     occupation numbers 
     1.0000   1.0000   1.0000   1.0000   1.0000   1.0000   1.0000   1.0000
     1.0000   1.0000   1.0000   1.0000   1.0000   1.0000   1.0000   1.0000
     0.0000   0.0000   0.0000   0.0000

          k = 0.1250 0.1250 0.3750 (  1075 PWs)   bands (ev):

    -6.5504  -4.3116  -0.3699  -0.3692   2.1814   2.1822   4.9354   4.9355
     5.8342   6.9986   6.9989   8.1273   8.2622   8.4925  10.4759  11.3215
    18.5554  19.2130  20.9159  20.9163

     occupation numbers 
     1.0000   1.0000   1.0000   1.0000   1.0000   1.0000   1.0000   1.0000
     1.0000   1.0000   1.0000   1.0000   1.0000   1.0000   1.0000   1.0000
     0.0000   0.0000   0.0000   0.0000

          k = 0.1250 0.1250-0.5000 (  1074 PWs)   bands (ev):

    -5.5629  -5.5624  -0.1191  -0.1184   1.8973   1.8980   4.9452   4.9452
     6.7724   6.7726   7.0240   7.0242   9.3917   9.3921   9.7935   9.7937
    18.8450  18.8454  22.5658  22.5660

     occupation numbers 
     1.0000   1.0000   1.0000   1.0000   1.0000   1.0000   1.0000   1.0000
     1.0000   1.0000   1.0000   1.0000   1.0000   1.0000   1.0000   1.0000
     0.0000   0.0000   0.0000   0.0000

          k = 0.1250 0.2500 0.2500 (  1068 PWs)   bands (ev):

    -6.8351  -2.4444  -2.4437  -0.5991   2.0200   3.7277   3.7285   4.8705
     6.4011   6.4011   7.8732   7.8734   8.1046   8.2137  11.0100  12.3149
    19.1688  19.3981  19.3986  20.4083

     occupation numbers 
     1.0000   1.0000   1.0000   1.0000   1.0000   1.0000   1.0000   1.0000
     1.0000   1.0000   1.0000   1.0000   1.0000   1.0000   1.0000   1.0000
     0.0000   0.0000   0.0000   0.0000

          k = 0.1250 0.2500 0.3750 (  1081 PWs)   bands (ev):

    -6.1274  -3.9114  -1.8561  -0.6032   1.5941   2.7730   4.6768   5.1084
     6.1024   6.8883   7.7685   7.8493   8.2607   8.8888   9.9457  11.6406
    19.6638  20.1356  20.3382  21.0937

     occupation numbers 
     1.0000   1.0000   1.0000   1.0000   1.0000   1.0000   1.0000   1.0000
     1.0000   1.0000   1.0000   1.0000   1.0000   1.0000   1.0000   1.0000
     0.0000   0.0000   0.0000   0.0000

          k = 0.1250 0.2500-0.5000 (  1078 PWs)   bands (ev):

    -5.1481  -5.1475  -1.1449  -1.1443   1.9368   1.9373   5.6100   5.6100
     5.7034   5.7036   8.0508   8.0511   8.8695   8.8698  10.3577  10.3579
    20.0005  20.0010  21.7686  21.7690

     occupation numbers 
     1.0000   1.0000   1.0000   1.0000   1.0000   1.0000   1.0000   1.0000
     1.0000   1.0000   1.0000   1.0000   1.0000   1.0000   1.0000   1.0000
     0.0000   0.0000   0.0000   0.0000

          k = 0.1250 0.3750 0.3750 (  1061 PWs)   bands (ev):

    -5.4285  -3.2601  -3.2594  -1.4056   1.7596   3.5031   3.5038   5.5864
     5.6048   7.0705   7.0708   8.9841   9.1466   9.2676   9.2678  11.5138
    20.2338  21.3495  21.3499  21.4973

     occupation numbers 
     1.0000   1.0000   1.0000   1.0000   1.0000   1.0000   1.0000   1.0000
     1.0000   1.0000   1.0000   1.0000   1.0000   1.0000   1.0000   1.0000
     0.0000   0.0000   0.0000   0.0000

          k = 0.1250 0.3750-0.5000 (  1064 PWs)   bands (ev):

    -4.4658  -4.4652  -2.3927  -2.3921   2.4846   2.4850   4.4431   4.4433
     6.2966   6.2967   7.9982   7.9985   9.4293   9.4297  10.6500  10.6503
    21.2415  21.2422  21.6022  21.6027

     occupation numbers 
     1.0000   1.0000   1.0000   1.0000   1.0000   1.0000   1.0000   1.0000
     1.0000   1.0000   1.0000   1.0000   1.0000   1.0000   1.0000   1.0000
     0.0000   0.0000   0.0000   0.0000

          k = 0.1250-0.5000-0.5000 (  1056 PWs)   bands (ev):

    -3.5340  -3.5340  -3.5339  -3.5327   3.3466   3.3466   3.3470   3.3475
     7.1023   7.1023   7.1025   7.1028  10.3675  10.3675  10.3675  10.3683
    21.3908  21.3908  21.3909  21.3924

     occupation numbers 
     1.0000   1.0000   1.0000   1.0000   1.0000   1.0000   1.0000   1.0000
     1.0000   1.0000   1.0000   1.0000   1.0000   1.0000   1.0000   1.0000
     0.0000   0.0000   0.0000   0.0000

          k = 0.2500 0.2500 0.2500 (  1069 PWs)   bands (ev):

    -6.4103  -2.1040  -2.1040  -2.1030   2.5626   2.5626   2.5636   6.6085
     6.6085   6.6086   6.7579   8.4671   8.4675   8.4675  11.6075  11.6075
    19.4650  19.4650  19.4656  21.1635

     occupation numbers 
     1.0000   1.0000   1.0000   1.0000   1.0000   1.0000   1.0000   1.0000
     1.0000   1.0000   1.0000   1.0000   1.0000   1.0000   1.0000   1.0000
     0.0000   0.0000   0.0000   0.0000

          k = 0.2500 0.2500 0.3750 (  1066 PWs)   bands (ev):

    -5.7080  -3.5235  -1.6280  -1.6272   1.4852   1.4857   3.2840   5.4065
     6.8897   6.8897   8.4875   8.6699   8.6703   9.0558  10.7124  11.2977
    19.8983  20.4344  20.4347  20.8357

     occupation numbers 
     1.0000   1.0000   1.0000   1.0000   1.0000   1.0000   1.0000   1.0000
     1.0000   1.0000   1.0000   1.0000   1.0000   1.0000   1.0000   1.0000
     0.0000   0.0000   0.0000   0.0000

          k = 0.2500 0.2500-0.5000 (  1062 PWs)   bands (ev):

    -4.7391  -4.7385  -1.3378  -1.3370   0.9823   0.9828   4.2357   4.2359
     7.0356   7.0356   8.6603   8.6606   9.8259   9.8263  10.1539  10.1542
    20.3858  20.3865  21.6856  21.6858

     occupation numbers 
     1.0000   1.0000   1.0000   1.0000   1.0000   1.0000   1.0000   1.0000
     1.0000   1.0000   1.0000   1.0000   1.0000   1.0000   1.0000   1.0000
     0.0000   0.0000   0.0000   0.0000

          k = 0.2500 0.3750 0.3750 (  1063 PWs)   bands (ev):

    -5.0171  -2.9067  -2.9060  -1.5879   0.7415   2.0145   2.0151   4.0499
     7.4808   8.4261   8.4264   9.4135   9.4654   9.4656  10.2415  11.2439
    20.5514  20.8660  20.8664  21.5179

     occupation numbers 
     1.0000   1.0000   1.0000   1.0000   1.0000   1.0000   1.0000   1.0000
     1.0000   1.0000   1.0000   1.0000   1.0000   1.0000   1.0000   1.0000
     0.0000   0.0000   0.0000   0.0000

          k = 0.2500 0.3750-0.5000 (  1068 PWs)   bands (ev):

    -4.0715  -4.0709  -2.1511  -2.1504   1.0482   1.0486   2.8994   2.8996
     8.0173   8.0174   9.4332   9.4335   9.6602   9.6606  10.5693  10.5697
    21.3260  21.3268  21.4445  21.4450

     occupation numbers 
     1.0000   1.0000   1.0000   1.0000   1.0000   1.0000   1.0000   1.0000
     1.0000   1.0000   1.0000   1.0000   1.0000   1.0000   1.0000   1.0000
     0.0000   0.0000   0.0000   0.0000

          k = 0.2500-0.5000-0.5000 (  1064 PWs)   bands (ev):

    -3.1766  -3.1766  -3.1765  -3.1752   1.7980   1.7980   1.7984   1.7989
     8.7681   8.7681   8.7683   8.7688  10.4398  10.4398  10.4399  10.4406
    21.5870  21.5870  21.5871  21.5885

     occupation numbers 
     1.0000   1.0000   1.0000   1.0000   1.0000   1.0000   1.0000   1.0000
     1.0000   1.0000   1.0000   1.0000   1.0000   1.0000   1.0000   1.0000
     0.0000   0.0000   0.0000   0.0000

          k = 0.3750 0.3750 0.3750 (  1058 PWs)   bands (ev):

    -4.3444  -2.4053  -2.4053  -2.4041   0.7929   0.7929   0.7936   2.6753
     9.2005   9.2006   9.2006   9.8233   9.8237   9.8237  10.8197  10.8197
    20.9998  20.9998  21.0003  21.7635

     occupation numbers 
     1.0000   1.0000   1.0000   1.0000   1.0000   1.0000   1.0000   1.0000
     1.0000   1.0000   1.0000   1.0000   1.0000   1.0000   1.0000   1.0000
     0.0000   0.0000   0.0000   0.0000

          k = 0.3750 0.3750-0.5000 (  1054 PWs)   bands (ev):

    -3.4422  -3.4416  -2.0932  -2.0924   0.2350   0.2355   1.5519   1.5521
     9.3829   9.3832  10.0510  10.0514  10.3188  10.3193  10.4350  10.4354
    21.4509  21.4517  21.6381  21.6383

     occupation numbers 
     1.0000   1.0000   1.0000   1.0000   1.0000   1.0000   1.0000   1.0000
     1.0000   1.0000   1.0000   1.0000   1.0000   1.0000   1.0000   1.0000
     0.0000   0.0000   0.0000   0.0000

          k = 0.3750-0.5000-0.5000 (  1072 PWs)   bands (ev):

    -2.6674  -2.6674  -2.6674  -2.6659   0.5433   0.5433   0.5434   0.5441
    10.0485  10.0485  10.0485  10.0493  10.5138  10.5138  10.5138  10.5146
    21.7896  21.7896  21.7898  21.7910

     occupation numbers 
     1.0000   1.0000   1.0000   1.0000   1.0000   1.0000   1.0000   1.0000
     1.0000   1.0000   1.0000   1.0000   1.0000   1.0000   1.0000   1.0000
     0.0000   0.0000   0.0000   0.0000

          k =-0.5000-0.5000-0.5000 (  1064 PWs)   bands (ev):

    -2.3476  -2.3476  -2.3476  -2.3459  -0.0280  -0.0280  -0.0280  -0.0272
    10.5457  10.5457  10.5457  10.5457  10.5457  10.5457  10.5466  10.5466
    21.8396  21.8399  21.8403  21.8405

     occupation numbers 
     1.0000   1.0000   1.0000   1.0000   1.0000   1.0000   1.0000   1.0000
     1.0000   1.0000   1.0000   1.0000   1.0000   1.0000   1.0000   1.0000
     0.0000   0.0000   0.0000   0.0000

     the Fermi energy is    15.9687 ev

!    total energy              =     -99.33524524 Ry
     Harris-Foulkes estimate   =     -99.33524529 Ry
     estimated scf accuracy    <       0.00000024 Ry

     The total energy is the sum of the following terms:

     one-electron contribution =      32.73111545 Ry
     hartree contribution      =       7.76297665 Ry
     xc contribution           =     -37.50935521 Ry
     ewald contribution        =    -102.31998214 Ry
     smearing contrib. (-TS)   =      -0.00000000 Ry

     convergence has been achieved in   5 iterations

     Writing output data file c-35.save/

     init_run     :      0.29s CPU      0.29s WALL (       1 calls)
     electrons    :      2.75s CPU      2.86s WALL (       1 calls)

     Called by init_run:
     wfcinit      :      0.24s CPU      0.24s WALL (       1 calls)
     wfcinit:atom :      0.00s CPU      0.00s WALL (      35 calls)
     wfcinit:wfcr :      0.22s CPU      0.23s WALL (      35 calls)
     potinit      :      0.01s CPU      0.01s WALL (       1 calls)
     hinit0       :      0.04s CPU      0.04s WALL (       1 calls)

     Called by electrons:
     c_bands      :      2.48s CPU      2.59s WALL (       5 calls)
     sum_band     :      0.26s CPU      0.26s WALL (       5 calls)
     v_of_rho     :      0.01s CPU      0.01s WALL (       6 calls)
     v_h          :      0.00s CPU      0.00s WALL (       6 calls)
     v_xc         :      0.01s CPU      0.01s WALL (       6 calls)
     newd         :      0.01s CPU      0.01s WALL (       6 calls)
     mix_rho      :      0.00s CPU      0.00s WALL (       5 calls)

     Called by c_bands:
     init_us_2    :      0.03s CPU      0.03s WALL (     385 calls)
     cegterg      :      2.39s CPU      2.50s WALL (     175 calls)

     Called by sum_band:
     sum_band:bec :      0.00s CPU      0.00s WALL (     175 calls)
     addusdens    :      0.01s CPU      0.01s WALL (       5 calls)

     Called by *egterg:
     h_psi        :      1.26s CPU      1.32s WALL (     791 calls)
     s_psi        :      0.18s CPU      0.19s WALL (     791 calls)
     g_psi        :      0.01s CPU      0.01s WALL (     581 calls)
     cdiaghg      :      0.55s CPU      0.56s WALL (     756 calls)
     cegterg:over :      0.29s CPU      0.30s WALL (     581 calls)
     cegterg:upda :      0.09s CPU      0.10s WALL (     581 calls)
     cegterg:last :      0.05s CPU      0.05s WALL (     175 calls)

     Called by h_psi:
     h_psi:pot    :      1.25s CPU      1.31s WALL (     791 calls)
     h_psi:calbec :      0.26s CPU      0.27s WALL (     791 calls)
     vloc_psi     :      0.81s CPU      0.85s WALL (     791 calls)
     add_vuspsi   :      0.18s CPU      0.19s WALL (     791 calls)

     General routines
     calbec       :      0.35s CPU      0.36s WALL (     966 calls)
     fft          :      0.01s CPU      0.01s WALL (      66 calls)
     ffts         :      0.00s CPU      0.00s WALL (       5 calls)
     fftw         :      0.84s CPU      0.88s WALL (   24548 calls)

     Parallel routines
     fft_scatt_xy :      0.09s CPU      0.10s WALL (   24619 calls)
     fft_scatt_yz :      0.41s CPU      0.43s WALL (   24619 calls)

     PWSCF        :      3.35s CPU      3.48s WALL


   This run was terminated on:  18:31:46  26May2022            

=------------------------------------------------------------------------------=
   JOB DONE.
=------------------------------------------------------------------------------=
