
     Program PWSCF v.6.4.1 starts on 30Aug2022 at 22:12:11 

     This program is part of the open-source Quantum ESPRESSO suite
     for quantum simulation of materials; please cite
         "P. Giannozzi et al., J. Phys.:Condens. Matter 21 395502 (2009);
         "P. Giannozzi et al., J. Phys.:Condens. Matter 29 465901 (2017);
          URL http://www.quantum-espresso.org", 
     in publications or presentations arising from this work. More details at
     http://www.quantum-espresso.org/quote

     Parallel version (MPI), running on     6 processors

     MPI processes distributed on     1 nodes
     R & G space division:  proc/nbgrp/npool/nimage =       6
     Reading input from distance-2.4.in

     Current dimensions of program PWSCF are:
     Max number of different atomic species (ntypx) = 10
     Max number of k-points (npk) =  40000
     Max angular momentum in pseudopotentials (lmaxx) =  3

     IMPORTANT: XC functional enforced from input :
     Exchange-correlation      = RVV10 ( 1  4 13  4 3 0)
     Any further DFT definition will be discarded
     Please, verify this is what you really want

               file H.pbe-rrkjus.UPF: wavefunction(s)  1S renormalized
               file V.pbe-spnl-rrkjus_psl.1.0.0.UPF: wavefunction(s)  3P 3D renormalized

     Subspace diagonalization in iterative solution of the eigenvalue problem:
     a serial algorithm will be used


     Parallelization info
     --------------------
     sticks:   dense  smooth     PW     G-vecs:    dense   smooth      PW
     Min        3051    1746    432               270999   117096   14629
     Max        3053    1747    437               271001   117099   14630
     Sum       18313   10477   2611              1626001   702581   87777



     bravais-lattice index     =            4
     lattice parameter (alat)  =      23.2937  a.u.
     unit-cell volume          =    8879.8548 (a.u.)^3
     number of atoms/cell      =           52
     number of atomic types    =            3
     number of electrons       =       211.00
     number of Kohn-Sham states=          127
     kinetic-energy cutoff     =      70.0000  Ry
     charge density cutoff     =     490.0000  Ry
     convergence threshold     =      1.0E-06
     mixing beta               =       0.7000
     number of iterations used =            8  plain     mixing
     Exchange-correlation      = RVV10 ( 1  4 13  4 3 0)

     celldm(1)=  23.293684  celldm(2)=   0.000000  celldm(3)=   0.811261
     celldm(4)=   0.000000  celldm(5)=   0.000000  celldm(6)=   0.000000

     crystal axes: (cart. coord. in units of alat)
               a(1) = (   1.000000   0.000000   0.000000 )  
               a(2) = (  -0.500000   0.866025   0.000000 )  
               a(3) = (   0.000000   0.000000   0.811261 )  

     reciprocal axes: (cart. coord. in units 2 pi/alat)
               b(1) = (  1.000000  0.577350 -0.000000 )  
               b(2) = (  0.000000  1.154701  0.000000 )  
               b(3) = (  0.000000 -0.000000  1.232649 )  


     PseudoPot. # 1 for H  read from file:
     /home/cristian/Escritorio/Proyecto_Grafeno/pseudopotenciales/H.pbe-rrkjus.UPF
     MD5 check sum: 7cc9d459525c9a0585f487a71c3c9563
     Pseudo is Ultrasoft, Zval =  1.0
     Generated by new atomic code, or converted to UPF format
     Using radial grid of 1061 points,  2 beta functions with: 
                l(1) =   0
                l(2) =   0
     Q(r) pseudized with 0 coefficients 


     PseudoPot. # 2 for C  read from file:
     /home/cristian/Escritorio/Proyecto_Grafeno/pseudopotenciales/C.pbe-n-rrkjus_psl.1.0.0.UPF
     MD5 check sum: 1fdd950c42eb37d8afe3dd2f8d12311e
     Pseudo is Ultrasoft + core correction, Zval =  4.0
     Generated using "atomic" code by A. Dal Corso v.6.3MaX
     Using radial grid of 1073 points,  4 beta functions with: 
                l(1) =   0
                l(2) =   0
                l(3) =   1
                l(4) =   1
     Q(r) pseudized with 0 coefficients 


     PseudoPot. # 3 for V  read from file:
     /home/cristian/Escritorio/Proyecto_Grafeno/pseudopotenciales/V.pbe-spnl-rrkjus_psl.1.0.0.UPF
     MD5 check sum: 79b3eb63147daf0b665d9f1bcc691206
     Pseudo is Ultrasoft + core correction, Zval = 13.0
     Generated using "atomic" code by A. Dal Corso v.6.2.2
     Using radial grid of 1181 points,  6 beta functions with: 
                l(1) =   0
                l(2) =   0
                l(3) =   1
                l(4) =   1
                l(5) =   2
                l(6) =   2
     Q(r) pseudized with 0 coefficients 


     vdW kernel table read from file rVV10_kernel_table
     MD5 check sum: b8e2538accc0c0b3206b45ba4daaba6c

     atomic species   valence    mass     pseudopotential
        H              1.00     1.00794     H ( 1.00)
        C              4.00    12.01070     C ( 1.00)
        V             13.00    50.94150     V ( 1.00)

     No symmetry found


                                    s                        frac. trans.

      isym =  1     identity                                     

 cryst.   s( 1) = (     1          0          0      )
                  (     0          1          0      )
                  (     0          0          1      )

 cart.    s( 1) = (  1.0000000  0.0000000  0.0000000 )
                  (  0.0000000  1.0000000  0.0000000 )
                  (  0.0000000  0.0000000  1.0000000 )


     point group C_1 (1)    
     there are  1 classes
     the character table:

       E    
A      1.00

     the symmetry operations in each class and the name of the first element:

     E        1
          identity                                               

   Cartesian axes

     site n.     atom                  positions (alat units)
         1           H   tau(   1) = (   0.2194937   0.4907477   0.1947027  )
         2           H   tau(   2) = (   0.2805063   0.4907477   0.1947027  )
         3           C   tau(   3) = (   0.0000000   0.0000000   0.0000000  )
         4           C   tau(   4) = (   0.0000000   0.1154701   0.0000000  )
         5           C   tau(   5) = (  -0.1000000   0.1732051   0.0000000  )
         6           C   tau(   6) = (  -0.1000000   0.2886751   0.0000000  )
         7           C   tau(   7) = (  -0.2000000   0.3464102   0.0000000  )
         8           C   tau(   8) = (  -0.2000000   0.4618802   0.0000000  )
         9           C   tau(   9) = (  -0.3000000   0.5196152   0.0000000  )
        10           C   tau(  10) = (  -0.3000000   0.6350853   0.0000000  )
        11           C   tau(  11) = (  -0.4000000   0.6928203   0.0000000  )
        12           C   tau(  12) = (  -0.4000000   0.8082904   0.0000000  )
        13           C   tau(  13) = (   0.2000000   0.0000000   0.0000000  )
        14           C   tau(  14) = (   0.2000000   0.1154701   0.0000000  )
        15           C   tau(  15) = (   0.1000000   0.1732051   0.0000000  )
        16           C   tau(  16) = (   0.1000000   0.2886751   0.0000000  )
        17           C   tau(  17) = (   0.0000000   0.3464102   0.0000000  )
        18           C   tau(  18) = (   0.0000000   0.4618802   0.0000000  )
        19           C   tau(  19) = (  -0.1000000   0.5196152   0.0000000  )
        20           C   tau(  20) = (  -0.1000000   0.6350853   0.0000000  )
        21           C   tau(  21) = (  -0.2000000   0.6928203   0.0000000  )
        22           C   tau(  22) = (  -0.2000000   0.8082904   0.0000000  )
        23           C   tau(  23) = (   0.4000000   0.0000000   0.0000000  )
        24           C   tau(  24) = (   0.4000000   0.1154701   0.0000000  )
        25           C   tau(  25) = (   0.3000000   0.1732051   0.0000000  )
        26           C   tau(  26) = (   0.3000000   0.2886751   0.0000000  )
        27           C   tau(  27) = (   0.2000000   0.3464102   0.0000000  )
        28           V   tau(  28) = (   0.2000000   0.4618802   0.0000000  )
        29           C   tau(  29) = (   0.1000000   0.5196152   0.0000000  )
        30           C   tau(  30) = (   0.1000000   0.6350853   0.0000000  )
        31           C   tau(  31) = (   0.0000000   0.6928203   0.0000000  )
        32           C   tau(  32) = (   0.0000000   0.8082904   0.0000000  )
        33           C   tau(  33) = (   0.6000000   0.0000000   0.0000000  )
        34           C   tau(  34) = (   0.6000000   0.1154701   0.0000000  )
        35           C   tau(  35) = (   0.5000000   0.1732051   0.0000000  )
        36           C   tau(  36) = (   0.5000000   0.2886751   0.0000000  )
        37           C   tau(  37) = (   0.4000000   0.3464102   0.0000000  )
        38           C   tau(  38) = (   0.4000000   0.4618802   0.0000000  )
        39           C   tau(  39) = (   0.3000000   0.5196152   0.0000000  )
        40           C   tau(  40) = (   0.3000000   0.6350853   0.0000000  )
        41           C   tau(  41) = (   0.2000000   0.6928203   0.0000000  )
        42           C   tau(  42) = (   0.2000000   0.8082904   0.0000000  )
        43           C   tau(  43) = (   0.8000000   0.0000000   0.0000000  )
        44           C   tau(  44) = (   0.8000000   0.1154701   0.0000000  )
        45           C   tau(  45) = (   0.7000000   0.1732051   0.0000000  )
        46           C   tau(  46) = (   0.7000000   0.2886751   0.0000000  )
        47           C   tau(  47) = (   0.6000000   0.3464102   0.0000000  )
        48           C   tau(  48) = (   0.6000000   0.4618802   0.0000000  )
        49           C   tau(  49) = (   0.5000000   0.5196152   0.0000000  )
        50           C   tau(  50) = (   0.5000000   0.6350853   0.0000000  )
        51           C   tau(  51) = (   0.4000000   0.6928203   0.0000000  )
        52           C   tau(  52) = (   0.4000000   0.8082904   0.0000000  )

   Crystallographic axes

     site n.     atom                  positions (cryst. coord.)
         1           H   tau(   1) = (  0.5028270  0.5666667  0.2400000  )
         2           H   tau(   2) = (  0.5638397  0.5666667  0.2400000  )
         3           C   tau(   3) = (  0.0000000  0.0000000  0.0000000  )
         4           C   tau(   4) = (  0.0666667  0.1333333  0.0000000  )
         5           C   tau(   5) = (  0.0000000  0.2000000  0.0000000  )
         6           C   tau(   6) = (  0.0666667  0.3333333  0.0000000  )
         7           C   tau(   7) = (  0.0000000  0.4000000  0.0000000  )
         8           C   tau(   8) = (  0.0666667  0.5333333  0.0000000  )
         9           C   tau(   9) = (  0.0000000  0.6000000  0.0000000  )
        10           C   tau(  10) = (  0.0666667  0.7333333  0.0000000  )
        11           C   tau(  11) = (  0.0000000  0.8000000  0.0000000  )
        12           C   tau(  12) = (  0.0666667  0.9333333  0.0000000  )
        13           C   tau(  13) = (  0.2000000  0.0000000  0.0000000  )
        14           C   tau(  14) = (  0.2666667  0.1333333  0.0000000  )
        15           C   tau(  15) = (  0.2000000  0.2000000  0.0000000  )
        16           C   tau(  16) = (  0.2666667  0.3333333  0.0000000  )
        17           C   tau(  17) = (  0.2000000  0.4000000  0.0000000  )
        18           C   tau(  18) = (  0.2666667  0.5333333  0.0000000  )
        19           C   tau(  19) = (  0.2000000  0.6000000  0.0000000  )
        20           C   tau(  20) = (  0.2666667  0.7333333  0.0000000  )
        21           C   tau(  21) = (  0.2000000  0.8000000  0.0000000  )
        22           C   tau(  22) = (  0.2666667  0.9333333  0.0000000  )
        23           C   tau(  23) = (  0.4000000  0.0000000  0.0000000  )
        24           C   tau(  24) = (  0.4666667  0.1333333  0.0000000  )
        25           C   tau(  25) = (  0.4000000  0.2000000  0.0000000  )
        26           C   tau(  26) = (  0.4666667  0.3333333  0.0000000  )
        27           C   tau(  27) = (  0.4000000  0.4000000  0.0000000  )
        28           V   tau(  28) = (  0.4666667  0.5333333  0.0000000  )
        29           C   tau(  29) = (  0.4000000  0.6000000  0.0000000  )
        30           C   tau(  30) = (  0.4666667  0.7333333  0.0000000  )
        31           C   tau(  31) = (  0.4000000  0.8000000  0.0000000  )
        32           C   tau(  32) = (  0.4666667  0.9333333  0.0000000  )
        33           C   tau(  33) = (  0.6000000  0.0000000  0.0000000  )
        34           C   tau(  34) = (  0.6666667  0.1333333  0.0000000  )
        35           C   tau(  35) = (  0.6000000  0.2000000  0.0000000  )
        36           C   tau(  36) = (  0.6666667  0.3333333  0.0000000  )
        37           C   tau(  37) = (  0.6000000  0.4000000  0.0000000  )
        38           C   tau(  38) = (  0.6666667  0.5333333  0.0000000  )
        39           C   tau(  39) = (  0.6000000  0.6000000  0.0000000  )
        40           C   tau(  40) = (  0.6666667  0.7333333  0.0000000  )
        41           C   tau(  41) = (  0.6000000  0.8000000  0.0000000  )
        42           C   tau(  42) = (  0.6666667  0.9333333  0.0000000  )
        43           C   tau(  43) = (  0.8000000  0.0000000  0.0000000  )
        44           C   tau(  44) = (  0.8666667  0.1333333  0.0000000  )
        45           C   tau(  45) = (  0.8000000  0.2000000  0.0000000  )
        46           C   tau(  46) = (  0.8666667  0.3333333  0.0000000  )
        47           C   tau(  47) = (  0.8000000  0.4000000  0.0000000  )
        48           C   tau(  48) = (  0.8666667  0.5333333  0.0000000  )
        49           C   tau(  49) = (  0.8000000  0.6000000  0.0000000  )
        50           C   tau(  50) = (  0.8666667  0.7333333  0.0000000  )
        51           C   tau(  51) = (  0.8000000  0.8000000  0.0000000  )
        52           C   tau(  52) = (  0.8666667  0.9333333  0.0000000  )

     number of k points=     1  Marzari-Vanderbilt smearing, width (Ry)=  0.0010
                       cart. coord. in units 2pi/alat
        k(    1) = (   0.0000000   0.0000000   0.0000000), wk =   2.0000000

                       cryst. coord.
        k(    1) = (   0.0000000   0.0000000   0.0000000), wk =   2.0000000

     Dense  grid:  1626001 G-vectors     FFT dimensions: ( 180, 180, 135)

     Smooth grid:   702581 G-vectors     FFT dimensions: ( 125, 125, 108)

     Dynamical RAM for                 wfc:      28.36 MB

     Dynamical RAM for     wfc (w. buffer):      28.36 MB

     Dynamical RAM for           str. fact:      12.41 MB

     Dynamical RAM for           local pot:       0.00 MB

     Dynamical RAM for          nlocal pot:      92.46 MB

     Dynamical RAM for                qrad:      19.73 MB

     Dynamical RAM for          rho,v,vnew:      29.46 MB

     Dynamical RAM for               rhoin:       9.82 MB

     Dynamical RAM for            rho*nmix:      66.16 MB

     Dynamical RAM for           G-vectors:      16.40 MB

     Dynamical RAM for          h,s,v(r/c):      11.81 MB

     Dynamical RAM for          <psi|beta>:       0.80 MB

     Dynamical RAM for                 psi:     113.46 MB

     Dynamical RAM for                hpsi:     113.46 MB

     Dynamical RAM for                spsi:     113.46 MB

     Dynamical RAM for      wfcinit/wfcrot:      93.90 MB

     Dynamical RAM for           addusdens:     971.75 MB

     Estimated static dynamical RAM per process >     319.78 MB

     Estimated max dynamical RAM per process >       1.26 GB

     Estimated total dynamical RAM >       7.57 GB

     Check: negative core charge=   -0.000002

     Initial potential from superposition of free atoms

     starting charge  210.80465, renormalised to  211.00000

     negative rho (up, down):  1.302E-04 0.000E+00


---------------------------------------------------------------------------------
Carrying out rVV10 run using the following parameters:
Nqs =      20    Nr_points =    1024   r_max =   100.000
b_value =  6.30000    beta =  0.00901
     q_mesh =  0.00010000  0.00030000  0.00058939  0.00100810
               0.00161396  0.00249058  0.00375900  0.00559430
               0.00824984  0.01209221  0.01765183  0.02569619
               0.03733578  0.05417739  0.07854596  0.11380545
               0.16482331  0.23864234  0.34545298  0.50000000

Gradients computed in Reciprocal space

---------------------------------------------------------------------------------


     Starting wfcs are  208 randomized atomic wfcs

     total cpu time spent up to now is       50.0 secs

     Self-consistent Calculation

     iteration #  1     ecut=    70.00 Ry     beta= 0.70
     Davidson diagonalization with overlap
     ethr =  1.00E-02,  avg # of iterations =  3.0

     negative rho (up, down):  2.712E-04 0.000E+00

     total cpu time spent up to now is      122.1 secs

     total energy              =    -752.02449419 Ry
     Harris-Foulkes estimate   =    -760.63325928 Ry
     estimated scf accuracy    <      11.73625992 Ry

     iteration #  2     ecut=    70.00 Ry     beta= 0.70
     Davidson diagonalization with overlap
     ethr =  5.56E-03,  avg # of iterations =  7.0

     negative rho (up, down):  3.644E-03 0.000E+00

     total cpu time spent up to now is      191.2 secs

     total energy              =    -745.40448065 Ry
     Harris-Foulkes estimate   =    -772.58497375 Ry
     estimated scf accuracy    <      97.53582583 Ry

     iteration #  3     ecut=    70.00 Ry     beta= 0.70
     Davidson diagonalization with overlap
     ethr =  5.56E-03,  avg # of iterations =  5.0

     negative rho (up, down):  3.622E-02 0.000E+00

     total cpu time spent up to now is      279.7 secs

     total energy              =    -756.01553777 Ry
     Harris-Foulkes estimate   =    -758.35333577 Ry
     estimated scf accuracy    <       5.88486762 Ry

     iteration #  4     ecut=    70.00 Ry     beta= 0.70
     Davidson diagonalization with overlap
     ethr =  2.79E-03,  avg # of iterations =  4.0

     negative rho (up, down):  4.562E-02 0.000E+00

     total cpu time spent up to now is      343.9 secs

     total energy              =    -756.75001111 Ry
     Harris-Foulkes estimate   =    -757.70344508 Ry
     estimated scf accuracy    <       2.83064809 Ry

     iteration #  5     ecut=    70.00 Ry     beta= 0.70
     Davidson diagonalization with overlap
     ethr =  1.34E-03,  avg # of iterations =  6.0

     negative rho (up, down):  4.685E-02 0.000E+00

     total cpu time spent up to now is      401.0 secs

     total energy              =    -757.26565741 Ry
     Harris-Foulkes estimate   =    -757.36959164 Ry
     estimated scf accuracy    <       0.41028210 Ry

     iteration #  6     ecut=    70.00 Ry     beta= 0.70
     Davidson diagonalization with overlap
     ethr =  1.94E-04,  avg # of iterations =  4.0

     negative rho (up, down):  4.005E-02 0.000E+00

     total cpu time spent up to now is      456.6 secs

     total energy              =    -757.28979718 Ry
     Harris-Foulkes estimate   =    -757.32104234 Ry
     estimated scf accuracy    <       0.13019998 Ry

     iteration #  7     ecut=    70.00 Ry     beta= 0.70
     Davidson diagonalization with overlap
     ethr =  6.17E-05,  avg # of iterations =  9.0

     negative rho (up, down):  3.143E-02 0.000E+00

     total cpu time spent up to now is      517.7 secs

     total energy              =    -757.31246709 Ry
     Harris-Foulkes estimate   =    -757.32209894 Ry
     estimated scf accuracy    <       0.08483017 Ry

     iteration #  8     ecut=    70.00 Ry     beta= 0.70
     Davidson diagonalization with overlap
     ethr =  4.02E-05,  avg # of iterations =  7.0

     negative rho (up, down):  3.114E-02 0.000E+00

     total cpu time spent up to now is      580.1 secs

     total energy              =    -757.32240200 Ry
     Harris-Foulkes estimate   =    -757.32263861 Ry
     estimated scf accuracy    <       0.01531068 Ry

     iteration #  9     ecut=    70.00 Ry     beta= 0.70
     Davidson diagonalization with overlap
     ethr =  7.26E-06,  avg # of iterations = 10.0

     negative rho (up, down):  3.559E-02 0.000E+00

     total cpu time spent up to now is      645.6 secs

     total energy              =    -757.32462961 Ry
     Harris-Foulkes estimate   =    -757.32856322 Ry
     estimated scf accuracy    <       0.02241701 Ry

     iteration # 10     ecut=    70.00 Ry     beta= 0.70
     Davidson diagonalization with overlap
     ethr =  7.26E-06,  avg # of iterations =  2.0

     negative rho (up, down):  3.696E-02 0.000E+00

     total cpu time spent up to now is      700.9 secs

     total energy              =    -757.32530760 Ry
     Harris-Foulkes estimate   =    -757.32809322 Ry
     estimated scf accuracy    <       0.02109101 Ry

     iteration # 11     ecut=    70.00 Ry     beta= 0.70
     Davidson diagonalization with overlap
     ethr =  7.26E-06,  avg # of iterations =  2.0

     negative rho (up, down):  3.445E-02 0.000E+00

     total cpu time spent up to now is      754.1 secs

     total energy              =    -757.32738758 Ry
     Harris-Foulkes estimate   =    -757.32647684 Ry
     estimated scf accuracy    <       0.00530320 Ry

     iteration # 12     ecut=    70.00 Ry     beta= 0.70
     Davidson diagonalization with overlap
     ethr =  2.51E-06,  avg # of iterations =  9.0

     negative rho (up, down):  3.458E-02 0.000E+00

     total cpu time spent up to now is      812.4 secs

     total energy              =    -757.32784571 Ry
     Harris-Foulkes estimate   =    -757.32789310 Ry
     estimated scf accuracy    <       0.00280645 Ry

     iteration # 13     ecut=    70.00 Ry     beta= 0.70
     Davidson diagonalization with overlap
     ethr =  1.33E-06,  avg # of iterations =  1.0

     negative rho (up, down):  3.339E-02 0.000E+00

     total cpu time spent up to now is      864.5 secs

     total energy              =    -757.32904821 Ry
     Harris-Foulkes estimate   =    -757.32799467 Ry
     estimated scf accuracy    <       0.00061470 Ry

     iteration # 14     ecut=    70.00 Ry     beta= 0.70
     Davidson diagonalization with overlap
     ethr =  2.91E-07,  avg # of iterations =  7.0

     negative rho (up, down):  3.362E-02 0.000E+00

     total cpu time spent up to now is      923.6 secs

     total energy              =    -757.32908029 Ry
     Harris-Foulkes estimate   =    -757.32917692 Ry
     estimated scf accuracy    <       0.00140993 Ry

     iteration # 15     ecut=    70.00 Ry     beta= 0.70
     Davidson diagonalization with overlap
     ethr =  2.91E-07,  avg # of iterations =  1.0

     negative rho (up, down):  3.372E-02 0.000E+00

     total cpu time spent up to now is      976.7 secs

     total energy              =    -757.32909891 Ry
     Harris-Foulkes estimate   =    -757.32913006 Ry
     estimated scf accuracy    <       0.00016194 Ry

     iteration # 16     ecut=    70.00 Ry     beta= 0.70
     Davidson diagonalization with overlap
     ethr =  7.68E-08,  avg # of iterations =  3.0

     negative rho (up, down):  3.383E-02 0.000E+00

     total cpu time spent up to now is     1030.1 secs

     total energy              =    -757.32912122 Ry
     Harris-Foulkes estimate   =    -757.32911567 Ry
     estimated scf accuracy    <       0.00008020 Ry

     iteration # 17     ecut=    70.00 Ry     beta= 0.70
     Davidson diagonalization with overlap
     ethr =  3.80E-08,  avg # of iterations =  2.0

     negative rho (up, down):  3.391E-02 0.000E+00

     total cpu time spent up to now is     1083.5 secs

     total energy              =    -757.32912758 Ry
     Harris-Foulkes estimate   =    -757.32912541 Ry
     estimated scf accuracy    <       0.00000270 Ry

     iteration # 18     ecut=    70.00 Ry     beta= 0.70
     Davidson diagonalization with overlap
     ethr =  1.28E-09,  avg # of iterations =  4.0

     negative rho (up, down):  3.397E-02 0.000E+00

     total cpu time spent up to now is     1145.9 secs

     total energy              =    -757.32912767 Ry
     Harris-Foulkes estimate   =    -757.32912868 Ry
     estimated scf accuracy    <       0.00000651 Ry

     iteration # 19     ecut=    70.00 Ry     beta= 0.70
     Davidson diagonalization with overlap
     ethr =  1.28E-09,  avg # of iterations =  2.0

     negative rho (up, down):  3.398E-02 0.000E+00

     total cpu time spent up to now is     1200.7 secs

     End of self-consistent calculation

          k = 0.0000 0.0000 0.0000 ( 87777 PWs)   bands (ev):

   -62.7219 -37.8281 -37.8214 -36.4481 -19.6078 -18.7669 -18.7636 -18.6950
   -18.6536 -18.6504 -18.2069 -16.9132 -16.9110 -16.9101 -16.7685 -16.7668
   -16.4928 -16.0535 -16.0524 -15.9649 -15.8071 -15.8052 -15.0590 -13.8593
   -13.8539 -13.8530 -13.8415 -13.8409 -13.1173 -12.8964 -12.8959 -12.8761
   -12.4851 -12.4838 -12.0887 -11.6195 -11.6190 -11.4973 -11.1179 -11.1159
   -10.1313  -9.3120  -9.3105  -9.2328  -9.1573  -9.1570  -9.0719  -9.0445
    -9.0441  -9.0307  -8.4507  -8.4432  -8.1098  -7.8713  -7.8707  -7.8378
    -7.6767  -7.6548  -7.2329  -7.2313  -6.9092  -6.8805  -6.8550  -6.6703
    -6.6655  -6.6523  -6.5678  -6.5670  -6.5221  -6.4143  -6.4126  -6.3703
    -6.3670  -6.3663  -6.3126  -6.1469  -5.2384  -5.2378  -5.0993  -5.0679
    -4.9234  -4.9224  -4.8151  -4.7266  -4.5858  -4.5704  -4.5688  -4.1899
    -3.9443  -3.9400  -3.7114  -3.7073  -3.6209  -3.5876  -3.4784  -3.4778
    -2.8193  -2.2130  -2.2090  -2.1666  -2.1646  -1.6864  -1.6596  -1.6581
    -0.4805  -0.1145  -0.1142   1.0972   1.1032   1.1053   1.3027   1.8685
     2.0974   2.0992   2.5369   2.9363   2.9463   3.0071   3.2172   3.4899
     3.7111   3.7671   3.7813   3.8352   3.9463   4.0422   4.0511

     occupation numbers 
     1.0000   1.0000   1.0000   1.0000   1.0000   1.0000   1.0000   1.0000
     1.0000   1.0000   1.0000   1.0000   1.0000   1.0000   1.0000   1.0000
     1.0000   1.0000   1.0000   1.0000   1.0000   1.0000   1.0000   1.0000
     1.0000   1.0000   1.0000   1.0000   1.0000   1.0000   1.0000   1.0000
     1.0000   1.0000   1.0000   1.0000   1.0000   1.0000   1.0000   1.0000
     1.0000   1.0000   1.0000   1.0000   1.0000   1.0000   1.0000   1.0000
     1.0000   1.0000   1.0000   1.0000   1.0000   1.0000   1.0000   1.0000
     1.0000   1.0000   1.0000   1.0000   1.0000   1.0000   1.0000   1.0000
     1.0000   1.0000   1.0000   1.0000   1.0000   1.0000   1.0000   1.0000
     1.0000   1.0000   1.0000   1.0000   1.0000   1.0000   1.0000   1.0000
     1.0000   1.0000   1.0000   1.0000   1.0000   1.0000   1.0000   1.0000
     1.0000   1.0000   1.0000   1.0000   1.0000   1.0000   1.0000   1.0000
     1.0000   1.0000   1.0000   1.0000   1.0000   1.0000   1.0000   1.0000
     1.0000   0.2560   0.2440   0.0000   0.0000   0.0000   0.0000   0.0000
     0.0000   0.0000   0.0000   0.0000   0.0000   0.0000   0.0000   0.0000
     0.0000   0.0000   0.0000   0.0000   0.0000   0.0000   0.0000

     the Fermi energy is    -0.1177 ev

!    total energy              =    -757.32912768 Ry
     Harris-Foulkes estimate   =    -757.32912817 Ry
     estimated scf accuracy    <       0.00000060 Ry

     The total energy is the sum of the following terms:

     one-electron contribution =   -2599.65410105 Ry
     hartree contribution      =    1346.74272311 Ry
     xc contribution           =    -252.68602024 Ry
     ewald contribution        =     748.26888385 Ry
     smearing contrib. (-TS)   =      -0.00061336 Ry

     convergence has been achieved in  19 iterations

     Writing output data file vanadio-bridge-distance-2.4.save/

     init_run     :     47.67s CPU     48.87s WALL (       1 calls)
     electrons    :   1118.02s CPU   1150.77s WALL (       1 calls)

     Called by init_run:
     wfcinit      :     22.60s CPU     22.76s WALL (       1 calls)
     wfcinit:atom :      0.03s CPU      0.04s WALL (       1 calls)
     wfcinit:wfcr :     22.39s CPU     22.50s WALL (       1 calls)
     potinit      :     11.48s CPU     11.89s WALL (       1 calls)
     hinit0       :      8.47s CPU      8.50s WALL (       1 calls)

     Called by electrons:
     c_bands      :    690.51s CPU    694.86s WALL (      19 calls)
     sum_band     :    213.19s CPU    223.93s WALL (      19 calls)
     v_of_rho     :    129.45s CPU    136.91s WALL (      20 calls)
     v_h          :      1.47s CPU      1.53s WALL (      20 calls)
     v_xc         :    127.98s CPU    135.38s WALL (      20 calls)
     newd         :     89.35s CPU    100.30s WALL (      20 calls)
     mix_rho      :      4.07s CPU      4.14s WALL (      19 calls)

     Called by c_bands:
     init_us_2    :      1.82s CPU      1.87s WALL (      39 calls)
     cegterg      :    686.04s CPU    690.34s WALL (      19 calls)

     Called by sum_band:
     sum_band:bec :      0.01s CPU      0.02s WALL (      19 calls)
     addusdens    :    133.10s CPU    143.20s WALL (      19 calls)

     Called by *egterg:
     h_psi        :    364.32s CPU    367.29s WALL (     108 calls)
     s_psi        :    120.73s CPU    120.89s WALL (     108 calls)
     g_psi        :      0.40s CPU      0.40s WALL (      88 calls)
     cdiaghg      :      8.60s CPU      8.61s WALL (     107 calls)
     cegterg:over :     85.23s CPU     85.32s WALL (      88 calls)
     cegterg:upda :     55.00s CPU     55.38s WALL (      88 calls)
     cegterg:last :     34.75s CPU     34.79s WALL (      19 calls)

     Called by h_psi:
     h_psi:pot    :    363.85s CPU    366.39s WALL (     108 calls)
     h_psi:calbec :    121.23s CPU    121.41s WALL (     108 calls)
     vloc_psi     :    122.24s CPU    124.46s WALL (     108 calls)
     add_vuspsi   :    120.37s CPU    120.52s WALL (     108 calls)

     General routines
     calbec       :    169.97s CPU    170.20s WALL (     127 calls)
     fft          :     73.13s CPU     75.86s WALL (    1258 calls)
     ffts         :      0.78s CPU      0.80s WALL (      39 calls)
     fftw         :    128.32s CPU    130.78s WALL (   14351 calls)
     interpolate  :      1.84s CPU      1.91s WALL (      20 calls)

     Parallel routines
     fft_scatt_xy :     36.26s CPU     36.69s WALL (   15648 calls)
     fft_scatt_yz :     67.04s CPU     70.72s WALL (   15648 calls)

     PWSCF        :  19m26.97s CPU  20m 1.15s WALL


   This run was terminated on:  22:32:12  30Aug2022            

=------------------------------------------------------------------------------=
   JOB DONE.
=------------------------------------------------------------------------------=
