
     Program PWSCF v.6.4.1 starts on 30Aug2022 at 21:51:38 

     This program is part of the open-source Quantum ESPRESSO suite
     for quantum simulation of materials; please cite
         "P. Giannozzi et al., J. Phys.:Condens. Matter 21 395502 (2009);
         "P. Giannozzi et al., J. Phys.:Condens. Matter 29 465901 (2017);
          URL http://www.quantum-espresso.org", 
     in publications or presentations arising from this work. More details at
     http://www.quantum-espresso.org/quote

     Parallel version (MPI), running on     6 processors

     MPI processes distributed on     1 nodes
     R & G space division:  proc/nbgrp/npool/nimage =       6
     Reading input from distance-2.6.in

     Current dimensions of program PWSCF are:
     Max number of different atomic species (ntypx) = 10
     Max number of k-points (npk) =  40000
     Max angular momentum in pseudopotentials (lmaxx) =  3

     IMPORTANT: XC functional enforced from input :
     Exchange-correlation      = RVV10 ( 1  4 13  4 3 0)
     Any further DFT definition will be discarded
     Please, verify this is what you really want

               file H.pbe-rrkjus.UPF: wavefunction(s)  1S renormalized
               file V.pbe-spnl-rrkjus_psl.1.0.0.UPF: wavefunction(s)  3P 3D renormalized

     Subspace diagonalization in iterative solution of the eigenvalue problem:
     a serial algorithm will be used


     Parallelization info
     --------------------
     sticks:   dense  smooth     PW     G-vecs:    dense   smooth      PW
     Min        3051    1746    432               270999   117096   14629
     Max        3053    1747    437               271001   117099   14630
     Sum       18313   10477   2611              1626001   702581   87777



     bravais-lattice index     =            4
     lattice parameter (alat)  =      23.2937  a.u.
     unit-cell volume          =    8879.8548 (a.u.)^3
     number of atoms/cell      =           52
     number of atomic types    =            3
     number of electrons       =       211.00
     number of Kohn-Sham states=          127
     kinetic-energy cutoff     =      70.0000  Ry
     charge density cutoff     =     490.0000  Ry
     convergence threshold     =      1.0E-06
     mixing beta               =       0.7000
     number of iterations used =            8  plain     mixing
     Exchange-correlation      = RVV10 ( 1  4 13  4 3 0)

     celldm(1)=  23.293684  celldm(2)=   0.000000  celldm(3)=   0.811261
     celldm(4)=   0.000000  celldm(5)=   0.000000  celldm(6)=   0.000000

     crystal axes: (cart. coord. in units of alat)
               a(1) = (   1.000000   0.000000   0.000000 )  
               a(2) = (  -0.500000   0.866025   0.000000 )  
               a(3) = (   0.000000   0.000000   0.811261 )  

     reciprocal axes: (cart. coord. in units 2 pi/alat)
               b(1) = (  1.000000  0.577350 -0.000000 )  
               b(2) = (  0.000000  1.154701  0.000000 )  
               b(3) = (  0.000000 -0.000000  1.232649 )  


     PseudoPot. # 1 for H  read from file:
     /home/cristian/Escritorio/Proyecto_Grafeno/pseudopotenciales/H.pbe-rrkjus.UPF
     MD5 check sum: 7cc9d459525c9a0585f487a71c3c9563
     Pseudo is Ultrasoft, Zval =  1.0
     Generated by new atomic code, or converted to UPF format
     Using radial grid of 1061 points,  2 beta functions with: 
                l(1) =   0
                l(2) =   0
     Q(r) pseudized with 0 coefficients 


     PseudoPot. # 2 for C  read from file:
     /home/cristian/Escritorio/Proyecto_Grafeno/pseudopotenciales/C.pbe-n-rrkjus_psl.1.0.0.UPF
     MD5 check sum: 1fdd950c42eb37d8afe3dd2f8d12311e
     Pseudo is Ultrasoft + core correction, Zval =  4.0
     Generated using "atomic" code by A. Dal Corso v.6.3MaX
     Using radial grid of 1073 points,  4 beta functions with: 
                l(1) =   0
                l(2) =   0
                l(3) =   1
                l(4) =   1
     Q(r) pseudized with 0 coefficients 


     PseudoPot. # 3 for V  read from file:
     /home/cristian/Escritorio/Proyecto_Grafeno/pseudopotenciales/V.pbe-spnl-rrkjus_psl.1.0.0.UPF
     MD5 check sum: 79b3eb63147daf0b665d9f1bcc691206
     Pseudo is Ultrasoft + core correction, Zval = 13.0
     Generated using "atomic" code by A. Dal Corso v.6.2.2
     Using radial grid of 1181 points,  6 beta functions with: 
                l(1) =   0
                l(2) =   0
                l(3) =   1
                l(4) =   1
                l(5) =   2
                l(6) =   2
     Q(r) pseudized with 0 coefficients 


     vdW kernel table read from file rVV10_kernel_table
     MD5 check sum: b8e2538accc0c0b3206b45ba4daaba6c

     atomic species   valence    mass     pseudopotential
        H              1.00     1.00794     H ( 1.00)
        C              4.00    12.01070     C ( 1.00)
        V             13.00    50.94150     V ( 1.00)

     No symmetry found


                                    s                        frac. trans.

      isym =  1     identity                                     

 cryst.   s( 1) = (     1          0          0      )
                  (     0          1          0      )
                  (     0          0          1      )

 cart.    s( 1) = (  1.0000000  0.0000000  0.0000000 )
                  (  0.0000000  1.0000000  0.0000000 )
                  (  0.0000000  0.0000000  1.0000000 )


     point group C_1 (1)    
     there are  1 classes
     the character table:

       E    
A      1.00

     the symmetry operations in each class and the name of the first element:

     E        1
          identity                                               

   Cartesian axes

     site n.     atom                  positions (alat units)
         1           H   tau(   1) = (   0.2194937   0.4907477   0.2109279  )
         2           H   tau(   2) = (   0.2805063   0.4907477   0.2109279  )
         3           C   tau(   3) = (   0.0000000   0.0000000   0.0000000  )
         4           C   tau(   4) = (   0.0000000   0.1154701   0.0000000  )
         5           C   tau(   5) = (  -0.1000000   0.1732051   0.0000000  )
         6           C   tau(   6) = (  -0.1000000   0.2886751   0.0000000  )
         7           C   tau(   7) = (  -0.2000000   0.3464102   0.0000000  )
         8           C   tau(   8) = (  -0.2000000   0.4618802   0.0000000  )
         9           C   tau(   9) = (  -0.3000000   0.5196152   0.0000000  )
        10           C   tau(  10) = (  -0.3000000   0.6350853   0.0000000  )
        11           C   tau(  11) = (  -0.4000000   0.6928203   0.0000000  )
        12           C   tau(  12) = (  -0.4000000   0.8082904   0.0000000  )
        13           C   tau(  13) = (   0.2000000   0.0000000   0.0000000  )
        14           C   tau(  14) = (   0.2000000   0.1154701   0.0000000  )
        15           C   tau(  15) = (   0.1000000   0.1732051   0.0000000  )
        16           C   tau(  16) = (   0.1000000   0.2886751   0.0000000  )
        17           C   tau(  17) = (   0.0000000   0.3464102   0.0000000  )
        18           C   tau(  18) = (   0.0000000   0.4618802   0.0000000  )
        19           C   tau(  19) = (  -0.1000000   0.5196152   0.0000000  )
        20           C   tau(  20) = (  -0.1000000   0.6350853   0.0000000  )
        21           C   tau(  21) = (  -0.2000000   0.6928203   0.0000000  )
        22           C   tau(  22) = (  -0.2000000   0.8082904   0.0000000  )
        23           C   tau(  23) = (   0.4000000   0.0000000   0.0000000  )
        24           C   tau(  24) = (   0.4000000   0.1154701   0.0000000  )
        25           C   tau(  25) = (   0.3000000   0.1732051   0.0000000  )
        26           C   tau(  26) = (   0.3000000   0.2886751   0.0000000  )
        27           C   tau(  27) = (   0.2000000   0.3464102   0.0000000  )
        28           V   tau(  28) = (   0.2000000   0.4618802   0.0000000  )
        29           C   tau(  29) = (   0.1000000   0.5196152   0.0000000  )
        30           C   tau(  30) = (   0.1000000   0.6350853   0.0000000  )
        31           C   tau(  31) = (   0.0000000   0.6928203   0.0000000  )
        32           C   tau(  32) = (   0.0000000   0.8082904   0.0000000  )
        33           C   tau(  33) = (   0.6000000   0.0000000   0.0000000  )
        34           C   tau(  34) = (   0.6000000   0.1154701   0.0000000  )
        35           C   tau(  35) = (   0.5000000   0.1732051   0.0000000  )
        36           C   tau(  36) = (   0.5000000   0.2886751   0.0000000  )
        37           C   tau(  37) = (   0.4000000   0.3464102   0.0000000  )
        38           C   tau(  38) = (   0.4000000   0.4618802   0.0000000  )
        39           C   tau(  39) = (   0.3000000   0.5196152   0.0000000  )
        40           C   tau(  40) = (   0.3000000   0.6350853   0.0000000  )
        41           C   tau(  41) = (   0.2000000   0.6928203   0.0000000  )
        42           C   tau(  42) = (   0.2000000   0.8082904   0.0000000  )
        43           C   tau(  43) = (   0.8000000   0.0000000   0.0000000  )
        44           C   tau(  44) = (   0.8000000   0.1154701   0.0000000  )
        45           C   tau(  45) = (   0.7000000   0.1732051   0.0000000  )
        46           C   tau(  46) = (   0.7000000   0.2886751   0.0000000  )
        47           C   tau(  47) = (   0.6000000   0.3464102   0.0000000  )
        48           C   tau(  48) = (   0.6000000   0.4618802   0.0000000  )
        49           C   tau(  49) = (   0.5000000   0.5196152   0.0000000  )
        50           C   tau(  50) = (   0.5000000   0.6350853   0.0000000  )
        51           C   tau(  51) = (   0.4000000   0.6928203   0.0000000  )
        52           C   tau(  52) = (   0.4000000   0.8082904   0.0000000  )

   Crystallographic axes

     site n.     atom                  positions (cryst. coord.)
         1           H   tau(   1) = (  0.5028270  0.5666667  0.2600000  )
         2           H   tau(   2) = (  0.5638397  0.5666667  0.2600000  )
         3           C   tau(   3) = (  0.0000000  0.0000000  0.0000000  )
         4           C   tau(   4) = (  0.0666667  0.1333333  0.0000000  )
         5           C   tau(   5) = (  0.0000000  0.2000000  0.0000000  )
         6           C   tau(   6) = (  0.0666667  0.3333333  0.0000000  )
         7           C   tau(   7) = (  0.0000000  0.4000000  0.0000000  )
         8           C   tau(   8) = (  0.0666667  0.5333333  0.0000000  )
         9           C   tau(   9) = (  0.0000000  0.6000000  0.0000000  )
        10           C   tau(  10) = (  0.0666667  0.7333333  0.0000000  )
        11           C   tau(  11) = (  0.0000000  0.8000000  0.0000000  )
        12           C   tau(  12) = (  0.0666667  0.9333333  0.0000000  )
        13           C   tau(  13) = (  0.2000000  0.0000000  0.0000000  )
        14           C   tau(  14) = (  0.2666667  0.1333333  0.0000000  )
        15           C   tau(  15) = (  0.2000000  0.2000000  0.0000000  )
        16           C   tau(  16) = (  0.2666667  0.3333333  0.0000000  )
        17           C   tau(  17) = (  0.2000000  0.4000000  0.0000000  )
        18           C   tau(  18) = (  0.2666667  0.5333333  0.0000000  )
        19           C   tau(  19) = (  0.2000000  0.6000000  0.0000000  )
        20           C   tau(  20) = (  0.2666667  0.7333333  0.0000000  )
        21           C   tau(  21) = (  0.2000000  0.8000000  0.0000000  )
        22           C   tau(  22) = (  0.2666667  0.9333333  0.0000000  )
        23           C   tau(  23) = (  0.4000000  0.0000000  0.0000000  )
        24           C   tau(  24) = (  0.4666667  0.1333333  0.0000000  )
        25           C   tau(  25) = (  0.4000000  0.2000000  0.0000000  )
        26           C   tau(  26) = (  0.4666667  0.3333333  0.0000000  )
        27           C   tau(  27) = (  0.4000000  0.4000000  0.0000000  )
        28           V   tau(  28) = (  0.4666667  0.5333333  0.0000000  )
        29           C   tau(  29) = (  0.4000000  0.6000000  0.0000000  )
        30           C   tau(  30) = (  0.4666667  0.7333333  0.0000000  )
        31           C   tau(  31) = (  0.4000000  0.8000000  0.0000000  )
        32           C   tau(  32) = (  0.4666667  0.9333333  0.0000000  )
        33           C   tau(  33) = (  0.6000000  0.0000000  0.0000000  )
        34           C   tau(  34) = (  0.6666667  0.1333333  0.0000000  )
        35           C   tau(  35) = (  0.6000000  0.2000000  0.0000000  )
        36           C   tau(  36) = (  0.6666667  0.3333333  0.0000000  )
        37           C   tau(  37) = (  0.6000000  0.4000000  0.0000000  )
        38           C   tau(  38) = (  0.6666667  0.5333333  0.0000000  )
        39           C   tau(  39) = (  0.6000000  0.6000000  0.0000000  )
        40           C   tau(  40) = (  0.6666667  0.7333333  0.0000000  )
        41           C   tau(  41) = (  0.6000000  0.8000000  0.0000000  )
        42           C   tau(  42) = (  0.6666667  0.9333333  0.0000000  )
        43           C   tau(  43) = (  0.8000000  0.0000000  0.0000000  )
        44           C   tau(  44) = (  0.8666667  0.1333333  0.0000000  )
        45           C   tau(  45) = (  0.8000000  0.2000000  0.0000000  )
        46           C   tau(  46) = (  0.8666667  0.3333333  0.0000000  )
        47           C   tau(  47) = (  0.8000000  0.4000000  0.0000000  )
        48           C   tau(  48) = (  0.8666667  0.5333333  0.0000000  )
        49           C   tau(  49) = (  0.8000000  0.6000000  0.0000000  )
        50           C   tau(  50) = (  0.8666667  0.7333333  0.0000000  )
        51           C   tau(  51) = (  0.8000000  0.8000000  0.0000000  )
        52           C   tau(  52) = (  0.8666667  0.9333333  0.0000000  )

     number of k points=     1  Marzari-Vanderbilt smearing, width (Ry)=  0.0010
                       cart. coord. in units 2pi/alat
        k(    1) = (   0.0000000   0.0000000   0.0000000), wk =   2.0000000

                       cryst. coord.
        k(    1) = (   0.0000000   0.0000000   0.0000000), wk =   2.0000000

     Dense  grid:  1626001 G-vectors     FFT dimensions: ( 180, 180, 135)

     Smooth grid:   702581 G-vectors     FFT dimensions: ( 125, 125, 108)

     Dynamical RAM for                 wfc:      28.36 MB

     Dynamical RAM for     wfc (w. buffer):      28.36 MB

     Dynamical RAM for           str. fact:      12.41 MB

     Dynamical RAM for           local pot:       0.00 MB

     Dynamical RAM for          nlocal pot:      92.46 MB

     Dynamical RAM for                qrad:      19.73 MB

     Dynamical RAM for          rho,v,vnew:      29.46 MB

     Dynamical RAM for               rhoin:       9.82 MB

     Dynamical RAM for            rho*nmix:      66.16 MB

     Dynamical RAM for           G-vectors:      16.40 MB

     Dynamical RAM for          h,s,v(r/c):      11.81 MB

     Dynamical RAM for          <psi|beta>:       0.80 MB

     Dynamical RAM for                 psi:     113.46 MB

     Dynamical RAM for                hpsi:     113.46 MB

     Dynamical RAM for                spsi:     113.46 MB

     Dynamical RAM for      wfcinit/wfcrot:      93.90 MB

     Dynamical RAM for           addusdens:     971.75 MB

     Estimated static dynamical RAM per process >     319.78 MB

     Estimated max dynamical RAM per process >       1.26 GB

     Estimated total dynamical RAM >       7.57 GB

     Check: negative core charge=   -0.000002

     Initial potential from superposition of free atoms

     starting charge  210.80465, renormalised to  211.00000

     negative rho (up, down):  1.234E-04 0.000E+00


---------------------------------------------------------------------------------
Carrying out rVV10 run using the following parameters:
Nqs =      20    Nr_points =    1024   r_max =   100.000
b_value =  6.30000    beta =  0.00901
     q_mesh =  0.00010000  0.00030000  0.00058939  0.00100810
               0.00161396  0.00249058  0.00375900  0.00559430
               0.00824984  0.01209221  0.01765183  0.02569619
               0.03733578  0.05417739  0.07854596  0.11380545
               0.16482331  0.23864234  0.34545298  0.50000000

Gradients computed in Reciprocal space

---------------------------------------------------------------------------------


     Starting wfcs are  208 randomized atomic wfcs

     total cpu time spent up to now is       49.0 secs

     Self-consistent Calculation

     iteration #  1     ecut=    70.00 Ry     beta= 0.70
     Davidson diagonalization with overlap
     ethr =  1.00E-02,  avg # of iterations =  3.0

     negative rho (up, down):  2.569E-04 0.000E+00

     total cpu time spent up to now is      123.4 secs

     total energy              =    -752.86327428 Ry
     Harris-Foulkes estimate   =    -760.56914737 Ry
     estimated scf accuracy    <      10.71564014 Ry

     iteration #  2     ecut=    70.00 Ry     beta= 0.70
     Davidson diagonalization with overlap
     ethr =  5.08E-03,  avg # of iterations =  6.0

     negative rho (up, down):  3.711E-03 0.000E+00

     total cpu time spent up to now is      192.0 secs

     total energy              =    -747.63071599 Ry
     Harris-Foulkes estimate   =    -770.12044569 Ry
     estimated scf accuracy    <      77.23197247 Ry

     iteration #  3     ecut=    70.00 Ry     beta= 0.70
     Davidson diagonalization with overlap
     ethr =  5.08E-03,  avg # of iterations =  5.0

     negative rho (up, down):  1.162E-02 0.000E+00

     total cpu time spent up to now is      280.4 secs

     total energy              =    -756.12562831 Ry
     Harris-Foulkes estimate   =    -758.11641279 Ry
     estimated scf accuracy    <       6.38908529 Ry

     iteration #  4     ecut=    70.00 Ry     beta= 0.70
     Davidson diagonalization with overlap
     ethr =  3.03E-03,  avg # of iterations =  3.0

     negative rho (up, down):  4.977E-02 0.000E+00

     total cpu time spent up to now is      337.6 secs

     total energy              =    -756.99321066 Ry
     Harris-Foulkes estimate   =    -757.61461963 Ry
     estimated scf accuracy    <       1.57194859 Ry

     iteration #  5     ecut=    70.00 Ry     beta= 0.70
     Davidson diagonalization with overlap
     ethr =  7.45E-04,  avg # of iterations =  7.0

     negative rho (up, down):  5.568E-02 0.000E+00

     total cpu time spent up to now is      399.6 secs

     total energy              =    -757.26852183 Ry
     Harris-Foulkes estimate   =    -757.32621714 Ry
     estimated scf accuracy    <       0.20835843 Ry

     iteration #  6     ecut=    70.00 Ry     beta= 0.70
     Davidson diagonalization with overlap
     ethr =  9.87E-05,  avg # of iterations =  9.0

     negative rho (up, down):  3.806E-02 0.000E+00

     total cpu time spent up to now is      461.8 secs

     total energy              =    -757.29757401 Ry
     Harris-Foulkes estimate   =    -757.30265771 Ry
     estimated scf accuracy    <       0.05844226 Ry

     iteration #  7     ecut=    70.00 Ry     beta= 0.70
     Davidson diagonalization with overlap
     ethr =  2.77E-05,  avg # of iterations =  7.0

     negative rho (up, down):  3.956E-02 0.000E+00

     total cpu time spent up to now is      525.8 secs

     total energy              =    -757.31128241 Ry
     Harris-Foulkes estimate   =    -757.32441452 Ry
     estimated scf accuracy    <       0.07478289 Ry

     iteration #  8     ecut=    70.00 Ry     beta= 0.70
     Davidson diagonalization with overlap
     ethr =  2.77E-05,  avg # of iterations =  4.0

     negative rho (up, down):  2.874E-02 0.000E+00

     total cpu time spent up to now is      584.8 secs

     total energy              =    -757.32586626 Ry
     Harris-Foulkes estimate   =    -757.32160838 Ry
     estimated scf accuracy    <       0.01271034 Ry

     iteration #  9     ecut=    70.00 Ry     beta= 0.70
     Davidson diagonalization with overlap
     ethr =  6.02E-06,  avg # of iterations =  9.0

     negative rho (up, down):  3.548E-02 0.000E+00

     total cpu time spent up to now is      654.0 secs

     total energy              =    -757.32651897 Ry
     Harris-Foulkes estimate   =    -757.33304002 Ry
     estimated scf accuracy    <       0.02832106 Ry

     iteration # 10     ecut=    70.00 Ry     beta= 0.70
     Davidson diagonalization with overlap
     ethr =  6.02E-06,  avg # of iterations = 12.0

     negative rho (up, down):  3.636E-02 0.000E+00

     total cpu time spent up to now is      719.1 secs

     total energy              =    -757.32762678 Ry
     Harris-Foulkes estimate   =    -757.32912246 Ry
     estimated scf accuracy    <       0.01591882 Ry

     iteration # 11     ecut=    70.00 Ry     beta= 0.70
     Davidson diagonalization with overlap
     ethr =  6.02E-06,  avg # of iterations =  1.0

     negative rho (up, down):  3.522E-02 0.000E+00

     total cpu time spent up to now is      774.4 secs

     total energy              =    -757.32895328 Ry
     Harris-Foulkes estimate   =    -757.32866747 Ry
     estimated scf accuracy    <       0.00594127 Ry

     iteration # 12     ecut=    70.00 Ry     beta= 0.70
     Davidson diagonalization with overlap
     ethr =  2.82E-06,  avg # of iterations = 11.0

     negative rho (up, down):  3.375E-02 0.000E+00

     total cpu time spent up to now is      833.9 secs

     total energy              =    -757.33029238 Ry
     Harris-Foulkes estimate   =    -757.32929688 Ry
     estimated scf accuracy    <       0.00088139 Ry

     iteration # 13     ecut=    70.00 Ry     beta= 0.70
     Davidson diagonalization with overlap
     ethr =  4.18E-07,  avg # of iterations =  7.0

     negative rho (up, down):  3.354E-02 0.000E+00

     total cpu time spent up to now is      894.7 secs

     total energy              =    -757.33080641 Ry
     Harris-Foulkes estimate   =    -757.33042685 Ry
     estimated scf accuracy    <       0.00057170 Ry

     iteration # 14     ecut=    70.00 Ry     beta= 0.70
     Davidson diagonalization with overlap
     ethr =  2.71E-07,  avg # of iterations =  3.0

     negative rho (up, down):  3.375E-02 0.000E+00

     total cpu time spent up to now is      952.2 secs

     total energy              =    -757.33084845 Ry
     Harris-Foulkes estimate   =    -757.33087152 Ry
     estimated scf accuracy    <       0.00052304 Ry

     iteration # 15     ecut=    70.00 Ry     beta= 0.70
     Davidson diagonalization with overlap
     ethr =  2.48E-07,  avg # of iterations =  1.0

     negative rho (up, down):  3.390E-02 0.000E+00

     total cpu time spent up to now is     1005.3 secs

     total energy              =    -757.33095548 Ry
     Harris-Foulkes estimate   =    -757.33088595 Ry
     estimated scf accuracy    <       0.00019374 Ry

     iteration # 16     ecut=    70.00 Ry     beta= 0.70
     Davidson diagonalization with overlap
     ethr =  9.18E-08,  avg # of iterations =  3.0

     negative rho (up, down):  3.402E-02 0.000E+00

     total cpu time spent up to now is     1060.0 secs

     total energy              =    -757.33096607 Ry
     Harris-Foulkes estimate   =    -757.33097041 Ry
     estimated scf accuracy    <       0.00005405 Ry

     iteration # 17     ecut=    70.00 Ry     beta= 0.70
     Davidson diagonalization with overlap
     ethr =  2.56E-08,  avg # of iterations =  1.0

     negative rho (up, down):  3.405E-02 0.000E+00

     total cpu time spent up to now is     1112.9 secs

     total energy              =    -757.33096734 Ry
     Harris-Foulkes estimate   =    -757.33096833 Ry
     estimated scf accuracy    <       0.00000171 Ry

     iteration # 18     ecut=    70.00 Ry     beta= 0.70
     Davidson diagonalization with overlap
     ethr =  8.10E-10,  avg # of iterations =  4.0

     negative rho (up, down):  3.409E-02 0.000E+00

     total cpu time spent up to now is     1175.4 secs

     total energy              =    -757.33096764 Ry
     Harris-Foulkes estimate   =    -757.33096799 Ry
     estimated scf accuracy    <       0.00000103 Ry

     iteration # 19     ecut=    70.00 Ry     beta= 0.70
     Davidson diagonalization with overlap
     ethr =  4.86E-10,  avg # of iterations =  3.0

     negative rho (up, down):  3.411E-02 0.000E+00

     total cpu time spent up to now is     1232.7 secs

     End of self-consistent calculation

          k = 0.0000 0.0000 0.0000 ( 87777 PWs)   bands (ev):

   -62.7311 -37.8353 -37.8298 -36.4589 -19.6098 -18.7682 -18.7663 -18.6970
   -18.6553 -18.6530 -18.2092 -16.9152 -16.9131 -16.9124 -16.7705 -16.7692
   -16.4947 -16.0555 -16.0550 -15.9672 -15.8090 -15.8077 -15.0606 -13.8619
   -13.8561 -13.8550 -13.8435 -13.8433 -13.1194 -12.8985 -12.8981 -12.8782
   -12.4869 -12.4861 -12.0901 -11.6220 -11.6214 -11.4996 -11.1191 -11.1184
   -10.1308  -9.3143  -9.3132  -9.2354  -9.1595  -9.1594  -9.0740  -9.0466
    -9.0464  -9.0328  -8.4473  -8.4456  -7.8792  -7.8739  -7.8732  -7.8375
    -7.6574  -7.5935  -7.2349  -7.2337  -6.9109  -6.8843  -6.8625  -6.6712
    -6.6681  -6.6557  -6.5703  -6.5700  -6.5247  -6.4162  -6.4152  -6.3725
    -6.3692  -6.3686  -6.3148  -6.1761  -5.2407  -5.2403  -5.1010  -5.0810
    -4.9257  -4.9249  -4.8173  -4.7290  -4.5873  -4.5714  -4.5705  -4.1981
    -3.9461  -3.9433  -3.7118  -3.7094  -3.6229  -3.5942  -3.4805  -3.4803
    -2.8377  -2.2136  -2.2112  -2.1728  -2.1701  -1.6878  -1.6612  -1.6602
    -0.4961  -0.1154  -0.1152   1.0973   1.1017   1.1035   1.1939   1.8569
     2.0964   2.0976   2.5531   2.9379   2.9441   3.0061   3.2169   3.4889
     3.7066   3.7665   3.7804   3.8326   3.9560   4.0423   4.0491

     occupation numbers 
     1.0000   1.0000   1.0000   1.0000   1.0000   1.0000   1.0000   1.0000
     1.0000   1.0000   1.0000   1.0000   1.0000   1.0000   1.0000   1.0000
     1.0000   1.0000   1.0000   1.0000   1.0000   1.0000   1.0000   1.0000
     1.0000   1.0000   1.0000   1.0000   1.0000   1.0000   1.0000   1.0000
     1.0000   1.0000   1.0000   1.0000   1.0000   1.0000   1.0000   1.0000
     1.0000   1.0000   1.0000   1.0000   1.0000   1.0000   1.0000   1.0000
     1.0000   1.0000   1.0000   1.0000   1.0000   1.0000   1.0000   1.0000
     1.0000   1.0000   1.0000   1.0000   1.0000   1.0000   1.0000   1.0000
     1.0000   1.0000   1.0000   1.0000   1.0000   1.0000   1.0000   1.0000
     1.0000   1.0000   1.0000   1.0000   1.0000   1.0000   1.0000   1.0000
     1.0000   1.0000   1.0000   1.0000   1.0000   1.0000   1.0000   1.0000
     1.0000   1.0000   1.0000   1.0000   1.0000   1.0000   1.0000   1.0000
     1.0000   1.0000   1.0000   1.0000   1.0000   1.0000   1.0000   1.0000
     1.0000   0.2542   0.2458   0.0000   0.0000   0.0000   0.0000   0.0000
     0.0000   0.0000   0.0000   0.0000   0.0000   0.0000   0.0000   0.0000
     0.0000   0.0000   0.0000   0.0000   0.0000   0.0000   0.0000

     the Fermi energy is    -0.1186 ev

!    total energy              =    -757.33096732 Ry
     Harris-Foulkes estimate   =    -757.33096785 Ry
     estimated scf accuracy    <       0.00000067 Ry

     The total energy is the sum of the following terms:

     one-electron contribution =   -2594.65418384 Ry
     hartree contribution      =    1344.23742844 Ry
     xc contribution           =    -252.67657344 Ry
     ewald contribution        =     745.76297496 Ry
     smearing contrib. (-TS)   =      -0.00061343 Ry

     convergence has been achieved in  19 iterations

     Writing output data file vanadio-bridge-distance-2.6.save/

     init_run     :     46.42s CPU     47.72s WALL (       1 calls)
     electrons    :   1150.34s CPU   1183.82s WALL (       1 calls)

     Called by init_run:
     wfcinit      :     22.89s CPU     23.04s WALL (       1 calls)
     wfcinit:atom :      0.02s CPU      0.04s WALL (       1 calls)
     wfcinit:wfcr :     22.69s CPU     22.78s WALL (       1 calls)
     potinit      :     10.80s CPU     11.22s WALL (       1 calls)
     hinit0       :      7.88s CPU      7.92s WALL (       1 calls)

     Called by electrons:
     c_bands      :    717.87s CPU    722.08s WALL (      19 calls)
     sum_band     :    217.35s CPU    228.36s WALL (      19 calls)
     v_of_rho     :    129.97s CPU    137.93s WALL (      20 calls)
     v_h          :      1.52s CPU      1.57s WALL (      20 calls)
     v_xc         :    128.45s CPU    136.36s WALL (      20 calls)
     newd         :     89.33s CPU    100.48s WALL (      20 calls)
     mix_rho      :      4.13s CPU      4.19s WALL (      19 calls)

     Called by c_bands:
     init_us_2    :      1.85s CPU      1.90s WALL (      39 calls)
     cegterg      :    713.02s CPU    717.21s WALL (      19 calls)

     Called by sum_band:
     sum_band:bec :      0.02s CPU      0.02s WALL (      19 calls)
     addusdens    :    136.04s CPU    146.47s WALL (      19 calls)

     Called by *egterg:
     h_psi        :    376.63s CPU    379.52s WALL (     119 calls)
     s_psi        :    125.54s CPU    125.64s WALL (     119 calls)
     g_psi        :      0.39s CPU      0.40s WALL (      99 calls)
     cdiaghg      :     10.10s CPU     10.11s WALL (     118 calls)
     cegterg:over :     88.61s CPU     88.68s WALL (      99 calls)
     cegterg:upda :     58.58s CPU     59.01s WALL (      99 calls)
     cegterg:last :     35.95s CPU     35.97s WALL (      19 calls)

     Called by h_psi:
     h_psi:pot    :    376.24s CPU    378.64s WALL (     119 calls)
     h_psi:calbec :    124.24s CPU    124.33s WALL (     119 calls)
     vloc_psi     :    128.16s CPU    130.39s WALL (     119 calls)
     add_vuspsi   :    123.83s CPU    123.91s WALL (     119 calls)

     General routines
     calbec       :    173.80s CPU    173.92s WALL (     138 calls)
     fft          :     73.20s CPU     76.08s WALL (    1258 calls)
     ffts         :      0.84s CPU      0.85s WALL (      39 calls)
     fftw         :    133.61s CPU    136.04s WALL (   14601 calls)
     interpolate  :      1.81s CPU      1.88s WALL (      20 calls)

     Parallel routines
     fft_scatt_xy :     37.55s CPU     37.99s WALL (   15898 calls)
     fft_scatt_yz :     68.08s CPU     71.79s WALL (   15898 calls)

     PWSCF        :  19m58.10s CPU  20m33.14s WALL


   This run was terminated on:  22:12:11  30Aug2022            

=------------------------------------------------------------------------------=
   JOB DONE.
=------------------------------------------------------------------------------=
