
     Program PWSCF v.6.4.1 starts on 30Aug2022 at 20:53:43 

     This program is part of the open-source Quantum ESPRESSO suite
     for quantum simulation of materials; please cite
         "P. Giannozzi et al., J. Phys.:Condens. Matter 21 395502 (2009);
         "P. Giannozzi et al., J. Phys.:Condens. Matter 29 465901 (2017);
          URL http://www.quantum-espresso.org", 
     in publications or presentations arising from this work. More details at
     http://www.quantum-espresso.org/quote

     Parallel version (MPI), running on     6 processors

     MPI processes distributed on     1 nodes
     R & G space division:  proc/nbgrp/npool/nimage =       6
     Reading input from distance-3.5.in

     Current dimensions of program PWSCF are:
     Max number of different atomic species (ntypx) = 10
     Max number of k-points (npk) =  40000
     Max angular momentum in pseudopotentials (lmaxx) =  3

     IMPORTANT: XC functional enforced from input :
     Exchange-correlation      = RVV10 ( 1  4 13  4 3 0)
     Any further DFT definition will be discarded
     Please, verify this is what you really want

               file H.pbe-rrkjus.UPF: wavefunction(s)  1S renormalized
               file V.pbe-spnl-rrkjus_psl.1.0.0.UPF: wavefunction(s)  3P 3D renormalized

     Subspace diagonalization in iterative solution of the eigenvalue problem:
     a serial algorithm will be used


     Parallelization info
     --------------------
     sticks:   dense  smooth     PW     G-vecs:    dense   smooth      PW
     Min        3051    1746    432               270999   117096   14629
     Max        3053    1747    437               271001   117099   14630
     Sum       18313   10477   2611              1626001   702581   87777



     bravais-lattice index     =            4
     lattice parameter (alat)  =      23.2937  a.u.
     unit-cell volume          =    8879.8548 (a.u.)^3
     number of atoms/cell      =           52
     number of atomic types    =            3
     number of electrons       =       211.00
     number of Kohn-Sham states=          127
     kinetic-energy cutoff     =      70.0000  Ry
     charge density cutoff     =     490.0000  Ry
     convergence threshold     =      1.0E-06
     mixing beta               =       0.7000
     number of iterations used =            8  plain     mixing
     Exchange-correlation      = RVV10 ( 1  4 13  4 3 0)

     celldm(1)=  23.293684  celldm(2)=   0.000000  celldm(3)=   0.811261
     celldm(4)=   0.000000  celldm(5)=   0.000000  celldm(6)=   0.000000

     crystal axes: (cart. coord. in units of alat)
               a(1) = (   1.000000   0.000000   0.000000 )  
               a(2) = (  -0.500000   0.866025   0.000000 )  
               a(3) = (   0.000000   0.000000   0.811261 )  

     reciprocal axes: (cart. coord. in units 2 pi/alat)
               b(1) = (  1.000000  0.577350 -0.000000 )  
               b(2) = (  0.000000  1.154701  0.000000 )  
               b(3) = (  0.000000 -0.000000  1.232649 )  


     PseudoPot. # 1 for H  read from file:
     /home/cristian/Escritorio/Proyecto_Grafeno/pseudopotenciales/H.pbe-rrkjus.UPF
     MD5 check sum: 7cc9d459525c9a0585f487a71c3c9563
     Pseudo is Ultrasoft, Zval =  1.0
     Generated by new atomic code, or converted to UPF format
     Using radial grid of 1061 points,  2 beta functions with: 
                l(1) =   0
                l(2) =   0
     Q(r) pseudized with 0 coefficients 


     PseudoPot. # 2 for C  read from file:
     /home/cristian/Escritorio/Proyecto_Grafeno/pseudopotenciales/C.pbe-n-rrkjus_psl.1.0.0.UPF
     MD5 check sum: 1fdd950c42eb37d8afe3dd2f8d12311e
     Pseudo is Ultrasoft + core correction, Zval =  4.0
     Generated using "atomic" code by A. Dal Corso v.6.3MaX
     Using radial grid of 1073 points,  4 beta functions with: 
                l(1) =   0
                l(2) =   0
                l(3) =   1
                l(4) =   1
     Q(r) pseudized with 0 coefficients 


     PseudoPot. # 3 for V  read from file:
     /home/cristian/Escritorio/Proyecto_Grafeno/pseudopotenciales/V.pbe-spnl-rrkjus_psl.1.0.0.UPF
     MD5 check sum: 79b3eb63147daf0b665d9f1bcc691206
     Pseudo is Ultrasoft + core correction, Zval = 13.0
     Generated using "atomic" code by A. Dal Corso v.6.2.2
     Using radial grid of 1181 points,  6 beta functions with: 
                l(1) =   0
                l(2) =   0
                l(3) =   1
                l(4) =   1
                l(5) =   2
                l(6) =   2
     Q(r) pseudized with 0 coefficients 


     vdW kernel table read from file rVV10_kernel_table
     MD5 check sum: b8e2538accc0c0b3206b45ba4daaba6c

     atomic species   valence    mass     pseudopotential
        H              1.00     1.00794     H ( 1.00)
        C              4.00    12.01070     C ( 1.00)
        V             13.00    50.94150     V ( 1.00)

     No symmetry found


                                    s                        frac. trans.

      isym =  1     identity                                     

 cryst.   s( 1) = (     1          0          0      )
                  (     0          1          0      )
                  (     0          0          1      )

 cart.    s( 1) = (  1.0000000  0.0000000  0.0000000 )
                  (  0.0000000  1.0000000  0.0000000 )
                  (  0.0000000  0.0000000  1.0000000 )


     point group C_1 (1)    
     there are  1 classes
     the character table:

       E    
A      1.00

     the symmetry operations in each class and the name of the first element:

     E        1
          identity                                               

   Cartesian axes

     site n.     atom                  positions (alat units)
         1           H   tau(   1) = (   0.2194937   0.4907477   0.2839414  )
         2           H   tau(   2) = (   0.2805063   0.4907477   0.2839414  )
         3           C   tau(   3) = (   0.0000000   0.0000000   0.0000000  )
         4           C   tau(   4) = (   0.0000000   0.1154701   0.0000000  )
         5           C   tau(   5) = (  -0.1000000   0.1732051   0.0000000  )
         6           C   tau(   6) = (  -0.1000000   0.2886751   0.0000000  )
         7           C   tau(   7) = (  -0.2000000   0.3464102   0.0000000  )
         8           C   tau(   8) = (  -0.2000000   0.4618802   0.0000000  )
         9           C   tau(   9) = (  -0.3000000   0.5196152   0.0000000  )
        10           C   tau(  10) = (  -0.3000000   0.6350853   0.0000000  )
        11           C   tau(  11) = (  -0.4000000   0.6928203   0.0000000  )
        12           C   tau(  12) = (  -0.4000000   0.8082904   0.0000000  )
        13           C   tau(  13) = (   0.2000000   0.0000000   0.0000000  )
        14           C   tau(  14) = (   0.2000000   0.1154701   0.0000000  )
        15           C   tau(  15) = (   0.1000000   0.1732051   0.0000000  )
        16           C   tau(  16) = (   0.1000000   0.2886751   0.0000000  )
        17           C   tau(  17) = (   0.0000000   0.3464102   0.0000000  )
        18           C   tau(  18) = (   0.0000000   0.4618802   0.0000000  )
        19           C   tau(  19) = (  -0.1000000   0.5196152   0.0000000  )
        20           C   tau(  20) = (  -0.1000000   0.6350853   0.0000000  )
        21           C   tau(  21) = (  -0.2000000   0.6928203   0.0000000  )
        22           C   tau(  22) = (  -0.2000000   0.8082904   0.0000000  )
        23           C   tau(  23) = (   0.4000000   0.0000000   0.0000000  )
        24           C   tau(  24) = (   0.4000000   0.1154701   0.0000000  )
        25           C   tau(  25) = (   0.3000000   0.1732051   0.0000000  )
        26           C   tau(  26) = (   0.3000000   0.2886751   0.0000000  )
        27           C   tau(  27) = (   0.2000000   0.3464102   0.0000000  )
        28           V   tau(  28) = (   0.2000000   0.4618802   0.0000000  )
        29           C   tau(  29) = (   0.1000000   0.5196152   0.0000000  )
        30           C   tau(  30) = (   0.1000000   0.6350853   0.0000000  )
        31           C   tau(  31) = (   0.0000000   0.6928203   0.0000000  )
        32           C   tau(  32) = (   0.0000000   0.8082904   0.0000000  )
        33           C   tau(  33) = (   0.6000000   0.0000000   0.0000000  )
        34           C   tau(  34) = (   0.6000000   0.1154701   0.0000000  )
        35           C   tau(  35) = (   0.5000000   0.1732051   0.0000000  )
        36           C   tau(  36) = (   0.5000000   0.2886751   0.0000000  )
        37           C   tau(  37) = (   0.4000000   0.3464102   0.0000000  )
        38           C   tau(  38) = (   0.4000000   0.4618802   0.0000000  )
        39           C   tau(  39) = (   0.3000000   0.5196152   0.0000000  )
        40           C   tau(  40) = (   0.3000000   0.6350853   0.0000000  )
        41           C   tau(  41) = (   0.2000000   0.6928203   0.0000000  )
        42           C   tau(  42) = (   0.2000000   0.8082904   0.0000000  )
        43           C   tau(  43) = (   0.8000000   0.0000000   0.0000000  )
        44           C   tau(  44) = (   0.8000000   0.1154701   0.0000000  )
        45           C   tau(  45) = (   0.7000000   0.1732051   0.0000000  )
        46           C   tau(  46) = (   0.7000000   0.2886751   0.0000000  )
        47           C   tau(  47) = (   0.6000000   0.3464102   0.0000000  )
        48           C   tau(  48) = (   0.6000000   0.4618802   0.0000000  )
        49           C   tau(  49) = (   0.5000000   0.5196152   0.0000000  )
        50           C   tau(  50) = (   0.5000000   0.6350853   0.0000000  )
        51           C   tau(  51) = (   0.4000000   0.6928203   0.0000000  )
        52           C   tau(  52) = (   0.4000000   0.8082904   0.0000000  )

   Crystallographic axes

     site n.     atom                  positions (cryst. coord.)
         1           H   tau(   1) = (  0.5028270  0.5666667  0.3500000  )
         2           H   tau(   2) = (  0.5638397  0.5666667  0.3500000  )
         3           C   tau(   3) = (  0.0000000  0.0000000  0.0000000  )
         4           C   tau(   4) = (  0.0666667  0.1333333  0.0000000  )
         5           C   tau(   5) = (  0.0000000  0.2000000  0.0000000  )
         6           C   tau(   6) = (  0.0666667  0.3333333  0.0000000  )
         7           C   tau(   7) = (  0.0000000  0.4000000  0.0000000  )
         8           C   tau(   8) = (  0.0666667  0.5333333  0.0000000  )
         9           C   tau(   9) = (  0.0000000  0.6000000  0.0000000  )
        10           C   tau(  10) = (  0.0666667  0.7333333  0.0000000  )
        11           C   tau(  11) = (  0.0000000  0.8000000  0.0000000  )
        12           C   tau(  12) = (  0.0666667  0.9333333  0.0000000  )
        13           C   tau(  13) = (  0.2000000  0.0000000  0.0000000  )
        14           C   tau(  14) = (  0.2666667  0.1333333  0.0000000  )
        15           C   tau(  15) = (  0.2000000  0.2000000  0.0000000  )
        16           C   tau(  16) = (  0.2666667  0.3333333  0.0000000  )
        17           C   tau(  17) = (  0.2000000  0.4000000  0.0000000  )
        18           C   tau(  18) = (  0.2666667  0.5333333  0.0000000  )
        19           C   tau(  19) = (  0.2000000  0.6000000  0.0000000  )
        20           C   tau(  20) = (  0.2666667  0.7333333  0.0000000  )
        21           C   tau(  21) = (  0.2000000  0.8000000  0.0000000  )
        22           C   tau(  22) = (  0.2666667  0.9333333  0.0000000  )
        23           C   tau(  23) = (  0.4000000  0.0000000  0.0000000  )
        24           C   tau(  24) = (  0.4666667  0.1333333  0.0000000  )
        25           C   tau(  25) = (  0.4000000  0.2000000  0.0000000  )
        26           C   tau(  26) = (  0.4666667  0.3333333  0.0000000  )
        27           C   tau(  27) = (  0.4000000  0.4000000  0.0000000  )
        28           V   tau(  28) = (  0.4666667  0.5333333  0.0000000  )
        29           C   tau(  29) = (  0.4000000  0.6000000  0.0000000  )
        30           C   tau(  30) = (  0.4666667  0.7333333  0.0000000  )
        31           C   tau(  31) = (  0.4000000  0.8000000  0.0000000  )
        32           C   tau(  32) = (  0.4666667  0.9333333  0.0000000  )
        33           C   tau(  33) = (  0.6000000  0.0000000  0.0000000  )
        34           C   tau(  34) = (  0.6666667  0.1333333  0.0000000  )
        35           C   tau(  35) = (  0.6000000  0.2000000  0.0000000  )
        36           C   tau(  36) = (  0.6666667  0.3333333  0.0000000  )
        37           C   tau(  37) = (  0.6000000  0.4000000  0.0000000  )
        38           C   tau(  38) = (  0.6666667  0.5333333  0.0000000  )
        39           C   tau(  39) = (  0.6000000  0.6000000  0.0000000  )
        40           C   tau(  40) = (  0.6666667  0.7333333  0.0000000  )
        41           C   tau(  41) = (  0.6000000  0.8000000  0.0000000  )
        42           C   tau(  42) = (  0.6666667  0.9333333  0.0000000  )
        43           C   tau(  43) = (  0.8000000  0.0000000  0.0000000  )
        44           C   tau(  44) = (  0.8666667  0.1333333  0.0000000  )
        45           C   tau(  45) = (  0.8000000  0.2000000  0.0000000  )
        46           C   tau(  46) = (  0.8666667  0.3333333  0.0000000  )
        47           C   tau(  47) = (  0.8000000  0.4000000  0.0000000  )
        48           C   tau(  48) = (  0.8666667  0.5333333  0.0000000  )
        49           C   tau(  49) = (  0.8000000  0.6000000  0.0000000  )
        50           C   tau(  50) = (  0.8666667  0.7333333  0.0000000  )
        51           C   tau(  51) = (  0.8000000  0.8000000  0.0000000  )
        52           C   tau(  52) = (  0.8666667  0.9333333  0.0000000  )

     number of k points=     1  Marzari-Vanderbilt smearing, width (Ry)=  0.0010
                       cart. coord. in units 2pi/alat
        k(    1) = (   0.0000000   0.0000000   0.0000000), wk =   2.0000000

                       cryst. coord.
        k(    1) = (   0.0000000   0.0000000   0.0000000), wk =   2.0000000

     Dense  grid:  1626001 G-vectors     FFT dimensions: ( 180, 180, 135)

     Smooth grid:   702581 G-vectors     FFT dimensions: ( 125, 125, 108)

     Dynamical RAM for                 wfc:      28.36 MB

     Dynamical RAM for     wfc (w. buffer):      28.36 MB

     Dynamical RAM for           str. fact:      12.41 MB

     Dynamical RAM for           local pot:       0.00 MB

     Dynamical RAM for          nlocal pot:      92.46 MB

     Dynamical RAM for                qrad:      19.73 MB

     Dynamical RAM for          rho,v,vnew:      29.46 MB

     Dynamical RAM for               rhoin:       9.82 MB

     Dynamical RAM for            rho*nmix:      66.16 MB

     Dynamical RAM for           G-vectors:      16.40 MB

     Dynamical RAM for          h,s,v(r/c):      11.81 MB

     Dynamical RAM for          <psi|beta>:       0.80 MB

     Dynamical RAM for                 psi:     113.46 MB

     Dynamical RAM for                hpsi:     113.46 MB

     Dynamical RAM for                spsi:     113.46 MB

     Dynamical RAM for      wfcinit/wfcrot:      93.90 MB

     Dynamical RAM for           addusdens:     971.75 MB

     Estimated static dynamical RAM per process >     319.78 MB

     Estimated max dynamical RAM per process >       1.26 GB

     Estimated total dynamical RAM >       7.57 GB

     Check: negative core charge=   -0.000002

     Initial potential from superposition of free atoms

     starting charge  210.80465, renormalised to  211.00000

     negative rho (up, down):  1.025E-04 0.000E+00


---------------------------------------------------------------------------------
Carrying out rVV10 run using the following parameters:
Nqs =      20    Nr_points =    1024   r_max =   100.000
b_value =  6.30000    beta =  0.00901
     q_mesh =  0.00010000  0.00030000  0.00058939  0.00100810
               0.00161396  0.00249058  0.00375900  0.00559430
               0.00824984  0.01209221  0.01765183  0.02569619
               0.03733578  0.05417739  0.07854596  0.11380545
               0.16482331  0.23864234  0.34545298  0.50000000

Gradients computed in Reciprocal space

---------------------------------------------------------------------------------


     Starting wfcs are  208 randomized atomic wfcs

     total cpu time spent up to now is       49.0 secs

     Self-consistent Calculation

     iteration #  1     ecut=    70.00 Ry     beta= 0.70
     Davidson diagonalization with overlap
     ethr =  1.00E-02,  avg # of iterations =  3.0

     negative rho (up, down):  2.715E-03 0.000E+00

     total cpu time spent up to now is      117.2 secs

     total energy              =    -755.11881258 Ry
     Harris-Foulkes estimate   =    -760.47517067 Ry
     estimated scf accuracy    <       8.10673209 Ry

     iteration #  2     ecut=    70.00 Ry     beta= 0.70
     Davidson diagonalization with overlap
     ethr =  3.84E-03,  avg # of iterations =  7.0

     negative rho (up, down):  2.240E-02 0.000E+00

     total cpu time spent up to now is      184.3 secs

     total energy              =    -748.51284186 Ry
     Harris-Foulkes estimate   =    -762.07398448 Ry
     estimated scf accuracy    <      45.75122365 Ry

     iteration #  3     ecut=    70.00 Ry     beta= 0.70
     Davidson diagonalization with overlap
     ethr =  3.84E-03,  avg # of iterations =  5.0

     negative rho (up, down):  3.652E-03 0.000E+00

     total cpu time spent up to now is      272.8 secs

     total energy              =    -755.40058473 Ry
     Harris-Foulkes estimate   =    -759.46497049 Ry
     estimated scf accuracy    <      21.02707745 Ry

     iteration #  4     ecut=    70.00 Ry     beta= 0.70
     Davidson diagonalization with overlap
     ethr =  3.84E-03,  avg # of iterations =  4.0

     negative rho (up, down):  4.234E-02 0.000E+00

     total cpu time spent up to now is      326.9 secs

     total energy              =    -757.11704340 Ry
     Harris-Foulkes estimate   =    -757.75753833 Ry
     estimated scf accuracy    <       1.86089298 Ry

     iteration #  5     ecut=    70.00 Ry     beta= 0.70
     Davidson diagonalization with overlap
     ethr =  8.82E-04,  avg # of iterations =  6.0

     negative rho (up, down):  6.422E-02 0.000E+00

     total cpu time spent up to now is      383.1 secs

     total energy              =    -757.27730891 Ry
     Harris-Foulkes estimate   =    -757.35508889 Ry
     estimated scf accuracy    <       0.28488586 Ry

     iteration #  6     ecut=    70.00 Ry     beta= 0.70
     Davidson diagonalization with overlap
     ethr =  1.35E-04,  avg # of iterations =  4.0

     negative rho (up, down):  5.723E-02 0.000E+00

     total cpu time spent up to now is      437.2 secs

     total energy              =    -757.29475921 Ry
     Harris-Foulkes estimate   =    -757.32631967 Ry
     estimated scf accuracy    <       0.19579220 Ry

     iteration #  7     ecut=    70.00 Ry     beta= 0.70
     Davidson diagonalization with overlap
     ethr =  9.28E-05,  avg # of iterations =  3.0

     negative rho (up, down):  4.145E-02 0.000E+00

     total cpu time spent up to now is      487.9 secs

     total energy              =    -757.30450982 Ry
     Harris-Foulkes estimate   =    -757.31467323 Ry
     estimated scf accuracy    <       0.10298943 Ry

     iteration #  8     ecut=    70.00 Ry     beta= 0.70
     Davidson diagonalization with overlap
     ethr =  4.88E-05,  avg # of iterations =  7.0

     negative rho (up, down):  2.914E-02 0.000E+00

     total cpu time spent up to now is      539.3 secs

     total energy              =    -757.31734239 Ry
     Harris-Foulkes estimate   =    -757.31397981 Ry
     estimated scf accuracy    <       0.03559524 Ry

     iteration #  9     ecut=    70.00 Ry     beta= 0.70
     Davidson diagonalization with overlap
     ethr =  1.69E-05,  avg # of iterations = 12.0

     negative rho (up, down):  3.396E-02 0.000E+00

     total cpu time spent up to now is      598.7 secs

     total energy              =    -757.32258831 Ry
     Harris-Foulkes estimate   =    -757.32653511 Ry
     estimated scf accuracy    <       0.02682309 Ry

     iteration # 10     ecut=    70.00 Ry     beta= 0.70
     Davidson diagonalization with overlap
     ethr =  1.27E-05,  avg # of iterations =  3.0

     negative rho (up, down):  3.564E-02 0.000E+00

     total cpu time spent up to now is      648.8 secs

     total energy              =    -757.32412326 Ry
     Harris-Foulkes estimate   =    -757.32725410 Ry
     estimated scf accuracy    <       0.02533064 Ry

     iteration # 11     ecut=    70.00 Ry     beta= 0.70
     Davidson diagonalization with overlap
     ethr =  1.20E-05,  avg # of iterations =  2.0

     negative rho (up, down):  3.382E-02 0.000E+00

     total cpu time spent up to now is      698.5 secs

     total energy              =    -757.32640014 Ry
     Harris-Foulkes estimate   =    -757.32590964 Ry
     estimated scf accuracy    <       0.01388885 Ry

     iteration # 12     ecut=    70.00 Ry     beta= 0.70
     Davidson diagonalization with overlap
     ethr =  6.58E-06,  avg # of iterations =  7.0

     negative rho (up, down):  3.304E-02 0.000E+00

     total cpu time spent up to now is      751.8 secs

     total energy              =    -757.32843225 Ry
     Harris-Foulkes estimate   =    -757.32738899 Ry
     estimated scf accuracy    <       0.00403413 Ry

     iteration # 13     ecut=    70.00 Ry     beta= 0.70
     Davidson diagonalization with overlap
     ethr =  1.91E-06,  avg # of iterations =  7.0

     negative rho (up, down):  3.382E-02 0.000E+00

     total cpu time spent up to now is      806.1 secs

     total energy              =    -757.32798407 Ry
     Harris-Foulkes estimate   =    -757.32869351 Ry
     estimated scf accuracy    <       0.00152552 Ry

     iteration # 14     ecut=    70.00 Ry     beta= 0.70
     Davidson diagonalization with overlap
     ethr =  7.23E-07,  avg # of iterations =  4.0

     negative rho (up, down):  3.358E-02 0.000E+00

     total cpu time spent up to now is      858.4 secs

     total energy              =    -757.32858088 Ry
     Harris-Foulkes estimate   =    -757.32815815 Ry
     estimated scf accuracy    <       0.00096635 Ry

     iteration # 15     ecut=    70.00 Ry     beta= 0.70
     Davidson diagonalization with overlap
     ethr =  4.58E-07,  avg # of iterations =  3.0

     negative rho (up, down):  3.374E-02 0.000E+00

     total cpu time spent up to now is      909.8 secs

     total energy              =    -757.32868753 Ry
     Harris-Foulkes estimate   =    -757.32867514 Ry
     estimated scf accuracy    <       0.00101691 Ry

     iteration # 16     ecut=    70.00 Ry     beta= 0.70
     Davidson diagonalization with overlap
     ethr =  4.58E-07,  avg # of iterations =  1.0

     negative rho (up, down):  3.390E-02 0.000E+00

     total cpu time spent up to now is      959.1 secs

     total energy              =    -757.32878164 Ry
     Harris-Foulkes estimate   =    -757.32872128 Ry
     estimated scf accuracy    <       0.00002216 Ry

     iteration # 17     ecut=    70.00 Ry     beta= 0.70
     Davidson diagonalization with overlap
     ethr =  1.05E-08,  avg # of iterations =  4.0

     negative rho (up, down):  3.397E-02 0.000E+00

     total cpu time spent up to now is     1011.8 secs

     total energy              =    -757.32878376 Ry
     Harris-Foulkes estimate   =    -757.32878731 Ry
     estimated scf accuracy    <       0.00003108 Ry

     iteration # 18     ecut=    70.00 Ry     beta= 0.70
     Davidson diagonalization with overlap
     ethr =  1.05E-08,  avg # of iterations =  1.0

     negative rho (up, down):  3.402E-02 0.000E+00

     total cpu time spent up to now is     1061.0 secs

     total energy              =    -757.32878478 Ry
     Harris-Foulkes estimate   =    -757.32878502 Ry
     estimated scf accuracy    <       0.00000559 Ry

     iteration # 19     ecut=    70.00 Ry     beta= 0.70
     Davidson diagonalization with overlap
     ethr =  2.65E-09,  avg # of iterations =  3.0

     negative rho (up, down):  3.405E-02 0.000E+00

     total cpu time spent up to now is     1110.7 secs

     End of self-consistent calculation

          k = 0.0000 0.0000 0.0000 ( 87777 PWs)   bands (ev):

   -62.7545 -37.8550 -37.8542 -36.4857 -19.6212 -18.7786 -18.7785 -18.7087
   -18.6661 -18.6656 -18.2230 -16.9262 -16.9245 -16.9242 -16.7826 -16.7824
   -16.5066 -16.0675 -16.0673 -15.9790 -15.8216 -15.8210 -15.0735 -13.8746
   -13.8683 -13.8681 -13.8555 -13.8554 -13.1327 -12.9102 -12.9100 -12.8900
   -12.4993 -12.4992 -12.1013 -11.6347 -11.6345 -11.5120 -11.1314 -11.1311
   -10.1414  -9.3278  -9.3275  -9.2491  -9.1714  -9.1713  -9.0859  -9.0583
    -9.0582  -9.0444  -8.4579  -8.4579  -7.8869  -7.8867  -7.8540  -7.7747
    -7.6704  -7.2469  -7.2467  -6.9694  -6.9210  -6.8910  -6.8754  -6.6803
    -6.6797  -6.6715  -6.5838  -6.5836  -6.5383  -6.4275  -6.4273  -6.3849
    -6.3807  -6.3804  -6.3268  -6.2586  -5.2532  -5.2531  -5.1124  -5.1100
    -4.9381  -4.9378  -4.8293  -4.7412  -4.5968  -4.5805  -4.5801  -4.2208
    -3.9571  -3.9568  -3.7204  -3.7201  -3.6337  -3.6168  -3.4927  -3.4926
    -2.8772  -2.2241  -2.2235  -2.1927  -2.1919  -1.6982  -1.6713  -1.6710
    -0.5324  -0.1262  -0.1262   0.9489   1.0879   1.0933   1.0935   1.8327
     2.0867   2.0868   2.6046   2.9329   2.9337   2.9974   3.2751   3.5026
     3.6625   3.7655   3.7785   3.8276   3.9910   4.0369   4.0385

     occupation numbers 
     1.0000   1.0000   1.0000   1.0000   1.0000   1.0000   1.0000   1.0000
     1.0000   1.0000   1.0000   1.0000   1.0000   1.0000   1.0000   1.0000
     1.0000   1.0000   1.0000   1.0000   1.0000   1.0000   1.0000   1.0000
     1.0000   1.0000   1.0000   1.0000   1.0000   1.0000   1.0000   1.0000
     1.0000   1.0000   1.0000   1.0000   1.0000   1.0000   1.0000   1.0000
     1.0000   1.0000   1.0000   1.0000   1.0000   1.0000   1.0000   1.0000
     1.0000   1.0000   1.0000   1.0000   1.0000   1.0000   1.0000   1.0000
     1.0000   1.0000   1.0000   1.0000   1.0000   1.0000   1.0000   1.0000
     1.0000   1.0000   1.0000   1.0000   1.0000   1.0000   1.0000   1.0000
     1.0000   1.0000   1.0000   1.0000   1.0000   1.0000   1.0000   1.0000
     1.0000   1.0000   1.0000   1.0000   1.0000   1.0000   1.0000   1.0000
     1.0000   1.0000   1.0000   1.0000   1.0000   1.0000   1.0000   1.0000
     1.0000   1.0000   1.0000   1.0000   1.0000   1.0000   1.0000   1.0000
     1.0000   0.2509   0.2491   0.0000   0.0000   0.0000   0.0000   0.0000
     0.0000   0.0000   0.0000   0.0000   0.0000   0.0000   0.0000   0.0000
     0.0000   0.0000   0.0000   0.0000   0.0000   0.0000   0.0000

     the Fermi energy is    -0.1295 ev

!    total energy              =    -757.32878447 Ry
     Harris-Foulkes estimate   =    -757.32878510 Ry
     estimated scf accuracy    <       0.00000055 Ry

     The total energy is the sum of the following terms:

     one-electron contribution =   -2577.52290182 Ry
     hartree contribution      =    1335.60328167 Ry
     xc contribution           =    -252.65851331 Ry
     ewald contribution        =     737.24996248 Ry
     smearing contrib. (-TS)   =      -0.00061349 Ry

     convergence has been achieved in  19 iterations

     Writing output data file vanadio-bridge-distance-3.5.save/

     init_run     :     46.80s CPU     47.91s WALL (       1 calls)
     electrons    :   1030.47s CPU   1061.80s WALL (       1 calls)

     Called by init_run:
     wfcinit      :     21.38s CPU     21.56s WALL (       1 calls)
     wfcinit:atom :      0.03s CPU      0.05s WALL (       1 calls)
     wfcinit:wfcr :     21.17s CPU     21.31s WALL (       1 calls)
     potinit      :     11.58s CPU     11.93s WALL (       1 calls)
     hinit0       :      9.04s CPU      9.06s WALL (       1 calls)

     Called by electrons:
     c_bands      :    636.04s CPU    639.30s WALL (      19 calls)
     sum_band     :    195.02s CPU    205.75s WALL (      19 calls)
     v_of_rho     :    122.10s CPU    129.59s WALL (      20 calls)
     v_h          :      1.41s CPU      1.44s WALL (      20 calls)
     v_xc         :    120.69s CPU    128.14s WALL (      20 calls)
     newd         :     81.67s CPU     92.25s WALL (      20 calls)
     mix_rho      :      3.71s CPU      3.79s WALL (      19 calls)

     Called by c_bands:
     init_us_2    :      1.73s CPU      1.75s WALL (      39 calls)
     cegterg      :    631.19s CPU    634.42s WALL (      19 calls)

     Called by sum_band:
     sum_band:bec :      0.01s CPU      0.01s WALL (      19 calls)
     addusdens    :    119.72s CPU    129.94s WALL (      19 calls)

     Called by *egterg:
     h_psi        :    333.57s CPU    335.88s WALL (     106 calls)
     s_psi        :    110.40s CPU    110.49s WALL (     106 calls)
     g_psi        :      0.36s CPU      0.37s WALL (      86 calls)
     cdiaghg      :      7.90s CPU      7.90s WALL (     105 calls)
     cegterg:over :     80.06s CPU     80.09s WALL (      86 calls)
     cegterg:upda :     49.97s CPU     50.24s WALL (      86 calls)
     cegterg:last :     32.01s CPU     32.02s WALL (      19 calls)

     Called by h_psi:
     h_psi:pot    :    333.15s CPU    335.10s WALL (     106 calls)
     h_psi:calbec :    112.48s CPU    112.55s WALL (     106 calls)
     vloc_psi     :    110.43s CPU    112.28s WALL (     106 calls)
     add_vuspsi   :    110.24s CPU    110.27s WALL (     106 calls)

     General routines
     calbec       :    158.67s CPU    158.79s WALL (     125 calls)
     fft          :     68.96s CPU     71.66s WALL (    1258 calls)
     ffts         :      0.75s CPU      0.76s WALL (      39 calls)
     fftw         :    116.41s CPU    118.46s WALL (   14151 calls)
     interpolate  :      1.78s CPU      1.81s WALL (      20 calls)

     Parallel routines
     fft_scatt_xy :     32.26s CPU     32.70s WALL (   15448 calls)
     fft_scatt_yz :     64.73s CPU     68.08s WALL (   15448 calls)

     PWSCF        :  17m58.47s CPU  18m31.16s WALL


   This run was terminated on:  21:12:14  30Aug2022            

=------------------------------------------------------------------------------=
   JOB DONE.
=------------------------------------------------------------------------------=
