
     Program PWSCF v.6.4.1 starts on 30Aug2022 at 21:12:14 

     This program is part of the open-source Quantum ESPRESSO suite
     for quantum simulation of materials; please cite
         "P. Giannozzi et al., J. Phys.:Condens. Matter 21 395502 (2009);
         "P. Giannozzi et al., J. Phys.:Condens. Matter 29 465901 (2017);
          URL http://www.quantum-espresso.org", 
     in publications or presentations arising from this work. More details at
     http://www.quantum-espresso.org/quote

     Parallel version (MPI), running on     6 processors

     MPI processes distributed on     1 nodes
     R & G space division:  proc/nbgrp/npool/nimage =       6
     Reading input from distance-3.0.in

     Current dimensions of program PWSCF are:
     Max number of different atomic species (ntypx) = 10
     Max number of k-points (npk) =  40000
     Max angular momentum in pseudopotentials (lmaxx) =  3

     IMPORTANT: XC functional enforced from input :
     Exchange-correlation      = RVV10 ( 1  4 13  4 3 0)
     Any further DFT definition will be discarded
     Please, verify this is what you really want

               file H.pbe-rrkjus.UPF: wavefunction(s)  1S renormalized
               file V.pbe-spnl-rrkjus_psl.1.0.0.UPF: wavefunction(s)  3P 3D renormalized

     Subspace diagonalization in iterative solution of the eigenvalue problem:
     a serial algorithm will be used


     Parallelization info
     --------------------
     sticks:   dense  smooth     PW     G-vecs:    dense   smooth      PW
     Min        3051    1746    432               270999   117096   14629
     Max        3053    1747    437               271001   117099   14630
     Sum       18313   10477   2611              1626001   702581   87777



     bravais-lattice index     =            4
     lattice parameter (alat)  =      23.2937  a.u.
     unit-cell volume          =    8879.8548 (a.u.)^3
     number of atoms/cell      =           52
     number of atomic types    =            3
     number of electrons       =       211.00
     number of Kohn-Sham states=          127
     kinetic-energy cutoff     =      70.0000  Ry
     charge density cutoff     =     490.0000  Ry
     convergence threshold     =      1.0E-06
     mixing beta               =       0.7000
     number of iterations used =            8  plain     mixing
     Exchange-correlation      = RVV10 ( 1  4 13  4 3 0)

     celldm(1)=  23.293684  celldm(2)=   0.000000  celldm(3)=   0.811261
     celldm(4)=   0.000000  celldm(5)=   0.000000  celldm(6)=   0.000000

     crystal axes: (cart. coord. in units of alat)
               a(1) = (   1.000000   0.000000   0.000000 )  
               a(2) = (  -0.500000   0.866025   0.000000 )  
               a(3) = (   0.000000   0.000000   0.811261 )  

     reciprocal axes: (cart. coord. in units 2 pi/alat)
               b(1) = (  1.000000  0.577350 -0.000000 )  
               b(2) = (  0.000000  1.154701  0.000000 )  
               b(3) = (  0.000000 -0.000000  1.232649 )  


     PseudoPot. # 1 for H  read from file:
     /home/cristian/Escritorio/Proyecto_Grafeno/pseudopotenciales/H.pbe-rrkjus.UPF
     MD5 check sum: 7cc9d459525c9a0585f487a71c3c9563
     Pseudo is Ultrasoft, Zval =  1.0
     Generated by new atomic code, or converted to UPF format
     Using radial grid of 1061 points,  2 beta functions with: 
                l(1) =   0
                l(2) =   0
     Q(r) pseudized with 0 coefficients 


     PseudoPot. # 2 for C  read from file:
     /home/cristian/Escritorio/Proyecto_Grafeno/pseudopotenciales/C.pbe-n-rrkjus_psl.1.0.0.UPF
     MD5 check sum: 1fdd950c42eb37d8afe3dd2f8d12311e
     Pseudo is Ultrasoft + core correction, Zval =  4.0
     Generated using "atomic" code by A. Dal Corso v.6.3MaX
     Using radial grid of 1073 points,  4 beta functions with: 
                l(1) =   0
                l(2) =   0
                l(3) =   1
                l(4) =   1
     Q(r) pseudized with 0 coefficients 


     PseudoPot. # 3 for V  read from file:
     /home/cristian/Escritorio/Proyecto_Grafeno/pseudopotenciales/V.pbe-spnl-rrkjus_psl.1.0.0.UPF
     MD5 check sum: 79b3eb63147daf0b665d9f1bcc691206
     Pseudo is Ultrasoft + core correction, Zval = 13.0
     Generated using "atomic" code by A. Dal Corso v.6.2.2
     Using radial grid of 1181 points,  6 beta functions with: 
                l(1) =   0
                l(2) =   0
                l(3) =   1
                l(4) =   1
                l(5) =   2
                l(6) =   2
     Q(r) pseudized with 0 coefficients 


     vdW kernel table read from file rVV10_kernel_table
     MD5 check sum: b8e2538accc0c0b3206b45ba4daaba6c

     atomic species   valence    mass     pseudopotential
        H              1.00     1.00794     H ( 1.00)
        C              4.00    12.01070     C ( 1.00)
        V             13.00    50.94150     V ( 1.00)

     No symmetry found


                                    s                        frac. trans.

      isym =  1     identity                                     

 cryst.   s( 1) = (     1          0          0      )
                  (     0          1          0      )
                  (     0          0          1      )

 cart.    s( 1) = (  1.0000000  0.0000000  0.0000000 )
                  (  0.0000000  1.0000000  0.0000000 )
                  (  0.0000000  0.0000000  1.0000000 )


     point group C_1 (1)    
     there are  1 classes
     the character table:

       E    
A      1.00

     the symmetry operations in each class and the name of the first element:

     E        1
          identity                                               

   Cartesian axes

     site n.     atom                  positions (alat units)
         1           H   tau(   1) = (   0.2194937   0.4907477   0.2433783  )
         2           H   tau(   2) = (   0.2805063   0.4907477   0.2433783  )
         3           C   tau(   3) = (   0.0000000   0.0000000   0.0000000  )
         4           C   tau(   4) = (   0.0000000   0.1154701   0.0000000  )
         5           C   tau(   5) = (  -0.1000000   0.1732051   0.0000000  )
         6           C   tau(   6) = (  -0.1000000   0.2886751   0.0000000  )
         7           C   tau(   7) = (  -0.2000000   0.3464102   0.0000000  )
         8           C   tau(   8) = (  -0.2000000   0.4618802   0.0000000  )
         9           C   tau(   9) = (  -0.3000000   0.5196152   0.0000000  )
        10           C   tau(  10) = (  -0.3000000   0.6350853   0.0000000  )
        11           C   tau(  11) = (  -0.4000000   0.6928203   0.0000000  )
        12           C   tau(  12) = (  -0.4000000   0.8082904   0.0000000  )
        13           C   tau(  13) = (   0.2000000   0.0000000   0.0000000  )
        14           C   tau(  14) = (   0.2000000   0.1154701   0.0000000  )
        15           C   tau(  15) = (   0.1000000   0.1732051   0.0000000  )
        16           C   tau(  16) = (   0.1000000   0.2886751   0.0000000  )
        17           C   tau(  17) = (   0.0000000   0.3464102   0.0000000  )
        18           C   tau(  18) = (   0.0000000   0.4618802   0.0000000  )
        19           C   tau(  19) = (  -0.1000000   0.5196152   0.0000000  )
        20           C   tau(  20) = (  -0.1000000   0.6350853   0.0000000  )
        21           C   tau(  21) = (  -0.2000000   0.6928203   0.0000000  )
        22           C   tau(  22) = (  -0.2000000   0.8082904   0.0000000  )
        23           C   tau(  23) = (   0.4000000   0.0000000   0.0000000  )
        24           C   tau(  24) = (   0.4000000   0.1154701   0.0000000  )
        25           C   tau(  25) = (   0.3000000   0.1732051   0.0000000  )
        26           C   tau(  26) = (   0.3000000   0.2886751   0.0000000  )
        27           C   tau(  27) = (   0.2000000   0.3464102   0.0000000  )
        28           V   tau(  28) = (   0.2000000   0.4618802   0.0000000  )
        29           C   tau(  29) = (   0.1000000   0.5196152   0.0000000  )
        30           C   tau(  30) = (   0.1000000   0.6350853   0.0000000  )
        31           C   tau(  31) = (   0.0000000   0.6928203   0.0000000  )
        32           C   tau(  32) = (   0.0000000   0.8082904   0.0000000  )
        33           C   tau(  33) = (   0.6000000   0.0000000   0.0000000  )
        34           C   tau(  34) = (   0.6000000   0.1154701   0.0000000  )
        35           C   tau(  35) = (   0.5000000   0.1732051   0.0000000  )
        36           C   tau(  36) = (   0.5000000   0.2886751   0.0000000  )
        37           C   tau(  37) = (   0.4000000   0.3464102   0.0000000  )
        38           C   tau(  38) = (   0.4000000   0.4618802   0.0000000  )
        39           C   tau(  39) = (   0.3000000   0.5196152   0.0000000  )
        40           C   tau(  40) = (   0.3000000   0.6350853   0.0000000  )
        41           C   tau(  41) = (   0.2000000   0.6928203   0.0000000  )
        42           C   tau(  42) = (   0.2000000   0.8082904   0.0000000  )
        43           C   tau(  43) = (   0.8000000   0.0000000   0.0000000  )
        44           C   tau(  44) = (   0.8000000   0.1154701   0.0000000  )
        45           C   tau(  45) = (   0.7000000   0.1732051   0.0000000  )
        46           C   tau(  46) = (   0.7000000   0.2886751   0.0000000  )
        47           C   tau(  47) = (   0.6000000   0.3464102   0.0000000  )
        48           C   tau(  48) = (   0.6000000   0.4618802   0.0000000  )
        49           C   tau(  49) = (   0.5000000   0.5196152   0.0000000  )
        50           C   tau(  50) = (   0.5000000   0.6350853   0.0000000  )
        51           C   tau(  51) = (   0.4000000   0.6928203   0.0000000  )
        52           C   tau(  52) = (   0.4000000   0.8082904   0.0000000  )

   Crystallographic axes

     site n.     atom                  positions (cryst. coord.)
         1           H   tau(   1) = (  0.5028270  0.5666667  0.3000000  )
         2           H   tau(   2) = (  0.5638397  0.5666667  0.3000000  )
         3           C   tau(   3) = (  0.0000000  0.0000000  0.0000000  )
         4           C   tau(   4) = (  0.0666667  0.1333333  0.0000000  )
         5           C   tau(   5) = (  0.0000000  0.2000000  0.0000000  )
         6           C   tau(   6) = (  0.0666667  0.3333333  0.0000000  )
         7           C   tau(   7) = (  0.0000000  0.4000000  0.0000000  )
         8           C   tau(   8) = (  0.0666667  0.5333333  0.0000000  )
         9           C   tau(   9) = (  0.0000000  0.6000000  0.0000000  )
        10           C   tau(  10) = (  0.0666667  0.7333333  0.0000000  )
        11           C   tau(  11) = (  0.0000000  0.8000000  0.0000000  )
        12           C   tau(  12) = (  0.0666667  0.9333333  0.0000000  )
        13           C   tau(  13) = (  0.2000000  0.0000000  0.0000000  )
        14           C   tau(  14) = (  0.2666667  0.1333333  0.0000000  )
        15           C   tau(  15) = (  0.2000000  0.2000000  0.0000000  )
        16           C   tau(  16) = (  0.2666667  0.3333333  0.0000000  )
        17           C   tau(  17) = (  0.2000000  0.4000000  0.0000000  )
        18           C   tau(  18) = (  0.2666667  0.5333333  0.0000000  )
        19           C   tau(  19) = (  0.2000000  0.6000000  0.0000000  )
        20           C   tau(  20) = (  0.2666667  0.7333333  0.0000000  )
        21           C   tau(  21) = (  0.2000000  0.8000000  0.0000000  )
        22           C   tau(  22) = (  0.2666667  0.9333333  0.0000000  )
        23           C   tau(  23) = (  0.4000000  0.0000000  0.0000000  )
        24           C   tau(  24) = (  0.4666667  0.1333333  0.0000000  )
        25           C   tau(  25) = (  0.4000000  0.2000000  0.0000000  )
        26           C   tau(  26) = (  0.4666667  0.3333333  0.0000000  )
        27           C   tau(  27) = (  0.4000000  0.4000000  0.0000000  )
        28           V   tau(  28) = (  0.4666667  0.5333333  0.0000000  )
        29           C   tau(  29) = (  0.4000000  0.6000000  0.0000000  )
        30           C   tau(  30) = (  0.4666667  0.7333333  0.0000000  )
        31           C   tau(  31) = (  0.4000000  0.8000000  0.0000000  )
        32           C   tau(  32) = (  0.4666667  0.9333333  0.0000000  )
        33           C   tau(  33) = (  0.6000000  0.0000000  0.0000000  )
        34           C   tau(  34) = (  0.6666667  0.1333333  0.0000000  )
        35           C   tau(  35) = (  0.6000000  0.2000000  0.0000000  )
        36           C   tau(  36) = (  0.6666667  0.3333333  0.0000000  )
        37           C   tau(  37) = (  0.6000000  0.4000000  0.0000000  )
        38           C   tau(  38) = (  0.6666667  0.5333333  0.0000000  )
        39           C   tau(  39) = (  0.6000000  0.6000000  0.0000000  )
        40           C   tau(  40) = (  0.6666667  0.7333333  0.0000000  )
        41           C   tau(  41) = (  0.6000000  0.8000000  0.0000000  )
        42           C   tau(  42) = (  0.6666667  0.9333333  0.0000000  )
        43           C   tau(  43) = (  0.8000000  0.0000000  0.0000000  )
        44           C   tau(  44) = (  0.8666667  0.1333333  0.0000000  )
        45           C   tau(  45) = (  0.8000000  0.2000000  0.0000000  )
        46           C   tau(  46) = (  0.8666667  0.3333333  0.0000000  )
        47           C   tau(  47) = (  0.8000000  0.4000000  0.0000000  )
        48           C   tau(  48) = (  0.8666667  0.5333333  0.0000000  )
        49           C   tau(  49) = (  0.8000000  0.6000000  0.0000000  )
        50           C   tau(  50) = (  0.8666667  0.7333333  0.0000000  )
        51           C   tau(  51) = (  0.8000000  0.8000000  0.0000000  )
        52           C   tau(  52) = (  0.8666667  0.9333333  0.0000000  )

     number of k points=     1  Marzari-Vanderbilt smearing, width (Ry)=  0.0010
                       cart. coord. in units 2pi/alat
        k(    1) = (   0.0000000   0.0000000   0.0000000), wk =   2.0000000

                       cryst. coord.
        k(    1) = (   0.0000000   0.0000000   0.0000000), wk =   2.0000000

     Dense  grid:  1626001 G-vectors     FFT dimensions: ( 180, 180, 135)

     Smooth grid:   702581 G-vectors     FFT dimensions: ( 125, 125, 108)

     Dynamical RAM for                 wfc:      28.36 MB

     Dynamical RAM for     wfc (w. buffer):      28.36 MB

     Dynamical RAM for           str. fact:      12.41 MB

     Dynamical RAM for           local pot:       0.00 MB

     Dynamical RAM for          nlocal pot:      92.46 MB

     Dynamical RAM for                qrad:      19.73 MB

     Dynamical RAM for          rho,v,vnew:      29.46 MB

     Dynamical RAM for               rhoin:       9.82 MB

     Dynamical RAM for            rho*nmix:      66.16 MB

     Dynamical RAM for           G-vectors:      16.40 MB

     Dynamical RAM for          h,s,v(r/c):      11.81 MB

     Dynamical RAM for          <psi|beta>:       0.80 MB

     Dynamical RAM for                 psi:     113.46 MB

     Dynamical RAM for                hpsi:     113.46 MB

     Dynamical RAM for                spsi:     113.46 MB

     Dynamical RAM for      wfcinit/wfcrot:      93.90 MB

     Dynamical RAM for           addusdens:     971.75 MB

     Estimated static dynamical RAM per process >     319.78 MB

     Estimated max dynamical RAM per process >       1.26 GB

     Estimated total dynamical RAM >       7.57 GB

     Check: negative core charge=   -0.000002

     Initial potential from superposition of free atoms

     starting charge  210.80465, renormalised to  211.00000

     negative rho (up, down):  1.123E-04 0.000E+00


---------------------------------------------------------------------------------
Carrying out rVV10 run using the following parameters:
Nqs =      20    Nr_points =    1024   r_max =   100.000
b_value =  6.30000    beta =  0.00901
     q_mesh =  0.00010000  0.00030000  0.00058939  0.00100810
               0.00161396  0.00249058  0.00375900  0.00559430
               0.00824984  0.01209221  0.01765183  0.02569619
               0.03733578  0.05417739  0.07854596  0.11380545
               0.16482331  0.23864234  0.34545298  0.50000000

Gradients computed in Reciprocal space

---------------------------------------------------------------------------------


     Starting wfcs are  208 randomized atomic wfcs

     total cpu time spent up to now is       51.0 secs

     Self-consistent Calculation

     iteration #  1     ecut=    70.00 Ry     beta= 0.70
     Davidson diagonalization with overlap
     ethr =  1.00E-02,  avg # of iterations =  3.0

     negative rho (up, down):  1.909E-03 0.000E+00

     total cpu time spent up to now is      118.5 secs

     total energy              =    -754.68789824 Ry
     Harris-Foulkes estimate   =    -760.49809185 Ry
     estimated scf accuracy    <       8.59762242 Ry

     iteration #  2     ecut=    70.00 Ry     beta= 0.70
     Davidson diagonalization with overlap
     ethr =  4.07E-03,  avg # of iterations =  7.0

     negative rho (up, down):  2.062E-02 0.000E+00

     total cpu time spent up to now is      184.5 secs

     total energy              =    -748.26752602 Ry
     Harris-Foulkes estimate   =    -763.81806382 Ry
     estimated scf accuracy    <      53.10276174 Ry

     iteration #  3     ecut=    70.00 Ry     beta= 0.70
     Davidson diagonalization with overlap
     ethr =  4.07E-03,  avg # of iterations =  5.0

     negative rho (up, down):  2.737E-03 0.000E+00

     total cpu time spent up to now is      280.3 secs

     total energy              =    -755.50543507 Ry
     Harris-Foulkes estimate   =    -758.97216625 Ry
     estimated scf accuracy    <      16.94858461 Ry

     iteration #  4     ecut=    70.00 Ry     beta= 0.70
     Davidson diagonalization with overlap
     ethr =  4.07E-03,  avg # of iterations =  4.0

     negative rho (up, down):  4.719E-02 0.000E+00

     total cpu time spent up to now is      333.7 secs

     total energy              =    -757.11623479 Ry
     Harris-Foulkes estimate   =    -757.73796461 Ry
     estimated scf accuracy    <       1.81745036 Ry

     iteration #  5     ecut=    70.00 Ry     beta= 0.70
     Davidson diagonalization with overlap
     ethr =  8.61E-04,  avg # of iterations =  4.0

     negative rho (up, down):  6.678E-02 0.000E+00

     total cpu time spent up to now is      390.8 secs

     total energy              =    -757.27181843 Ry
     Harris-Foulkes estimate   =    -757.34808859 Ry
     estimated scf accuracy    <       0.26895814 Ry

     iteration #  6     ecut=    70.00 Ry     beta= 0.70
     Davidson diagonalization with overlap
     ethr =  1.27E-04,  avg # of iterations =  6.0

     negative rho (up, down):  5.723E-02 0.000E+00

     total cpu time spent up to now is      447.5 secs

     total energy              =    -757.29221960 Ry
     Harris-Foulkes estimate   =    -757.32149498 Ry
     estimated scf accuracy    <       0.17711028 Ry

     iteration #  7     ecut=    70.00 Ry     beta= 0.70
     Davidson diagonalization with overlap
     ethr =  8.39E-05,  avg # of iterations =  8.0

     negative rho (up, down):  4.283E-02 0.000E+00

     total cpu time spent up to now is      499.5 secs

     total energy              =    -757.30501351 Ry
     Harris-Foulkes estimate   =    -757.31438538 Ry
     estimated scf accuracy    <       0.09062719 Ry

     iteration #  8     ecut=    70.00 Ry     beta= 0.70
     Davidson diagonalization with overlap
     ethr =  4.30E-05,  avg # of iterations =  7.0

     negative rho (up, down):  2.715E-02 0.000E+00

     total cpu time spent up to now is      552.6 secs

     total energy              =    -757.32100151 Ry
     Harris-Foulkes estimate   =    -757.31518939 Ry
     estimated scf accuracy    <       0.02971983 Ry

     iteration #  9     ecut=    70.00 Ry     beta= 0.70
     Davidson diagonalization with overlap
     ethr =  1.41E-05,  avg # of iterations = 11.0

     negative rho (up, down):  3.470E-02 0.000E+00

     total cpu time spent up to now is      614.6 secs

     total energy              =    -757.32501793 Ry
     Harris-Foulkes estimate   =    -757.33021021 Ry
     estimated scf accuracy    <       0.02495780 Ry

     iteration # 10     ecut=    70.00 Ry     beta= 0.70
     Davidson diagonalization with overlap
     ethr =  1.18E-05,  avg # of iterations =  3.0

     negative rho (up, down):  3.657E-02 0.000E+00

     total cpu time spent up to now is      667.2 secs

     total energy              =    -757.32612925 Ry
     Harris-Foulkes estimate   =    -757.32916226 Ry
     estimated scf accuracy    <       0.02318898 Ry

     iteration # 11     ecut=    70.00 Ry     beta= 0.70
     Davidson diagonalization with overlap
     ethr =  1.10E-05,  avg # of iterations =  2.0

     negative rho (up, down):  3.468E-02 0.000E+00

     total cpu time spent up to now is      717.2 secs

     total energy              =    -757.32814313 Ry
     Harris-Foulkes estimate   =    -757.32775091 Ry
     estimated scf accuracy    <       0.01197582 Ry

     iteration # 12     ecut=    70.00 Ry     beta= 0.70
     Davidson diagonalization with overlap
     ethr =  5.68E-06,  avg # of iterations =  3.0

     negative rho (up, down):  3.328E-02 0.000E+00

     total cpu time spent up to now is      769.4 secs

     total energy              =    -757.32996811 Ry
     Harris-Foulkes estimate   =    -757.32902782 Ry
     estimated scf accuracy    <       0.00389344 Ry

     iteration # 13     ecut=    70.00 Ry     beta= 0.70
     Davidson diagonalization with overlap
     ethr =  1.85E-06,  avg # of iterations =  6.0

     negative rho (up, down):  3.385E-02 0.000E+00

     total cpu time spent up to now is      825.0 secs

     total energy              =    -757.33005936 Ry
     Harris-Foulkes estimate   =    -757.33020123 Ry
     estimated scf accuracy    <       0.00041554 Ry

     iteration # 14     ecut=    70.00 Ry     beta= 0.70
     Davidson diagonalization with overlap
     ethr =  1.97E-07,  avg # of iterations =  3.0

     negative rho (up, down):  3.374E-02 0.000E+00

     total cpu time spent up to now is      877.0 secs

     total energy              =    -757.33050052 Ry
     Harris-Foulkes estimate   =    -757.33016014 Ry
     estimated scf accuracy    <       0.00020429 Ry

     iteration # 15     ecut=    70.00 Ry     beta= 0.70
     Davidson diagonalization with overlap
     ethr =  9.68E-08,  avg # of iterations =  4.0

     negative rho (up, down):  3.378E-02 0.000E+00

     total cpu time spent up to now is      930.6 secs

     total energy              =    -757.33077201 Ry
     Harris-Foulkes estimate   =    -757.33054072 Ry
     estimated scf accuracy    <       0.00033352 Ry

     iteration # 16     ecut=    70.00 Ry     beta= 0.70
     Davidson diagonalization with overlap
     ethr =  9.68E-08,  avg # of iterations =  3.0

     negative rho (up, down):  3.399E-02 0.000E+00

     total cpu time spent up to now is      982.8 secs

     total energy              =    -757.33080070 Ry
     Harris-Foulkes estimate   =    -757.33080431 Ry
     estimated scf accuracy    <       0.00032100 Ry

     iteration # 17     ecut=    70.00 Ry     beta= 0.70
     Davidson diagonalization with overlap
     ethr =  9.68E-08,  avg # of iterations =  1.0

     negative rho (up, down):  3.406E-02 0.000E+00

     total cpu time spent up to now is     1032.7 secs

     total energy              =    -757.33080654 Ry
     Harris-Foulkes estimate   =    -757.33080913 Ry
     estimated scf accuracy    <       0.00003256 Ry

     iteration # 18     ecut=    70.00 Ry     beta= 0.70
     Davidson diagonalization with overlap
     ethr =  1.54E-08,  avg # of iterations =  3.0

     negative rho (up, down):  3.413E-02 0.000E+00

     total cpu time spent up to now is     1082.9 secs

     total energy              =    -757.33080727 Ry
     Harris-Foulkes estimate   =    -757.33080851 Ry
     estimated scf accuracy    <       0.00001000 Ry

     iteration # 19     ecut=    70.00 Ry     beta= 0.70
     Davidson diagonalization with overlap
     ethr =  4.74E-09,  avg # of iterations =  1.0

     negative rho (up, down):  3.413E-02 0.000E+00

     total cpu time spent up to now is     1132.8 secs

     total energy              =    -757.33080754 Ry
     Harris-Foulkes estimate   =    -757.33080767 Ry
     estimated scf accuracy    <       0.00000222 Ry

     iteration # 20     ecut=    70.00 Ry     beta= 0.70
     Davidson diagonalization with overlap
     ethr =  1.05E-09,  avg # of iterations =  3.0

     negative rho (up, down):  3.414E-02 0.000E+00

     total cpu time spent up to now is     1182.7 secs

     End of self-consistent calculation

          k = 0.0000 0.0000 0.0000 ( 87777 PWs)   bands (ev):

   -62.7437 -37.8455 -37.8429 -36.4736 -19.6155 -18.7734 -18.7725 -18.7029
   -18.6606 -18.6596 -18.2162 -16.9208 -16.9189 -16.9185 -16.7766 -16.7759
   -16.5007 -16.0616 -16.0613 -15.9733 -15.8153 -15.8145 -15.0670 -13.8684
   -13.8623 -13.8614 -13.8496 -13.8495 -13.1262 -12.9044 -12.9042 -12.8842
   -12.4932 -12.4927 -12.0956 -11.6285 -11.6281 -11.5060 -11.1253 -11.1248
   -10.1355  -9.3212  -9.3206  -9.2425  -9.1656  -9.1655  -9.0800  -9.0525
    -9.0524  -9.0387  -8.4521  -8.4519  -7.8806  -7.8802  -7.8482  -7.7809
    -7.6641  -7.2523  -7.2408  -7.2320  -6.9156  -6.8934  -6.8740  -6.6757
    -6.6740  -6.6639  -6.5772  -6.5771  -6.5317  -6.4219  -6.4215  -6.3789
    -6.3751  -6.3746  -6.3210  -6.2238  -5.2472  -5.2469  -5.1063  -5.0988
    -4.9320  -4.9316  -4.8234  -4.7353  -4.5920  -4.5757  -4.5753  -4.2115
    -3.9516  -3.9504  -3.7157  -3.7148  -3.6284  -3.6064  -3.4867  -3.4866
    -2.8626  -2.2184  -2.2172  -2.1834  -2.1815  -1.6930  -1.6661  -1.6658
    -0.5184  -0.1202  -0.1201   1.0443   1.0931   1.0978   1.0985   1.8425
     2.0919   2.0924   2.5800   2.9365   2.9387   3.0020   3.2374   3.4928
     3.6893   3.7656   3.7790   3.8293   3.9756   4.0400   4.0437

     occupation numbers 
     1.0000   1.0000   1.0000   1.0000   1.0000   1.0000   1.0000   1.0000
     1.0000   1.0000   1.0000   1.0000   1.0000   1.0000   1.0000   1.0000
     1.0000   1.0000   1.0000   1.0000   1.0000   1.0000   1.0000   1.0000
     1.0000   1.0000   1.0000   1.0000   1.0000   1.0000   1.0000   1.0000
     1.0000   1.0000   1.0000   1.0000   1.0000   1.0000   1.0000   1.0000
     1.0000   1.0000   1.0000   1.0000   1.0000   1.0000   1.0000   1.0000
     1.0000   1.0000   1.0000   1.0000   1.0000   1.0000   1.0000   1.0000
     1.0000   1.0000   1.0000   1.0000   1.0000   1.0000   1.0000   1.0000
     1.0000   1.0000   1.0000   1.0000   1.0000   1.0000   1.0000   1.0000
     1.0000   1.0000   1.0000   1.0000   1.0000   1.0000   1.0000   1.0000
     1.0000   1.0000   1.0000   1.0000   1.0000   1.0000   1.0000   1.0000
     1.0000   1.0000   1.0000   1.0000   1.0000   1.0000   1.0000   1.0000
     1.0000   1.0000   1.0000   1.0000   1.0000   1.0000   1.0000   1.0000
     1.0000   0.2506   0.2494   0.0000   0.0000   0.0000   0.0000   0.0000
     0.0000   0.0000   0.0000   0.0000   0.0000   0.0000   0.0000   0.0000
     0.0000   0.0000   0.0000   0.0000   0.0000   0.0000   0.0000

     the Fermi energy is    -0.1235 ev

!    total energy              =    -757.33080713 Ry
     Harris-Foulkes estimate   =    -757.33080764 Ry
     estimated scf accuracy    <       0.00000065 Ry

     The total energy is the sum of the following terms:

     one-electron contribution =   -2585.97375906 Ry
     hartree contribution      =    1339.86267424 Ry
     xc contribution           =    -252.66450630 Ry
     ewald contribution        =     741.44539748 Ry
     smearing contrib. (-TS)   =      -0.00061350 Ry

     convergence has been achieved in  20 iterations

     Writing output data file vanadio-bridge-distance-3.0.save/

     init_run     :     48.73s CPU     49.81s WALL (       1 calls)
     electrons    :   1099.02s CPU   1131.84s WALL (       1 calls)

     Called by init_run:
     wfcinit      :     21.08s CPU     21.22s WALL (       1 calls)
     wfcinit:atom :      0.03s CPU      0.04s WALL (       1 calls)
     wfcinit:wfcr :     20.89s CPU     20.98s WALL (       1 calls)
     potinit      :     12.21s CPU     12.57s WALL (       1 calls)
     hinit0       :     10.69s CPU     10.73s WALL (       1 calls)

     Called by electrons:
     c_bands      :    678.04s CPU    681.83s WALL (      20 calls)
     sum_band     :    208.14s CPU    219.13s WALL (      20 calls)
     v_of_rho     :    129.77s CPU    137.52s WALL (      21 calls)
     v_h          :      1.47s CPU      1.54s WALL (      21 calls)
     v_xc         :    128.29s CPU    135.98s WALL (      21 calls)
     newd         :     87.04s CPU     97.98s WALL (      21 calls)
     mix_rho      :      4.01s CPU      4.09s WALL (      20 calls)

     Called by c_bands:
     init_us_2    :      1.81s CPU      1.84s WALL (      41 calls)
     cegterg      :    673.38s CPU    677.16s WALL (      20 calls)

     Called by sum_band:
     sum_band:bec :      0.02s CPU      0.02s WALL (      20 calls)
     addusdens    :    127.37s CPU    137.79s WALL (      20 calls)

     Called by *egterg:
     h_psi        :    354.13s CPU    356.75s WALL (     108 calls)
     s_psi        :    117.07s CPU    117.14s WALL (     108 calls)
     g_psi        :      0.38s CPU      0.38s WALL (      87 calls)
     cdiaghg      :      7.81s CPU      7.81s WALL (     107 calls)
     cegterg:over :     82.95s CPU     83.00s WALL (      87 calls)
     cegterg:upda :     52.25s CPU     52.54s WALL (      87 calls)
     cegterg:last :     40.54s CPU     40.56s WALL (      21 calls)

     Called by h_psi:
     h_psi:pot    :    353.72s CPU    355.89s WALL (     108 calls)
     h_psi:calbec :    118.40s CPU    118.50s WALL (     108 calls)
     vloc_psi     :    117.67s CPU    119.68s WALL (     108 calls)
     add_vuspsi   :    117.65s CPU    117.71s WALL (     108 calls)

     General routines
     calbec       :    167.40s CPU    167.55s WALL (     128 calls)
     fft          :     74.77s CPU     77.78s WALL (    1321 calls)
     ffts         :      0.78s CPU      0.80s WALL (      41 calls)
     fftw         :    124.77s CPU    126.97s WALL (   14872 calls)
     interpolate  :      1.78s CPU      1.85s WALL (      21 calls)

     Parallel routines
     fft_scatt_xy :     34.52s CPU     34.92s WALL (   16234 calls)
     fft_scatt_yz :     71.09s CPU     74.89s WALL (   16234 calls)

     PWSCF        :  19m 8.99s CPU  19m43.15s WALL


   This run was terminated on:  21:31:57  30Aug2022            

=------------------------------------------------------------------------------=
   JOB DONE.
=------------------------------------------------------------------------------=
