
     Program PWSCF v.6.4.1 starts on 10Aug2022 at 15:27: 9 

     This program is part of the open-source Quantum ESPRESSO suite
     for quantum simulation of materials; please cite
         "P. Giannozzi et al., J. Phys.:Condens. Matter 21 395502 (2009);
         "P. Giannozzi et al., J. Phys.:Condens. Matter 29 465901 (2017);
          URL http://www.quantum-espresso.org", 
     in publications or presentations arising from this work. More details at
     http://www.quantum-espresso.org/quote

     Parallel version (MPI), running on     6 processors

     MPI processes distributed on     1 nodes
     R & G space division:  proc/nbgrp/npool/nimage =       6
     Reading input from distance-2.6.in

     Current dimensions of program PWSCF are:
     Max number of different atomic species (ntypx) = 10
     Max number of k-points (npk) =  40000
     Max angular momentum in pseudopotentials (lmaxx) =  3

     IMPORTANT: XC functional enforced from input :
     Exchange-correlation      = RVV10 ( 1  4 13  4 3 0)
     Any further DFT definition will be discarded
     Please, verify this is what you really want

               file H.pbe-rrkjus.UPF: wavefunction(s)  1S renormalized
               file Mn.pbe-spn-rrkjus_psl.0.3.1.UPF: wavefunction(s)  3D renormalized

     Subspace diagonalization in iterative solution of the eigenvalue problem:
     a serial algorithm will be used


     Parallelization info
     --------------------
     sticks:   dense  smooth     PW     G-vecs:    dense   smooth      PW
     Min        3051    1746    432               270999   117096   14629
     Max        3053    1747    437               271001   117099   14630
     Sum       18313   10477   2611              1626001   702581   87777



     bravais-lattice index     =            4
     lattice parameter (alat)  =      23.2937  a.u.
     unit-cell volume          =    8879.8548 (a.u.)^3
     number of atoms/cell      =           52
     number of atomic types    =            3
     number of electrons       =       213.00
     number of Kohn-Sham states=          128
     kinetic-energy cutoff     =      70.0000  Ry
     charge density cutoff     =     490.0000  Ry
     convergence threshold     =      1.0E-06
     mixing beta               =       0.7000
     number of iterations used =            8  plain     mixing
     Exchange-correlation      = RVV10 ( 1  4 13  4 3 0)

     celldm(1)=  23.293684  celldm(2)=   0.000000  celldm(3)=   0.811261
     celldm(4)=   0.000000  celldm(5)=   0.000000  celldm(6)=   0.000000

     crystal axes: (cart. coord. in units of alat)
               a(1) = (   1.000000   0.000000   0.000000 )  
               a(2) = (  -0.500000   0.866025   0.000000 )  
               a(3) = (   0.000000   0.000000   0.811261 )  

     reciprocal axes: (cart. coord. in units 2 pi/alat)
               b(1) = (  1.000000  0.577350 -0.000000 )  
               b(2) = (  0.000000  1.154701  0.000000 )  
               b(3) = (  0.000000 -0.000000  1.232649 )  


     PseudoPot. # 1 for H  read from file:
     /home/cristian/Escritorio/Proyecto_Grafeno/pseudopotenciales/H.pbe-rrkjus.UPF
     MD5 check sum: 7cc9d459525c9a0585f487a71c3c9563
     Pseudo is Ultrasoft, Zval =  1.0
     Generated by new atomic code, or converted to UPF format
     Using radial grid of 1061 points,  2 beta functions with: 
                l(1) =   0
                l(2) =   0
     Q(r) pseudized with 0 coefficients 


     PseudoPot. # 2 for C  read from file:
     /home/cristian/Escritorio/Proyecto_Grafeno/pseudopotenciales/C.pbe-n-rrkjus_psl.1.0.0.UPF
     MD5 check sum: 1fdd950c42eb37d8afe3dd2f8d12311e
     Pseudo is Ultrasoft + core correction, Zval =  4.0
     Generated using "atomic" code by A. Dal Corso v.6.3MaX
     Using radial grid of 1073 points,  4 beta functions with: 
                l(1) =   0
                l(2) =   0
                l(3) =   1
                l(4) =   1
     Q(r) pseudized with 0 coefficients 


     PseudoPot. # 3 for Mn read from file:
     /home/cristian/Escritorio/Proyecto_Grafeno/pseudopotenciales/Mn.pbe-spn-rrkjus_psl.0.3.1.UPF
     MD5 check sum: e1cac159bdd2ba70c18e85765a5d4279
     Pseudo is Ultrasoft + core correction, Zval = 15.0
     Generated using "atomic" code by A. Dal Corso v.6.2.2
     Using radial grid of 1187 points,  6 beta functions with: 
                l(1) =   0
                l(2) =   0
                l(3) =   1
                l(4) =   1
                l(5) =   2
                l(6) =   2
     Q(r) pseudized with 0 coefficients 


     vdW kernel table read from file rVV10_kernel_table
     MD5 check sum: b8e2538accc0c0b3206b45ba4daaba6c

     atomic species   valence    mass     pseudopotential
        H              1.00     1.00794     H ( 1.00)
        C              4.00    12.01070     C ( 1.00)
        Mn            15.00    54.93804     Mn( 1.00)

     Starting magnetic structure 
     atomic species   magnetization
        H            0.500
        C            0.300
        Mn           0.800

      2 Sym. Ops. (no inversion) found


                                    s                        frac. trans.

      isym =  1     identity                                     

 cryst.   s( 1) = (     1          0          0      )
                  (     0          1          0      )
                  (     0          0          1      )

 cart.    s( 1) = (  1.0000000  0.0000000  0.0000000 )
                  (  0.0000000  1.0000000  0.0000000 )
                  (  0.0000000  0.0000000  1.0000000 )


      isym =  2     inv. 180 deg rotation - cryst. axis [1,1,0]  

 cryst.   s( 2) = (     0         -1          0      )
                  (    -1          0          0      )
                  (     0          0          1      )

 cart.    s( 2) = (  0.5000000 -0.8660254  0.0000000 )
                  ( -0.8660254 -0.5000000  0.0000000 )
                  (  0.0000000  0.0000000  1.0000000 )


     point group C_s (m)    
     there are  2 classes
     the character table:

       E     s    
A'     1.00  1.00
A''    1.00 -1.00

     the symmetry operations in each class and the name of the first element:

     E        1
          identity                                               
     s        2
          inv. 180 deg rotation - cryst. axis [1,1,0]            

   Cartesian axes

     site n.     atom                  positions (alat units)
         1           H   tau(   1) = (   0.3000000   0.4041452   0.2109279  )
         2           H   tau(   2) = (   0.3000000   0.4041452   0.2719406  )
         3           C   tau(   3) = (   0.0000000   0.0000000   0.0000000  )
         4           C   tau(   4) = (   0.0000000   0.1154701   0.0000000  )
         5           C   tau(   5) = (  -0.1000000   0.1732051   0.0000000  )
         6           C   tau(   6) = (  -0.1000000   0.2886751   0.0000000  )
         7           C   tau(   7) = (  -0.2000000   0.3464102   0.0000000  )
         8           C   tau(   8) = (  -0.2000000   0.4618802   0.0000000  )
         9           C   tau(   9) = (  -0.3000000   0.5196152   0.0000000  )
        10           C   tau(  10) = (  -0.3000000   0.6350853   0.0000000  )
        11           C   tau(  11) = (  -0.4000000   0.6928203   0.0000000  )
        12           C   tau(  12) = (  -0.4000000   0.8082904   0.0000000  )
        13           C   tau(  13) = (   0.2000000   0.0000000   0.0000000  )
        14           C   tau(  14) = (   0.2000000   0.1154701   0.0000000  )
        15           C   tau(  15) = (   0.1000000   0.1732051   0.0000000  )
        16           C   tau(  16) = (   0.1000000   0.2886751   0.0000000  )
        17           C   tau(  17) = (   0.0000000   0.3464102   0.0000000  )
        18           C   tau(  18) = (   0.0000000   0.4618802   0.0000000  )
        19           C   tau(  19) = (  -0.1000000   0.5196152   0.0000000  )
        20           C   tau(  20) = (  -0.1000000   0.6350853   0.0000000  )
        21           C   tau(  21) = (  -0.2000000   0.6928203   0.0000000  )
        22           C   tau(  22) = (  -0.2000000   0.8082904   0.0000000  )
        23           C   tau(  23) = (   0.4000000   0.0000000   0.0000000  )
        24           C   tau(  24) = (   0.4000000   0.1154701   0.0000000  )
        25           C   tau(  25) = (   0.3000000   0.1732051   0.0000000  )
        26           C   tau(  26) = (   0.3000000   0.2886751   0.0000000  )
        27           C   tau(  27) = (   0.2000000   0.3464102   0.0000000  )
        28           Mn  tau(  28) = (   0.2000000   0.4618802   0.0000000  )
        29           C   tau(  29) = (   0.1000000   0.5196152   0.0000000  )
        30           C   tau(  30) = (   0.1000000   0.6350853   0.0000000  )
        31           C   tau(  31) = (   0.0000000   0.6928203   0.0000000  )
        32           C   tau(  32) = (   0.0000000   0.8082904   0.0000000  )
        33           C   tau(  33) = (   0.6000000   0.0000000   0.0000000  )
        34           C   tau(  34) = (   0.6000000   0.1154701   0.0000000  )
        35           C   tau(  35) = (   0.5000000   0.1732051   0.0000000  )
        36           C   tau(  36) = (   0.5000000   0.2886751   0.0000000  )
        37           C   tau(  37) = (   0.4000000   0.3464102   0.0000000  )
        38           C   tau(  38) = (   0.4000000   0.4618802   0.0000000  )
        39           C   tau(  39) = (   0.3000000   0.5196152   0.0000000  )
        40           C   tau(  40) = (   0.3000000   0.6350853   0.0000000  )
        41           C   tau(  41) = (   0.2000000   0.6928203   0.0000000  )
        42           C   tau(  42) = (   0.2000000   0.8082904   0.0000000  )
        43           C   tau(  43) = (   0.8000000   0.0000000   0.0000000  )
        44           C   tau(  44) = (   0.8000000   0.1154701   0.0000000  )
        45           C   tau(  45) = (   0.7000000   0.1732051   0.0000000  )
        46           C   tau(  46) = (   0.7000000   0.2886751   0.0000000  )
        47           C   tau(  47) = (   0.6000000   0.3464102   0.0000000  )
        48           C   tau(  48) = (   0.6000000   0.4618802   0.0000000  )
        49           C   tau(  49) = (   0.5000000   0.5196152   0.0000000  )
        50           C   tau(  50) = (   0.5000000   0.6350853   0.0000000  )
        51           C   tau(  51) = (   0.4000000   0.6928203   0.0000000  )
        52           C   tau(  52) = (   0.4000000   0.8082904   0.0000000  )

   Crystallographic axes

     site n.     atom                  positions (cryst. coord.)
         1           H   tau(   1) = (  0.5333333  0.4666667  0.2600000  )
         2           H   tau(   2) = (  0.5333333  0.4666667  0.3352072  )
         3           C   tau(   3) = (  0.0000000  0.0000000  0.0000000  )
         4           C   tau(   4) = (  0.0666667  0.1333333  0.0000000  )
         5           C   tau(   5) = (  0.0000000  0.2000000  0.0000000  )
         6           C   tau(   6) = (  0.0666667  0.3333333  0.0000000  )
         7           C   tau(   7) = (  0.0000000  0.4000000  0.0000000  )
         8           C   tau(   8) = (  0.0666667  0.5333333  0.0000000  )
         9           C   tau(   9) = (  0.0000000  0.6000000  0.0000000  )
        10           C   tau(  10) = (  0.0666667  0.7333333  0.0000000  )
        11           C   tau(  11) = (  0.0000000  0.8000000  0.0000000  )
        12           C   tau(  12) = (  0.0666667  0.9333333  0.0000000  )
        13           C   tau(  13) = (  0.2000000  0.0000000  0.0000000  )
        14           C   tau(  14) = (  0.2666667  0.1333333  0.0000000  )
        15           C   tau(  15) = (  0.2000000  0.2000000  0.0000000  )
        16           C   tau(  16) = (  0.2666667  0.3333333  0.0000000  )
        17           C   tau(  17) = (  0.2000000  0.4000000  0.0000000  )
        18           C   tau(  18) = (  0.2666667  0.5333333  0.0000000  )
        19           C   tau(  19) = (  0.2000000  0.6000000  0.0000000  )
        20           C   tau(  20) = (  0.2666667  0.7333333  0.0000000  )
        21           C   tau(  21) = (  0.2000000  0.8000000  0.0000000  )
        22           C   tau(  22) = (  0.2666667  0.9333333  0.0000000  )
        23           C   tau(  23) = (  0.4000000  0.0000000  0.0000000  )
        24           C   tau(  24) = (  0.4666667  0.1333333  0.0000000  )
        25           C   tau(  25) = (  0.4000000  0.2000000  0.0000000  )
        26           C   tau(  26) = (  0.4666667  0.3333333  0.0000000  )
        27           C   tau(  27) = (  0.4000000  0.4000000  0.0000000  )
        28           Mn  tau(  28) = (  0.4666667  0.5333333  0.0000000  )
        29           C   tau(  29) = (  0.4000000  0.6000000  0.0000000  )
        30           C   tau(  30) = (  0.4666667  0.7333333  0.0000000  )
        31           C   tau(  31) = (  0.4000000  0.8000000  0.0000000  )
        32           C   tau(  32) = (  0.4666667  0.9333333  0.0000000  )
        33           C   tau(  33) = (  0.6000000  0.0000000  0.0000000  )
        34           C   tau(  34) = (  0.6666667  0.1333333  0.0000000  )
        35           C   tau(  35) = (  0.6000000  0.2000000  0.0000000  )
        36           C   tau(  36) = (  0.6666667  0.3333333  0.0000000  )
        37           C   tau(  37) = (  0.6000000  0.4000000  0.0000000  )
        38           C   tau(  38) = (  0.6666667  0.5333333  0.0000000  )
        39           C   tau(  39) = (  0.6000000  0.6000000  0.0000000  )
        40           C   tau(  40) = (  0.6666667  0.7333333  0.0000000  )
        41           C   tau(  41) = (  0.6000000  0.8000000  0.0000000  )
        42           C   tau(  42) = (  0.6666667  0.9333333  0.0000000  )
        43           C   tau(  43) = (  0.8000000  0.0000000  0.0000000  )
        44           C   tau(  44) = (  0.8666667  0.1333333  0.0000000  )
        45           C   tau(  45) = (  0.8000000  0.2000000  0.0000000  )
        46           C   tau(  46) = (  0.8666667  0.3333333  0.0000000  )
        47           C   tau(  47) = (  0.8000000  0.4000000  0.0000000  )
        48           C   tau(  48) = (  0.8666667  0.5333333  0.0000000  )
        49           C   tau(  49) = (  0.8000000  0.6000000  0.0000000  )
        50           C   tau(  50) = (  0.8666667  0.7333333  0.0000000  )
        51           C   tau(  51) = (  0.8000000  0.8000000  0.0000000  )
        52           C   tau(  52) = (  0.8666667  0.9333333  0.0000000  )

     number of k points=     1  Marzari-Vanderbilt smearing, width (Ry)=  0.0010
                       cart. coord. in units 2pi/alat
        k(    1) = (   0.0000000   0.0000000   0.0000000), wk =   1.0000000

                       cryst. coord.
        k(    1) = (   0.0000000   0.0000000   0.0000000), wk =   1.0000000

     Dense  grid:  1626001 G-vectors     FFT dimensions: ( 180, 180, 135)

     Smooth grid:   702581 G-vectors     FFT dimensions: ( 125, 125, 108)

     Dynamical RAM for                 wfc:      28.59 MB

     Dynamical RAM for     wfc (w. buffer):      85.76 MB

     Dynamical RAM for           str. fact:      12.41 MB

     Dynamical RAM for           local pot:       0.00 MB

     Dynamical RAM for          nlocal pot:      92.46 MB

     Dynamical RAM for                qrad:      19.73 MB

     Dynamical RAM for          rho,v,vnew:      58.92 MB

     Dynamical RAM for               rhoin:      19.64 MB

     Dynamical RAM for            rho*nmix:     132.32 MB

     Dynamical RAM for           G-vectors:      16.40 MB

     Dynamical RAM for          h,s,v(r/c):      12.00 MB

     Dynamical RAM for          <psi|beta>:       0.81 MB

     Dynamical RAM for                 psi:     114.35 MB

     Dynamical RAM for                hpsi:     114.35 MB

     Dynamical RAM for                spsi:     114.35 MB

     Dynamical RAM for      wfcinit/wfcrot:      93.90 MB

     Dynamical RAM for           addusdens:     975.89 MB

     Estimated static dynamical RAM per process >     488.30 MB

     Estimated max dynamical RAM per process >       1.43 GB

     Estimated total dynamical RAM >       8.58 GB
     Generating pointlists ...
     new r_m :   0.0252 (alat units)  0.5862 (a.u.) for type    1
     new r_m :   0.0476 (alat units)  1.1095 (a.u.) for type    2
     new r_m :   0.0476 (alat units)  1.1095 (a.u.) for type    3

     Check: negative core charge=   -0.000002

     Initial potential from superposition of free atoms

     starting charge  212.80506, renormalised to  213.00000

     negative rho (up, down):  7.080E-05 1.048E-02


---------------------------------------------------------------------------------
Carrying out rVV10 run using the following parameters:
Nqs =      20    Nr_points =    1024   r_max =   100.000
b_value =  6.30000    beta =  0.00901
     q_mesh =  0.00010000  0.00030000  0.00058939  0.00100810
               0.00161396  0.00249058  0.00375900  0.00559430
               0.00824984  0.01209221  0.01765183  0.02569619
               0.03733578  0.05417739  0.07854596  0.11380545
               0.16482331  0.23864234  0.34545298  0.50000000

Gradients computed in Reciprocal space

---------------------------------------------------------------------------------


     Starting wfcs are  208 randomized atomic wfcs

     total cpu time spent up to now is       80.0 secs

     Self-consistent Calculation

     iteration #  1     ecut=    70.00 Ry     beta= 0.70
     Davidson diagonalization with overlap
     ethr =  1.00E-02,  avg # of iterations =  2.5

     negative rho (up, down):  1.469E-04 1.031E-02

     total cpu time spent up to now is      224.9 secs

     total energy              =    -822.12682798 Ry
     Harris-Foulkes estimate   =    -824.93407758 Ry
     estimated scf accuracy    <      11.01202741 Ry

     total magnetization       =     7.00 Bohr mag/cell
     absolute magnetization    =     7.40 Bohr mag/cell

     iteration #  2     ecut=    70.00 Ry     beta= 0.70
     Davidson diagonalization with overlap
     ethr =  5.17E-03,  avg # of iterations =  6.5

     negative rho (up, down):  1.792E-04 1.122E-02

     total cpu time spent up to now is      350.7 secs

     total energy              =    -812.70563437 Ry
     Harris-Foulkes estimate   =    -833.32577525 Ry
     estimated scf accuracy    <      87.44678868 Ry

     total magnetization       =     3.66 Bohr mag/cell
     absolute magnetization    =     3.81 Bohr mag/cell

     iteration #  3     ecut=    70.00 Ry     beta= 0.70
     Davidson diagonalization with overlap
     ethr =  5.17E-03,  avg # of iterations =  5.5

     negative rho (up, down):  2.246E-04 8.380E-03

     total cpu time spent up to now is      527.4 secs

     total energy              =    -823.80757843 Ry
     Harris-Foulkes estimate   =    -827.24965808 Ry
     estimated scf accuracy    <      19.59891163 Ry

     total magnetization       =     7.00 Bohr mag/cell
     absolute magnetization    =     7.06 Bohr mag/cell

     iteration #  4     ecut=    70.00 Ry     beta= 0.70
     Davidson diagonalization with overlap
     ethr =  5.17E-03,  avg # of iterations =  3.5

     negative rho (up, down):  2.620E-04 9.371E-03

     total cpu time spent up to now is      627.9 secs

     total energy              =    -825.28543643 Ry
     Harris-Foulkes estimate   =    -826.44570662 Ry
     estimated scf accuracy    <       3.45383857 Ry

     total magnetization       =     3.00 Bohr mag/cell
     absolute magnetization    =     3.39 Bohr mag/cell

     iteration #  5     ecut=    70.00 Ry     beta= 0.70
     Davidson diagonalization with overlap
     ethr =  1.62E-03,  avg # of iterations =  4.5

     negative rho (up, down):  3.301E-04 1.615E-02

     total cpu time spent up to now is      739.0 secs

     total energy              =    -825.73995051 Ry
     Harris-Foulkes estimate   =    -825.99433869 Ry
     estimated scf accuracy    <       1.06899114 Ry

     total magnetization       =     3.00 Bohr mag/cell
     absolute magnetization    =     3.27 Bohr mag/cell

     iteration #  6     ecut=    70.00 Ry     beta= 0.70
     Davidson diagonalization with overlap
     ethr =  5.02E-04,  avg # of iterations =  3.0

     negative rho (up, down):  5.669E-04 7.416E-03

     total cpu time spent up to now is      840.3 secs

     total energy              =    -825.91770672 Ry
     Harris-Foulkes estimate   =    -825.95585515 Ry
     estimated scf accuracy    <       0.15241649 Ry

     total magnetization       =     3.00 Bohr mag/cell
     absolute magnetization    =     3.36 Bohr mag/cell

     iteration #  7     ecut=    70.00 Ry     beta= 0.70
     Davidson diagonalization with overlap
     ethr =  7.16E-05,  avg # of iterations =  8.0

     negative rho (up, down):  5.923E-04 7.346E-03

     total cpu time spent up to now is      958.3 secs

     total energy              =    -825.93157391 Ry
     Harris-Foulkes estimate   =    -825.94732228 Ry
     estimated scf accuracy    <       0.05545744 Ry

     total magnetization       =     3.00 Bohr mag/cell
     absolute magnetization    =     3.50 Bohr mag/cell

     iteration #  8     ecut=    70.00 Ry     beta= 0.70
     Davidson diagonalization with overlap
     ethr =  2.60E-05,  avg # of iterations =  4.0

     negative rho (up, down):  5.792E-04 8.697E-03

     total cpu time spent up to now is     1065.3 secs

     total energy              =    -825.94001530 Ry
     Harris-Foulkes estimate   =    -825.94336544 Ry
     estimated scf accuracy    <       0.02281417 Ry

     total magnetization       =     3.00 Bohr mag/cell
     absolute magnetization    =     3.60 Bohr mag/cell

     iteration #  9     ecut=    70.00 Ry     beta= 0.70
     Davidson diagonalization with overlap
     ethr =  1.07E-05,  avg # of iterations =  3.5

     negative rho (up, down):  5.925E-04 8.947E-03

     total cpu time spent up to now is     1165.7 secs

     total energy              =    -825.94289406 Ry
     Harris-Foulkes estimate   =    -825.94305917 Ry
     estimated scf accuracy    <       0.00323894 Ry

     total magnetization       =     3.00 Bohr mag/cell
     absolute magnetization    =     3.73 Bohr mag/cell

     iteration # 10     ecut=    70.00 Ry     beta= 0.70
     Davidson diagonalization with overlap
     ethr =  1.52E-06,  avg # of iterations =  5.0

     negative rho (up, down):  6.147E-04 8.343E-03

     total cpu time spent up to now is     1287.3 secs

     total energy              =    -825.94374150 Ry
     Harris-Foulkes estimate   =    -825.94399031 Ry
     estimated scf accuracy    <       0.00154565 Ry

     total magnetization       =     3.00 Bohr mag/cell
     absolute magnetization    =     3.90 Bohr mag/cell

     iteration # 11     ecut=    70.00 Ry     beta= 0.70
     Davidson diagonalization with overlap
     ethr =  7.26E-07,  avg # of iterations =  3.0

     negative rho (up, down):  6.296E-04 7.955E-03

     total cpu time spent up to now is     1393.3 secs

     total energy              =    -825.94419812 Ry
     Harris-Foulkes estimate   =    -825.94409307 Ry
     estimated scf accuracy    <       0.00019294 Ry

     total magnetization       =     3.00 Bohr mag/cell
     absolute magnetization    =     3.98 Bohr mag/cell

     iteration # 12     ecut=    70.00 Ry     beta= 0.70
     Davidson diagonalization with overlap
     ethr =  9.06E-08,  avg # of iterations =  3.0

     negative rho (up, down):  6.340E-04 7.842E-03

     total cpu time spent up to now is     1515.8 secs

     total energy              =    -825.94431784 Ry
     Harris-Foulkes estimate   =    -825.94428074 Ry
     estimated scf accuracy    <       0.00005190 Ry

     total magnetization       =     3.00 Bohr mag/cell
     absolute magnetization    =     4.09 Bohr mag/cell

     iteration # 13     ecut=    70.00 Ry     beta= 0.70
     Davidson diagonalization with overlap
     ethr =  2.44E-08,  avg # of iterations =  3.0

     negative rho (up, down):  6.373E-04 7.769E-03

     total cpu time spent up to now is     1643.4 secs

     total energy              =    -825.94436845 Ry
     Harris-Foulkes estimate   =    -825.94434256 Ry
     estimated scf accuracy    <       0.00001867 Ry

     total magnetization       =     3.00 Bohr mag/cell
     absolute magnetization    =     4.16 Bohr mag/cell

     iteration # 14     ecut=    70.00 Ry     beta= 0.70
     Davidson diagonalization with overlap
     ethr =  8.76E-09,  avg # of iterations =  3.0

     negative rho (up, down):  6.379E-04 7.759E-03

     total cpu time spent up to now is     1774.1 secs

     total energy              =    -825.94439270 Ry
     Harris-Foulkes estimate   =    -825.94438502 Ry
     estimated scf accuracy    <       0.00001073 Ry

     total magnetization       =     3.00 Bohr mag/cell
     absolute magnetization    =     4.22 Bohr mag/cell

     iteration # 15     ecut=    70.00 Ry     beta= 0.70
     Davidson diagonalization with overlap
     ethr =  5.04E-09,  avg # of iterations =  3.5

     negative rho (up, down):  6.377E-04 7.773E-03

     total cpu time spent up to now is     1904.9 secs

     total energy              =    -825.94440328 Ry
     Harris-Foulkes estimate   =    -825.94440093 Ry
     estimated scf accuracy    <       0.00000543 Ry

     total magnetization       =     3.00 Bohr mag/cell
     absolute magnetization    =     4.26 Bohr mag/cell

     iteration # 16     ecut=    70.00 Ry     beta= 0.70
     Davidson diagonalization with overlap
     ethr =  2.55E-09,  avg # of iterations =  3.0

     negative rho (up, down):  6.370E-04 7.826E-03

     total cpu time spent up to now is     2035.8 secs

     total energy              =    -825.94440846 Ry
     Harris-Foulkes estimate   =    -825.94440824 Ry
     estimated scf accuracy    <       0.00000221 Ry

     total magnetization       =     3.00 Bohr mag/cell
     absolute magnetization    =     4.30 Bohr mag/cell

     iteration # 17     ecut=    70.00 Ry     beta= 0.70
     Davidson diagonalization with overlap
     ethr =  1.04E-09,  avg # of iterations =  3.0

     negative rho (up, down):  6.368E-04 7.848E-03

     Magnetic moment per site:
     atom:    1    charge:    0.2108    magn:   -0.0000    constr:    0.0000
     atom:    2    charge:    0.2115    magn:    0.0021    constr:    0.0000
     atom:    3    charge:    1.7170    magn:   -0.0127    constr:    0.0000
     atom:    4    charge:    1.7156    magn:    0.0179    constr:    0.0000
     atom:    5    charge:    1.7176    magn:   -0.0097    constr:    0.0000
     atom:    6    charge:    1.7142    magn:    0.0062    constr:    0.0000
     atom:    7    charge:    1.7177    magn:   -0.0097    constr:    0.0000
     atom:    8    charge:    1.7156    magn:    0.0179    constr:    0.0000
     atom:    9    charge:    1.7170    magn:   -0.0127    constr:    0.0000
     atom:   10    charge:    1.7155    magn:    0.0575    constr:    0.0000
     atom:   11    charge:    1.7174    magn:   -0.0179    constr:    0.0000
     atom:   12    charge:    1.7155    magn:    0.0575    constr:    0.0000
     atom:   13    charge:    1.7174    magn:   -0.0179    constr:    0.0000
     atom:   14    charge:    1.7159    magn:    0.0460    constr:    0.0000
     atom:   15    charge:    1.7144    magn:   -0.0147    constr:    0.0000
     atom:   16    charge:    1.7123    magn:    0.0615    constr:    0.0000
     atom:   17    charge:    1.7236    magn:   -0.0140    constr:    0.0000
     atom:   18    charge:    1.7123    magn:    0.0616    constr:    0.0000
     atom:   19    charge:    1.7144    magn:   -0.0148    constr:    0.0000
     atom:   20    charge:    1.7159    magn:    0.0460    constr:    0.0000
     atom:   21    charge:    1.7175    magn:   -0.0179    constr:    0.0000
     atom:   22    charge:    1.7155    magn:    0.0575    constr:    0.0000
     atom:   23    charge:    1.7170    magn:   -0.0127    constr:    0.0000
     atom:   24    charge:    1.7156    magn:    0.0179    constr:    0.0000
     atom:   25    charge:    1.7143    magn:   -0.0146    constr:    0.0000
     atom:   26    charge:    1.7125    magn:    0.0612    constr:    0.0000
     atom:   27    charge:    1.8740    magn:   -0.0299    constr:    0.0000
     atom:   28    charge:   10.0209    magn:    0.7900    constr:    0.0000
     atom:   29    charge:    1.8739    magn:   -0.0300    constr:    0.0000
     atom:   30    charge:    1.7123    magn:    0.0616    constr:    0.0000
     atom:   31    charge:    1.7144    magn:   -0.0148    constr:    0.0000
     atom:   32    charge:    1.7156    magn:    0.0179    constr:    0.0000
     atom:   33    charge:    1.7177    magn:   -0.0097    constr:    0.0000
     atom:   34    charge:    1.7142    magn:    0.0125    constr:    0.0000
     atom:   35    charge:    1.7177    magn:   -0.0097    constr:    0.0000
     atom:   36    charge:    1.7142    magn:    0.0062    constr:    0.0000
     atom:   37    charge:    1.7236    magn:   -0.0140    constr:    0.0000
     atom:   38    charge:    1.7125    magn:    0.0612    constr:    0.0000
     atom:   39    charge:    1.8740    magn:   -0.0299    constr:    0.0000
     atom:   40    charge:    1.7123    magn:    0.0615    constr:    0.0000
     atom:   41    charge:    1.7236    magn:   -0.0140    constr:    0.0000
     atom:   42    charge:    1.7142    magn:    0.0062    constr:    0.0000
     atom:   43    charge:    1.7176    magn:   -0.0097    constr:    0.0000
     atom:   44    charge:    1.7142    magn:    0.0125    constr:    0.0000
     atom:   45    charge:    1.7233    magn:   -0.0069    constr:    0.0000
     atom:   46    charge:    1.7142    magn:    0.0125    constr:    0.0000
     atom:   47    charge:    1.7177    magn:   -0.0097    constr:    0.0000
     atom:   48    charge:    1.7156    magn:    0.0179    constr:    0.0000
     atom:   49    charge:    1.7143    magn:   -0.0146    constr:    0.0000
     atom:   50    charge:    1.7159    magn:    0.0460    constr:    0.0000
     atom:   51    charge:    1.7144    magn:   -0.0147    constr:    0.0000
     atom:   52    charge:    1.7156    magn:    0.0179    constr:    0.0000

     total cpu time spent up to now is     2156.6 secs

     End of self-consistent calculation

 ------ SPIN UP ------------


          k = 0.0000 0.0000 0.0000 ( 87777 PWs)   bands (ev):

   -80.7247 -50.2285 -50.2282 -49.1457 -19.7833 -18.9474 -18.9472 -18.8561
   -18.8364 -18.8353 -18.4930 -17.0852 -17.0848 -17.0791 -17.0010 -17.0000
   -16.6889 -16.2401 -16.2400 -16.1319 -16.0712 -16.0703 -15.3702 -14.1303
   -14.1295 -14.0634 -13.9976 -13.9972 -13.3318 -13.0719 -13.0712 -13.0442
   -12.7425 -12.7417 -12.3245 -11.8497 -11.8494 -11.6655 -11.3901 -11.3897
   -10.4769  -9.6821  -9.6821  -9.4442  -9.3256  -9.3253  -9.2313  -9.2040
    -9.2040  -9.1897  -8.7007  -8.7004  -8.1736  -8.1732  -8.0679  -7.9575
    -7.8385  -7.4340  -7.4329  -7.2584  -7.2018  -7.1999  -6.9268  -6.9256
    -6.8856  -6.8365  -6.8317  -6.7200  -6.6984  -6.5690  -6.5682  -6.5378
    -6.5279  -6.5277  -6.4823  -6.3161  -5.6516  -5.6398  -5.5305  -5.5301
    -5.3271  -5.3268  -5.0416  -4.9883  -4.8888  -4.7556  -4.7351  -4.7316
    -4.4078  -4.2367  -4.2366  -4.2250  -4.2249  -3.8953  -3.8932  -3.7975
    -3.6746  -3.6746  -3.1528  -2.7639  -2.7628  -1.9066  -1.8090  -1.8085
    -1.4545  -1.1256  -1.1227  -0.8641   0.8953   0.9556   0.9592   1.5589
     1.5599   1.5704   2.5070   2.7493   2.7517   2.8467   3.0149   3.0201
     3.4511   3.4663   3.4685   3.6381   3.6832   3.7241   3.7405   3.7427

     occupation numbers 
     1.0000   1.0000   1.0000   1.0000   1.0000   1.0000   1.0000   1.0000
     1.0000   1.0000   1.0000   1.0000   1.0000   1.0000   1.0000   1.0000
     1.0000   1.0000   1.0000   1.0000   1.0000   1.0000   1.0000   1.0000
     1.0000   1.0000   1.0000   1.0000   1.0000   1.0000   1.0000   1.0000
     1.0000   1.0000   1.0000   1.0000   1.0000   1.0000   1.0000   1.0000
     1.0000   1.0000   1.0000   1.0000   1.0000   1.0000   1.0000   1.0000
     1.0000   1.0000   1.0000   1.0000   1.0000   1.0000   1.0000   1.0000
     1.0000   1.0000   1.0000   1.0000   1.0000   1.0000   1.0000   1.0000
     1.0000   1.0000   1.0000   1.0000   1.0000   1.0000   1.0000   1.0000
     1.0000   1.0000   1.0000   1.0000   1.0000   1.0000   1.0000   1.0000
     1.0000   1.0000   1.0000   1.0000   1.0000   1.0000   1.0000   1.0000
     1.0000   1.0000   1.0000   1.0000   1.0000   1.0000   1.0000   1.0000
     1.0000   1.0000   1.0000   1.0000   1.0000   1.0000   1.0000   1.0000
     1.0000   1.0000   1.0000   1.0000   0.0000   0.0000   0.0000   0.0000
     0.0000   0.0000   0.0000   0.0000   0.0000   0.0000   0.0000   0.0000
     0.0000   0.0000   0.0000   0.0000   0.0000   0.0000   0.0000   0.0000

 ------ SPIN DOWN ----------


          k = 0.0000 0.0000 0.0000 ( 87777 PWs)   bands (ev):

   -79.3789 -49.1536 -49.1531 -47.3730 -19.7417 -18.8992 -18.8992 -18.8187
   -18.8100 -18.8087 -18.4280 -17.0499 -17.0480 -17.0475 -16.9452 -16.9442
   -16.6594 -16.1901 -16.1899 -16.1009 -16.0277 -16.0267 -15.3394 -14.0571
   -14.0562 -13.9950 -13.9875 -13.9871 -13.3384 -13.0455 -13.0448 -13.0115
   -12.7235 -12.7226 -12.2874 -11.8076 -11.8074 -11.6406 -11.3660 -11.3655
   -10.4392  -9.6140  -9.6140  -9.4134  -9.2908  -9.2904  -9.2152  -9.1795
    -9.1795  -9.1722  -8.6848  -8.6846  -8.1237  -8.1234  -8.0366  -7.8601
    -7.8205  -7.4178  -7.4167  -7.1442  -7.0772  -7.0065  -6.8645  -6.8637
    -6.8008  -6.7749  -6.7503  -6.7040  -6.6259  -6.5497  -6.5490  -6.5265
    -6.5149  -6.5146  -6.4651  -6.2157  -5.4922  -5.4920  -5.3642  -5.3499
    -5.2498  -5.2495  -4.9748  -4.8775  -4.6895  -4.6809  -4.6439  -4.6409
    -4.3319  -4.1065  -4.1061  -4.0176  -4.0171  -3.7595  -3.7575  -3.7104
    -3.6557  -3.6557  -3.0806  -2.5048  -2.5032  -1.7840  -1.7836  -1.7372
    -0.8295  -0.5267  -0.5239  -0.0548   0.9974   1.0013   1.0518   1.7338
     1.7383   1.7391   2.5371   2.8857   2.8891   2.9155   3.2986   3.3148
     3.6168   3.6485   3.6529   3.6896   3.7214   3.7503   3.7537   3.7589

     occupation numbers 
     1.0000   1.0000   1.0000   1.0000   1.0000   1.0000   1.0000   1.0000
     1.0000   1.0000   1.0000   1.0000   1.0000   1.0000   1.0000   1.0000
     1.0000   1.0000   1.0000   1.0000   1.0000   1.0000   1.0000   1.0000
     1.0000   1.0000   1.0000   1.0000   1.0000   1.0000   1.0000   1.0000
     1.0000   1.0000   1.0000   1.0000   1.0000   1.0000   1.0000   1.0000
     1.0000   1.0000   1.0000   1.0000   1.0000   1.0000   1.0000   1.0000
     1.0000   1.0000   1.0000   1.0000   1.0000   1.0000   1.0000   1.0000
     1.0000   1.0000   1.0000   1.0000   1.0000   1.0000   1.0000   1.0000
     1.0000   1.0000   1.0000   1.0000   1.0000   1.0000   1.0000   1.0000
     1.0000   1.0000   1.0000   1.0000   1.0000   1.0000   1.0000   1.0000
     1.0000   1.0000   1.0000   1.0000   1.0000   1.0000   1.0000   1.0000
     1.0000   1.0000   1.0000   1.0000   1.0000   1.0000   1.0000   1.0000
     1.0000   1.0000   1.0000   1.0000   1.0000   1.0000   1.0000   1.0000
     1.0000   0.0000   0.0000   0.0000   0.0000   0.0000   0.0000   0.0000
     0.0000   0.0000   0.0000   0.0000   0.0000   0.0000   0.0000   0.0000
     0.0000   0.0000   0.0000   0.0000   0.0000   0.0000   0.0000   0.0000

     the Fermi energy is    -0.6720 ev

!    total energy              =    -825.94440948 Ry
     Harris-Foulkes estimate   =    -825.94440952 Ry
     estimated scf accuracy    <       0.00000050 Ry

     The total energy is the sum of the following terms:

     one-electron contribution =   -2722.86551791 Ry
     hartree contribution      =    1406.21906654 Ry
     xc contribution           =    -259.65409516 Ry
     ewald contribution        =     750.35613705 Ry
     smearing contrib. (-TS)   =       0.00000000 Ry

     total magnetization       =     3.00 Bohr mag/cell
     absolute magnetization    =     4.31 Bohr mag/cell

     convergence has been achieved in  17 iterations

     Writing output data file distance-2.6.save/

     init_run     :     77.23s CPU     78.80s WALL (       1 calls)
     electrons    :   2043.44s CPU   2076.76s WALL (       1 calls)

     Called by init_run:
     wfcinit      :     47.95s CPU     48.33s WALL (       1 calls)
     wfcinit:atom :      0.06s CPU      0.10s WALL (       2 calls)
     wfcinit:wfcr :     47.49s CPU     47.76s WALL (       2 calls)
     potinit      :     11.99s CPU     12.52s WALL (       1 calls)
     hinit0       :      6.44s CPU      6.48s WALL (       1 calls)

     Called by electrons:
     c_bands      :   1403.98s CPU   1411.12s WALL (      17 calls)
     sum_band     :    371.66s CPU    382.46s WALL (      17 calls)
     v_of_rho     :    136.79s CPU    143.47s WALL (      18 calls)
     v_h          :      1.39s CPU      1.43s WALL (      18 calls)
     v_xc         :    135.40s CPU    142.04s WALL (      18 calls)
     newd         :    136.95s CPU    146.43s WALL (      18 calls)
     mix_rho      :      7.53s CPU      7.65s WALL (      17 calls)

     Called by c_bands:
     init_us_2    :      3.44s CPU      3.47s WALL (      70 calls)
     cegterg      :   1395.18s CPU   1402.26s WALL (      34 calls)

     Called by sum_band:
     sum_band:bec :      0.03s CPU      0.03s WALL (      34 calls)
     addusdens    :    225.15s CPU    235.09s WALL (      17 calls)

     Called by *egterg:
     h_psi        :    721.48s CPU    726.44s WALL (     171 calls)
     s_psi        :    238.18s CPU    238.31s WALL (     171 calls)
     g_psi        :      0.85s CPU      0.85s WALL (     135 calls)
     cdiaghg      :     15.61s CPU     15.62s WALL (     169 calls)
     cegterg:over :    193.63s CPU    193.72s WALL (     135 calls)
     cegterg:upda :    127.17s CPU    127.86s WALL (     135 calls)
     cegterg:last :     75.29s CPU     75.33s WALL (      35 calls)

     Called by h_psi:
     h_psi:pot    :    720.64s CPU    724.72s WALL (     171 calls)
     h_psi:calbec :    239.71s CPU    239.85s WALL (     171 calls)
     vloc_psi     :    242.40s CPU    246.28s WALL (     171 calls)
     add_vuspsi   :    238.52s CPU    238.59s WALL (     171 calls)

     General routines
     calbec       :    325.50s CPU    325.69s WALL (     205 calls)
     fft          :     77.33s CPU     80.07s WALL (    1344 calls)
     ffts         :      1.43s CPU      1.47s WALL (      70 calls)
     fftw         :    249.06s CPU    253.08s WALL (   28490 calls)
     interpolate  :      3.26s CPU      3.35s WALL (      36 calls)

     Parallel routines
     fft_scatt_xy :     60.52s CPU     61.22s WALL (   29904 calls)
     fft_scatt_yz :    106.06s CPU    110.82s WALL (   29904 calls)

     PWSCF        :  35m22.05s CPU  35m57.42s WALL


   This run was terminated on:  16: 3: 6  10Aug2022            

=------------------------------------------------------------------------------=
   JOB DONE.
=------------------------------------------------------------------------------=
