
     Program PWSCF v.6.4.1 starts on  3Sep2022 at 19:32:54 

     This program is part of the open-source Quantum ESPRESSO suite
     for quantum simulation of materials; please cite
         "P. Giannozzi et al., J. Phys.:Condens. Matter 21 395502 (2009);
         "P. Giannozzi et al., J. Phys.:Condens. Matter 29 465901 (2017);
          URL http://www.quantum-espresso.org", 
     in publications or presentations arising from this work. More details at
     http://www.quantum-espresso.org/quote

     Parallel version (MPI), running on     6 processors

     MPI processes distributed on     1 nodes
     R & G space division:  proc/nbgrp/npool/nimage =       6
     Reading input from distance-5.0.in

     Current dimensions of program PWSCF are:
     Max number of different atomic species (ntypx) = 10
     Max number of k-points (npk) =  40000
     Max angular momentum in pseudopotentials (lmaxx) =  3

     IMPORTANT: XC functional enforced from input :
     Exchange-correlation      = RVV10 ( 1  4 13  4 3 0)
     Any further DFT definition will be discarded
     Please, verify this is what you really want

               file H.pbe-rrkjus.UPF: wavefunction(s)  1S renormalized
               file Mn.pbe-spn-rrkjus_psl.0.3.1.UPF: wavefunction(s)  3D renormalized

     Subspace diagonalization in iterative solution of the eigenvalue problem:
     a serial algorithm will be used


     Parallelization info
     --------------------
     sticks:   dense  smooth     PW     G-vecs:    dense   smooth      PW
     Min        3051    1746    432               270999   117096   14629
     Max        3053    1747    437               271001   117099   14630
     Sum       18313   10477   2611              1626001   702581   87777



     bravais-lattice index     =            4
     lattice parameter (alat)  =      23.2937  a.u.
     unit-cell volume          =    8879.8548 (a.u.)^3
     number of atoms/cell      =           52
     number of atomic types    =            3
     number of electrons       =       213.00
     number of Kohn-Sham states=          128
     kinetic-energy cutoff     =      70.0000  Ry
     charge density cutoff     =     490.0000  Ry
     convergence threshold     =      1.0E-06
     mixing beta               =       0.7000
     number of iterations used =            8  plain     mixing
     Exchange-correlation      = RVV10 ( 1  4 13  4 3 0)

     celldm(1)=  23.293684  celldm(2)=   0.000000  celldm(3)=   0.811261
     celldm(4)=   0.000000  celldm(5)=   0.000000  celldm(6)=   0.000000

     crystal axes: (cart. coord. in units of alat)
               a(1) = (   1.000000   0.000000   0.000000 )  
               a(2) = (  -0.500000   0.866025   0.000000 )  
               a(3) = (   0.000000   0.000000   0.811261 )  

     reciprocal axes: (cart. coord. in units 2 pi/alat)
               b(1) = (  1.000000  0.577350 -0.000000 )  
               b(2) = (  0.000000  1.154701  0.000000 )  
               b(3) = (  0.000000 -0.000000  1.232649 )  


     PseudoPot. # 1 for H  read from file:
     /home/cristian/Escritorio/Proyecto_Grafeno/pseudopotenciales/H.pbe-rrkjus.UPF
     MD5 check sum: 7cc9d459525c9a0585f487a71c3c9563
     Pseudo is Ultrasoft, Zval =  1.0
     Generated by new atomic code, or converted to UPF format
     Using radial grid of 1061 points,  2 beta functions with: 
                l(1) =   0
                l(2) =   0
     Q(r) pseudized with 0 coefficients 


     PseudoPot. # 2 for C  read from file:
     /home/cristian/Escritorio/Proyecto_Grafeno/pseudopotenciales/C.pbe-n-rrkjus_psl.1.0.0.UPF
     MD5 check sum: 1fdd950c42eb37d8afe3dd2f8d12311e
     Pseudo is Ultrasoft + core correction, Zval =  4.0
     Generated using "atomic" code by A. Dal Corso v.6.3MaX
     Using radial grid of 1073 points,  4 beta functions with: 
                l(1) =   0
                l(2) =   0
                l(3) =   1
                l(4) =   1
     Q(r) pseudized with 0 coefficients 


     PseudoPot. # 3 for Mn read from file:
     /home/cristian/Escritorio/Proyecto_Grafeno/pseudopotenciales/Mn.pbe-spn-rrkjus_psl.0.3.1.UPF
     MD5 check sum: e1cac159bdd2ba70c18e85765a5d4279
     Pseudo is Ultrasoft + core correction, Zval = 15.0
     Generated using "atomic" code by A. Dal Corso v.6.2.2
     Using radial grid of 1187 points,  6 beta functions with: 
                l(1) =   0
                l(2) =   0
                l(3) =   1
                l(4) =   1
                l(5) =   2
                l(6) =   2
     Q(r) pseudized with 0 coefficients 


     vdW kernel table read from file rVV10_kernel_table
     MD5 check sum: b8e2538accc0c0b3206b45ba4daaba6c

     atomic species   valence    mass     pseudopotential
        H              1.00     1.00794     H ( 1.00)
        C              4.00    12.01070     C ( 1.00)
        Mn            15.00    54.93804     Mn( 1.00)

      2 Sym. Ops. (no inversion) found


                                    s                        frac. trans.

      isym =  1     identity                                     

 cryst.   s( 1) = (     1          0          0      )
                  (     0          1          0      )
                  (     0          0          1      )

 cart.    s( 1) = (  1.0000000  0.0000000  0.0000000 )
                  (  0.0000000  1.0000000  0.0000000 )
                  (  0.0000000  0.0000000  1.0000000 )


      isym =  2     inv. 180 deg rotation - cart. axis [0,0,1]   

 cryst.   s( 2) = (     1          0          0      )
                  (     0          1          0      )
                  (     0          0         -1      )

 cart.    s( 2) = (  1.0000000  0.0000000  0.0000000 )
                  (  0.0000000  1.0000000  0.0000000 )
                  (  0.0000000  0.0000000 -1.0000000 )


     point group C_s (m)    
     there are  2 classes
     the character table:

       E     s    
A'     1.00  1.00
A''    1.00 -1.00

     the symmetry operations in each class and the name of the first element:

     E        1
          identity                                               
     s        2
          inv. 180 deg rotation - cart. axis [0,0,1]             

   Cartesian axes

     site n.     atom                  positions (alat units)
         1           H   tau(   1) = (   0.2194937   0.4330127   0.4056306  )
         2           H   tau(   2) = (   0.2805063   0.4330127   0.4056306  )
         3           C   tau(   3) = (   0.0000000   0.0000000   0.0000000  )
         4           C   tau(   4) = (   0.0000000   0.1154701   0.0000000  )
         5           C   tau(   5) = (  -0.1000000   0.1732051   0.0000000  )
         6           C   tau(   6) = (  -0.1000000   0.2886751   0.0000000  )
         7           C   tau(   7) = (  -0.2000000   0.3464102   0.0000000  )
         8           C   tau(   8) = (  -0.2000000   0.4618802   0.0000000  )
         9           C   tau(   9) = (  -0.3000000   0.5196152   0.0000000  )
        10           C   tau(  10) = (  -0.3000000   0.6350853   0.0000000  )
        11           C   tau(  11) = (  -0.4000000   0.6928203   0.0000000  )
        12           C   tau(  12) = (  -0.4000000   0.8082904   0.0000000  )
        13           C   tau(  13) = (   0.2000000   0.0000000   0.0000000  )
        14           C   tau(  14) = (   0.2000000   0.1154701   0.0000000  )
        15           C   tau(  15) = (   0.1000000   0.1732051   0.0000000  )
        16           C   tau(  16) = (   0.1000000   0.2886751   0.0000000  )
        17           C   tau(  17) = (   0.0000000   0.3464102   0.0000000  )
        18           C   tau(  18) = (   0.0000000   0.4618802   0.0000000  )
        19           C   tau(  19) = (  -0.1000000   0.5196152   0.0000000  )
        20           C   tau(  20) = (  -0.1000000   0.6350853   0.0000000  )
        21           C   tau(  21) = (  -0.2000000   0.6928203   0.0000000  )
        22           C   tau(  22) = (  -0.2000000   0.8082904   0.0000000  )
        23           C   tau(  23) = (   0.4000000   0.0000000   0.0000000  )
        24           C   tau(  24) = (   0.4000000   0.1154701   0.0000000  )
        25           C   tau(  25) = (   0.3000000   0.1732051   0.0000000  )
        26           C   tau(  26) = (   0.3000000   0.2886751   0.0000000  )
        27           C   tau(  27) = (   0.2000000   0.3464102   0.0000000  )
        28           Mn  tau(  28) = (   0.2000000   0.4618802   0.0000000  )
        29           C   tau(  29) = (   0.1000000   0.5196152   0.0000000  )
        30           C   tau(  30) = (   0.1000000   0.6350853   0.0000000  )
        31           C   tau(  31) = (   0.0000000   0.6928203   0.0000000  )
        32           C   tau(  32) = (   0.0000000   0.8082904   0.0000000  )
        33           C   tau(  33) = (   0.6000000   0.0000000   0.0000000  )
        34           C   tau(  34) = (   0.6000000   0.1154701   0.0000000  )
        35           C   tau(  35) = (   0.5000000   0.1732051   0.0000000  )
        36           C   tau(  36) = (   0.5000000   0.2886751   0.0000000  )
        37           C   tau(  37) = (   0.4000000   0.3464102   0.0000000  )
        38           C   tau(  38) = (   0.4000000   0.4618802   0.0000000  )
        39           C   tau(  39) = (   0.3000000   0.5196152   0.0000000  )
        40           C   tau(  40) = (   0.3000000   0.6350853   0.0000000  )
        41           C   tau(  41) = (   0.2000000   0.6928203   0.0000000  )
        42           C   tau(  42) = (   0.2000000   0.8082904   0.0000000  )
        43           C   tau(  43) = (   0.8000000   0.0000000   0.0000000  )
        44           C   tau(  44) = (   0.8000000   0.1154701   0.0000000  )
        45           C   tau(  45) = (   0.7000000   0.1732051   0.0000000  )
        46           C   tau(  46) = (   0.7000000   0.2886751   0.0000000  )
        47           C   tau(  47) = (   0.6000000   0.3464102   0.0000000  )
        48           C   tau(  48) = (   0.6000000   0.4618802   0.0000000  )
        49           C   tau(  49) = (   0.5000000   0.5196152   0.0000000  )
        50           C   tau(  50) = (   0.5000000   0.6350853   0.0000000  )
        51           C   tau(  51) = (   0.4000000   0.6928203   0.0000000  )
        52           C   tau(  52) = (   0.4000000   0.8082904   0.0000000  )

   Crystallographic axes

     site n.     atom                  positions (cryst. coord.)
         1           H   tau(   1) = (  0.4694937  0.5000000  0.5000000  )
         2           H   tau(   2) = (  0.5305063  0.5000000  0.5000000  )
         3           C   tau(   3) = (  0.0000000  0.0000000  0.0000000  )
         4           C   tau(   4) = (  0.0666667  0.1333333  0.0000000  )
         5           C   tau(   5) = (  0.0000000  0.2000000  0.0000000  )
         6           C   tau(   6) = (  0.0666667  0.3333333  0.0000000  )
         7           C   tau(   7) = (  0.0000000  0.4000000  0.0000000  )
         8           C   tau(   8) = (  0.0666667  0.5333333  0.0000000  )
         9           C   tau(   9) = (  0.0000000  0.6000000  0.0000000  )
        10           C   tau(  10) = (  0.0666667  0.7333333  0.0000000  )
        11           C   tau(  11) = (  0.0000000  0.8000000  0.0000000  )
        12           C   tau(  12) = (  0.0666667  0.9333333  0.0000000  )
        13           C   tau(  13) = (  0.2000000  0.0000000  0.0000000  )
        14           C   tau(  14) = (  0.2666667  0.1333333  0.0000000  )
        15           C   tau(  15) = (  0.2000000  0.2000000  0.0000000  )
        16           C   tau(  16) = (  0.2666667  0.3333333  0.0000000  )
        17           C   tau(  17) = (  0.2000000  0.4000000  0.0000000  )
        18           C   tau(  18) = (  0.2666667  0.5333333  0.0000000  )
        19           C   tau(  19) = (  0.2000000  0.6000000  0.0000000  )
        20           C   tau(  20) = (  0.2666667  0.7333333  0.0000000  )
        21           C   tau(  21) = (  0.2000000  0.8000000  0.0000000  )
        22           C   tau(  22) = (  0.2666667  0.9333333  0.0000000  )
        23           C   tau(  23) = (  0.4000000  0.0000000  0.0000000  )
        24           C   tau(  24) = (  0.4666667  0.1333333  0.0000000  )
        25           C   tau(  25) = (  0.4000000  0.2000000  0.0000000  )
        26           C   tau(  26) = (  0.4666667  0.3333333  0.0000000  )
        27           C   tau(  27) = (  0.4000000  0.4000000  0.0000000  )
        28           Mn  tau(  28) = (  0.4666667  0.5333333  0.0000000  )
        29           C   tau(  29) = (  0.4000000  0.6000000  0.0000000  )
        30           C   tau(  30) = (  0.4666667  0.7333333  0.0000000  )
        31           C   tau(  31) = (  0.4000000  0.8000000  0.0000000  )
        32           C   tau(  32) = (  0.4666667  0.9333333  0.0000000  )
        33           C   tau(  33) = (  0.6000000  0.0000000  0.0000000  )
        34           C   tau(  34) = (  0.6666667  0.1333333  0.0000000  )
        35           C   tau(  35) = (  0.6000000  0.2000000  0.0000000  )
        36           C   tau(  36) = (  0.6666667  0.3333333  0.0000000  )
        37           C   tau(  37) = (  0.6000000  0.4000000  0.0000000  )
        38           C   tau(  38) = (  0.6666667  0.5333333  0.0000000  )
        39           C   tau(  39) = (  0.6000000  0.6000000  0.0000000  )
        40           C   tau(  40) = (  0.6666667  0.7333333  0.0000000  )
        41           C   tau(  41) = (  0.6000000  0.8000000  0.0000000  )
        42           C   tau(  42) = (  0.6666667  0.9333333  0.0000000  )
        43           C   tau(  43) = (  0.8000000  0.0000000  0.0000000  )
        44           C   tau(  44) = (  0.8666667  0.1333333  0.0000000  )
        45           C   tau(  45) = (  0.8000000  0.2000000  0.0000000  )
        46           C   tau(  46) = (  0.8666667  0.3333333  0.0000000  )
        47           C   tau(  47) = (  0.8000000  0.4000000  0.0000000  )
        48           C   tau(  48) = (  0.8666667  0.5333333  0.0000000  )
        49           C   tau(  49) = (  0.8000000  0.6000000  0.0000000  )
        50           C   tau(  50) = (  0.8666667  0.7333333  0.0000000  )
        51           C   tau(  51) = (  0.8000000  0.8000000  0.0000000  )
        52           C   tau(  52) = (  0.8666667  0.9333333  0.0000000  )

     number of k points=     1  Marzari-Vanderbilt smearing, width (Ry)=  0.0010
                       cart. coord. in units 2pi/alat
        k(    1) = (   0.0000000   0.0000000   0.0000000), wk =   2.0000000

                       cryst. coord.
        k(    1) = (   0.0000000   0.0000000   0.0000000), wk =   2.0000000

     Dense  grid:  1626001 G-vectors     FFT dimensions: ( 180, 180, 135)

     Smooth grid:   702581 G-vectors     FFT dimensions: ( 125, 125, 108)

     Dynamical RAM for                 wfc:      28.59 MB

     Dynamical RAM for     wfc (w. buffer):      28.59 MB

     Dynamical RAM for           str. fact:      12.41 MB

     Dynamical RAM for           local pot:       0.00 MB

     Dynamical RAM for          nlocal pot:      92.46 MB

     Dynamical RAM for                qrad:      19.73 MB

     Dynamical RAM for          rho,v,vnew:      29.46 MB

     Dynamical RAM for               rhoin:       9.82 MB

     Dynamical RAM for            rho*nmix:      66.16 MB

     Dynamical RAM for           G-vectors:      16.40 MB

     Dynamical RAM for          h,s,v(r/c):      12.00 MB

     Dynamical RAM for          <psi|beta>:       0.81 MB

     Dynamical RAM for                 psi:     114.35 MB

     Dynamical RAM for                hpsi:     114.35 MB

     Dynamical RAM for                spsi:     114.35 MB

     Dynamical RAM for      wfcinit/wfcrot:      93.90 MB

     Dynamical RAM for           addusdens:     971.75 MB

     Estimated static dynamical RAM per process >     320.00 MB

     Estimated max dynamical RAM per process >       1.26 GB

     Estimated total dynamical RAM >       7.57 GB

     Check: negative core charge=   -0.000002

     Initial potential from superposition of free atoms

     starting charge  212.80506, renormalised to  213.00000

     negative rho (up, down):  5.889E-05 0.000E+00


---------------------------------------------------------------------------------
Carrying out rVV10 run using the following parameters:
Nqs =      20    Nr_points =    1024   r_max =   100.000
b_value =  6.30000    beta =  0.00901
     q_mesh =  0.00010000  0.00030000  0.00058939  0.00100810
               0.00161396  0.00249058  0.00375900  0.00559430
               0.00824984  0.01209221  0.01765183  0.02569619
               0.03733578  0.05417739  0.07854596  0.11380545
               0.16482331  0.23864234  0.34545298  0.50000000

Gradients computed in Reciprocal space

---------------------------------------------------------------------------------


     Starting wfcs are  208 randomized atomic wfcs

     total cpu time spent up to now is       47.9 secs

     Self-consistent Calculation

     iteration #  1     ecut=    70.00 Ry     beta= 0.70
     Davidson diagonalization with overlap
     ethr =  1.00E-02,  avg # of iterations =  2.0

     negative rho (up, down):  1.010E-04 0.000E+00

     total cpu time spent up to now is      119.0 secs

     total energy              =    -823.88230484 Ry
     Harris-Foulkes estimate   =    -828.72507153 Ry
     estimated scf accuracy    <       7.44420812 Ry

     iteration #  2     ecut=    70.00 Ry     beta= 0.70
     Davidson diagonalization with overlap
     ethr =  3.49E-03,  avg # of iterations =  5.0

     negative rho (up, down):  1.206E-04 0.000E+00

     total cpu time spent up to now is      192.8 secs

     total energy              =    -815.91233848 Ry
     Harris-Foulkes estimate   =    -831.35703977 Ry
     estimated scf accuracy    <      65.36981143 Ry

     iteration #  3     ecut=    70.00 Ry     beta= 0.70
     Davidson diagonalization with overlap
     ethr =  3.49E-03,  avg # of iterations =  5.0

     negative rho (up, down):  1.626E-04 0.000E+00

     total cpu time spent up to now is      278.7 secs

     total energy              =    -824.89413024 Ry
     Harris-Foulkes estimate   =    -827.38568554 Ry
     estimated scf accuracy    <      13.31206519 Ry

     iteration #  4     ecut=    70.00 Ry     beta= 0.70
     Davidson diagonalization with overlap
     ethr =  3.49E-03,  avg # of iterations =  4.0

     negative rho (up, down):  1.802E-04 0.000E+00

     total cpu time spent up to now is      333.8 secs

     total energy              =    -825.73155392 Ry
     Harris-Foulkes estimate   =    -826.31158480 Ry
     estimated scf accuracy    <       1.84390171 Ry

     iteration #  5     ecut=    70.00 Ry     beta= 0.70
     Davidson diagonalization with overlap
     ethr =  8.66E-04,  avg # of iterations =  3.0

     negative rho (up, down):  1.940E-04 0.000E+00

     total cpu time spent up to now is      391.7 secs

     total energy              =    -825.88016812 Ry
     Harris-Foulkes estimate   =    -825.95251426 Ry
     estimated scf accuracy    <       0.47756824 Ry

     iteration #  6     ecut=    70.00 Ry     beta= 0.70
     Davidson diagonalization with overlap
     ethr =  2.24E-04,  avg # of iterations =  2.0

     negative rho (up, down):  2.114E-04 0.000E+00

     total cpu time spent up to now is      446.1 secs

     total energy              =    -825.89806022 Ry
     Harris-Foulkes estimate   =    -825.94040612 Ry
     estimated scf accuracy    <       0.32000713 Ry

     iteration #  7     ecut=    70.00 Ry     beta= 0.70
     Davidson diagonalization with overlap
     ethr =  1.50E-04,  avg # of iterations =  1.0

     negative rho (up, down):  2.423E-04 0.000E+00

     total cpu time spent up to now is      498.1 secs

     total energy              =    -825.87608760 Ry
     Harris-Foulkes estimate   =    -825.91989282 Ry
     estimated scf accuracy    <       0.38666490 Ry

     iteration #  8     ecut=    70.00 Ry     beta= 0.70
     Davidson diagonalization with overlap
     ethr =  1.50E-04,  avg # of iterations =  2.0

     negative rho (up, down):  3.238E-04 0.000E+00

     total cpu time spent up to now is      550.5 secs

     total energy              =    -825.91001062 Ry
     Harris-Foulkes estimate   =    -825.92778503 Ry
     estimated scf accuracy    <       0.30878849 Ry

     iteration #  9     ecut=    70.00 Ry     beta= 0.70
     Davidson diagonalization with overlap
     ethr =  1.45E-04,  avg # of iterations =  1.0

     negative rho (up, down):  4.383E-04 0.000E+00

     total cpu time spent up to now is      602.7 secs

     total energy              =    -825.90313280 Ry
     Harris-Foulkes estimate   =    -825.91507034 Ry
     estimated scf accuracy    <       0.28705450 Ry

     iteration # 10     ecut=    70.00 Ry     beta= 0.70
     Davidson diagonalization with overlap
     ethr =  1.35E-04,  avg # of iterations =  1.0

     negative rho (up, down):  5.295E-04 0.000E+00

     total cpu time spent up to now is      657.1 secs

     total energy              =    -825.90113448 Ry
     Harris-Foulkes estimate   =    -825.90907444 Ry
     estimated scf accuracy    <       0.24990560 Ry

     iteration # 11     ecut=    70.00 Ry     beta= 0.70
     Davidson diagonalization with overlap
     ethr =  1.17E-04,  avg # of iterations =  1.0

     negative rho (up, down):  5.938E-04 0.000E+00

     total cpu time spent up to now is      709.9 secs

     total energy              =    -825.90227306 Ry
     Harris-Foulkes estimate   =    -825.90449744 Ry
     estimated scf accuracy    <       0.22578985 Ry

     iteration # 12     ecut=    70.00 Ry     beta= 0.70
     Davidson diagonalization with overlap
     ethr =  1.06E-04,  avg # of iterations =  1.0

     negative rho (up, down):  5.862E-04 0.000E+00

     total cpu time spent up to now is      763.7 secs

     total energy              =    -825.89952399 Ry
     Harris-Foulkes estimate   =    -825.90287344 Ry
     estimated scf accuracy    <       0.19390002 Ry

     iteration # 13     ecut=    70.00 Ry     beta= 0.70
     Davidson diagonalization with overlap
     ethr =  9.10E-05,  avg # of iterations =  1.0

     negative rho (up, down):  5.752E-04 0.000E+00

     total cpu time spent up to now is      816.3 secs

     total energy              =    -825.89830139 Ry
     Harris-Foulkes estimate   =    -825.90147681 Ry
     estimated scf accuracy    <       0.19969417 Ry

     iteration # 14     ecut=    70.00 Ry     beta= 0.70
     Davidson diagonalization with overlap
     ethr =  9.10E-05,  avg # of iterations =  1.0

     negative rho (up, down):  5.681E-04 0.000E+00

     total cpu time spent up to now is      868.6 secs

     total energy              =    -825.89823464 Ry
     Harris-Foulkes estimate   =    -825.89963827 Ry
     estimated scf accuracy    <       0.21365298 Ry

     iteration # 15     ecut=    70.00 Ry     beta= 0.70
     Davidson diagonalization with overlap
     ethr =  9.10E-05,  avg # of iterations =  1.0

     negative rho (up, down):  4.934E-04 0.000E+00

     total cpu time spent up to now is      922.0 secs

     total energy              =    -825.88075263 Ry
     Harris-Foulkes estimate   =    -825.89834215 Ry
     estimated scf accuracy    <       0.18602552 Ry

     iteration # 16     ecut=    70.00 Ry     beta= 0.70
     Davidson diagonalization with overlap
     ethr =  8.73E-05,  avg # of iterations =  1.0

     negative rho (up, down):  6.093E-04 0.000E+00

     total cpu time spent up to now is      976.6 secs

     total energy              =    -825.90320874 Ry
     Harris-Foulkes estimate   =    -825.91234567 Ry
     estimated scf accuracy    <       0.28347277 Ry

     iteration # 17     ecut=    70.00 Ry     beta= 0.70
     Davidson diagonalization with overlap
     ethr =  8.73E-05,  avg # of iterations =  1.0

     negative rho (up, down):  5.804E-04 0.000E+00

     total cpu time spent up to now is     1031.9 secs

     total energy              =    -825.89512837 Ry
     Harris-Foulkes estimate   =    -825.91358617 Ry
     estimated scf accuracy    <       0.34368940 Ry

     iteration # 18     ecut=    70.00 Ry     beta= 0.70
     Davidson diagonalization with overlap
     ethr =  8.73E-05,  avg # of iterations =  1.0

     negative rho (up, down):  5.813E-04 0.000E+00

     total cpu time spent up to now is     1085.5 secs

     total energy              =    -825.89727942 Ry
     Harris-Foulkes estimate   =    -825.89846314 Ry
     estimated scf accuracy    <       0.21456292 Ry

     iteration # 19     ecut=    70.00 Ry     beta= 0.70
     Davidson diagonalization with overlap
     ethr =  8.73E-05,  avg # of iterations =  1.0

     negative rho (up, down):  5.790E-04 0.000E+00

     total cpu time spent up to now is     1137.6 secs

     total energy              =    -825.89528332 Ry
     Harris-Foulkes estimate   =    -825.89744809 Ry
     estimated scf accuracy    <       0.21600473 Ry

     iteration # 20     ecut=    70.00 Ry     beta= 0.70
     Davidson diagonalization with overlap
     ethr =  8.73E-05,  avg # of iterations =  1.0

     negative rho (up, down):  5.680E-04 0.000E+00

     total cpu time spent up to now is     1189.9 secs

     total energy              =    -825.88557794 Ry
     Harris-Foulkes estimate   =    -825.89524107 Ry
     estimated scf accuracy    <       0.14651026 Ry

     iteration # 21     ecut=    70.00 Ry     beta= 0.70
     Davidson diagonalization with overlap
     ethr =  6.88E-05,  avg # of iterations =  1.0

     negative rho (up, down):  5.687E-04 0.000E+00

     total cpu time spent up to now is     1242.5 secs

     total energy              =    -825.89428299 Ry
     Harris-Foulkes estimate   =    -825.90350291 Ry
     estimated scf accuracy    <       0.20189730 Ry

     iteration # 22     ecut=    70.00 Ry     beta= 0.70
     Davidson diagonalization with overlap
     ethr =  6.88E-05,  avg # of iterations =  1.0

     negative rho (up, down):  5.697E-04 0.000E+00

     total cpu time spent up to now is     1294.5 secs

     total energy              =    -825.89493654 Ry
     Harris-Foulkes estimate   =    -825.89533123 Ry
     estimated scf accuracy    <       0.07843586 Ry

     iteration # 23     ecut=    70.00 Ry     beta= 0.70
     Davidson diagonalization with overlap
     ethr =  3.68E-05,  avg # of iterations =  1.0

     negative rho (up, down):  5.719E-04 0.000E+00

     total cpu time spent up to now is     1347.1 secs

     total energy              =    -825.89417246 Ry
     Harris-Foulkes estimate   =    -825.89563052 Ry
     estimated scf accuracy    <       0.15268508 Ry

     iteration # 24     ecut=    70.00 Ry     beta= 0.70
     Davidson diagonalization with overlap
     ethr =  3.68E-05,  avg # of iterations =  1.0

     negative rho (up, down):  5.667E-04 0.000E+00

     total cpu time spent up to now is     1401.3 secs

     total energy              =    -825.89466091 Ry
     Harris-Foulkes estimate   =    -825.89460049 Ry
     estimated scf accuracy    <       0.00614341 Ry

     iteration # 25     ecut=    70.00 Ry     beta= 0.70
     Davidson diagonalization with overlap
     ethr =  2.88E-06,  avg # of iterations =  9.0

     negative rho (up, down):  5.712E-04 0.000E+00

     total cpu time spent up to now is     1456.6 secs

     total energy              =    -825.89345770 Ry
     Harris-Foulkes estimate   =    -825.89904976 Ry
     estimated scf accuracy    <       0.18171007 Ry

     iteration # 26     ecut=    70.00 Ry     beta= 0.70
     Davidson diagonalization with overlap
     ethr =  2.88E-06,  avg # of iterations =  1.0

     negative rho (up, down):  5.711E-04 0.000E+00

     total cpu time spent up to now is     1508.5 secs

     total energy              =    -825.89529091 Ry
     Harris-Foulkes estimate   =    -825.89524938 Ry
     estimated scf accuracy    <       0.13363908 Ry

     iteration # 27     ecut=    70.00 Ry     beta= 0.70
     Davidson diagonalization with overlap
     ethr =  2.88E-06,  avg # of iterations =  1.0

     negative rho (up, down):  5.718E-04 0.000E+00

     total cpu time spent up to now is     1560.9 secs

     total energy              =    -825.89432357 Ry
     Harris-Foulkes estimate   =    -825.89530323 Ry
     estimated scf accuracy    <       0.13668521 Ry

     iteration # 28     ecut=    70.00 Ry     beta= 0.70
     Davidson diagonalization with overlap
     ethr =  2.88E-06,  avg # of iterations =  1.0

     negative rho (up, down):  5.699E-04 0.000E+00

     total cpu time spent up to now is     1617.0 secs

     total energy              =    -825.89466719 Ry
     Harris-Foulkes estimate   =    -825.89459548 Ry
     estimated scf accuracy    <       0.01283717 Ry

     iteration # 29     ecut=    70.00 Ry     beta= 0.70
     Davidson diagonalization with overlap
     ethr =  2.88E-06,  avg # of iterations =  1.0

     negative rho (up, down):  5.694E-04 0.000E+00

     total cpu time spent up to now is     1670.2 secs

     total energy              =    -825.89440337 Ry
     Harris-Foulkes estimate   =    -825.89471801 Ry
     estimated scf accuracy    <       0.04916938 Ry

     iteration # 30     ecut=    70.00 Ry     beta= 0.70
     Davidson diagonalization with overlap
     ethr =  2.88E-06,  avg # of iterations =  1.0

     negative rho (up, down):  5.685E-04 0.000E+00

     total cpu time spent up to now is     1724.2 secs

     total energy              =    -825.89455208 Ry
     Harris-Foulkes estimate   =    -825.89455606 Ry
     estimated scf accuracy    <       0.00020620 Ry

     iteration # 31     ecut=    70.00 Ry     beta= 0.70
     Davidson diagonalization with overlap
     ethr =  9.68E-08,  avg # of iterations =  1.0

     negative rho (up, down):  5.679E-04 0.000E+00

     total cpu time spent up to now is     1776.2 secs

     total energy              =    -825.89455691 Ry
     Harris-Foulkes estimate   =    -825.89457226 Ry
     estimated scf accuracy    <       0.00736350 Ry

     iteration # 32     ecut=    70.00 Ry     beta= 0.70
     Davidson diagonalization with overlap
     ethr =  9.68E-08,  avg # of iterations =  1.0

     negative rho (up, down):  5.676E-04 0.000E+00

     total cpu time spent up to now is     1829.4 secs

     total energy              =    -825.89454568 Ry
     Harris-Foulkes estimate   =    -825.89456549 Ry
     estimated scf accuracy    <       0.00353656 Ry

     iteration # 33     ecut=    70.00 Ry     beta= 0.70
     Davidson diagonalization with overlap
     ethr =  9.68E-08,  avg # of iterations =  1.0

     negative rho (up, down):  5.676E-04 0.000E+00

     total cpu time spent up to now is     1885.2 secs

     total energy              =    -825.89455061 Ry
     Harris-Foulkes estimate   =    -825.89455400 Ry
     estimated scf accuracy    <       0.00081938 Ry

     iteration # 34     ecut=    70.00 Ry     beta= 0.70
     Davidson diagonalization with overlap
     ethr =  9.68E-08,  avg # of iterations =  1.0

     negative rho (up, down):  5.676E-04 0.000E+00

     total cpu time spent up to now is     1939.9 secs

     total energy              =    -825.89455093 Ry
     Harris-Foulkes estimate   =    -825.89455204 Ry
     estimated scf accuracy    <       0.00016039 Ry

     iteration # 35     ecut=    70.00 Ry     beta= 0.70
     Davidson diagonalization with overlap
     ethr =  7.53E-08,  avg # of iterations =  1.0

     negative rho (up, down):  5.676E-04 0.000E+00

     total cpu time spent up to now is     1992.2 secs

     total energy              =    -825.89455096 Ry
     Harris-Foulkes estimate   =    -825.89455212 Ry
     estimated scf accuracy    <       0.00002423 Ry

     iteration # 36     ecut=    70.00 Ry     beta= 0.70
     Davidson diagonalization with overlap
     ethr =  1.14E-08,  avg # of iterations =  1.0

     negative rho (up, down):  5.677E-04 0.000E+00

     total cpu time spent up to now is     2045.0 secs

     total energy              =    -825.89455094 Ry
     Harris-Foulkes estimate   =    -825.89455250 Ry
     estimated scf accuracy    <       0.00023026 Ry

     iteration # 37     ecut=    70.00 Ry     beta= 0.70
     Davidson diagonalization with overlap
     ethr =  1.14E-08,  avg # of iterations =  1.0

     negative rho (up, down):  5.676E-04 0.000E+00

     total cpu time spent up to now is     2096.6 secs

     total energy              =    -825.89455151 Ry
     Harris-Foulkes estimate   =    -825.89455175 Ry
     estimated scf accuracy    <       0.00001121 Ry

     iteration # 38     ecut=    70.00 Ry     beta= 0.70
     Davidson diagonalization with overlap
     ethr =  5.26E-09,  avg # of iterations =  1.0

     negative rho (up, down):  5.676E-04 0.000E+00

     total cpu time spent up to now is     2147.5 secs

     total energy              =    -825.89455158 Ry
     Harris-Foulkes estimate   =    -825.89455166 Ry
     estimated scf accuracy    <       0.00000891 Ry

     iteration # 39     ecut=    70.00 Ry     beta= 0.70
     Davidson diagonalization with overlap
     ethr =  4.18E-09,  avg # of iterations =  1.0

     negative rho (up, down):  5.675E-04 0.000E+00

     total cpu time spent up to now is     2198.0 secs

     End of self-consistent calculation

          k = 0.0000 0.0000 0.0000 ( 87777 PWs)   bands (ev):

   -80.0150 -49.6564 -49.6560 -48.2283 -19.7615 -18.9237 -18.9235 -18.8365
   -18.8181 -18.8180 -18.4570 -17.0634 -17.0633 -17.0628 -16.9709 -16.9707
   -16.6745 -16.2122 -16.2122 -16.1133 -16.0486 -16.0484 -15.3534 -14.0950
   -14.0950 -14.0236 -13.9908 -13.9907 -13.3302 -13.0568 -13.0567 -13.0273
   -12.7310 -12.7310 -12.3038 -11.8268 -11.8267 -11.6487 -11.3748 -11.3748
   -10.4546  -9.6402  -9.6401  -9.4289  -9.3050  -9.3049  -9.2239  -9.1898
    -9.1897  -9.1799  -8.6912  -8.6912  -8.1431  -8.1430  -8.0496  -7.8961
    -7.8268  -7.4237  -7.4236  -7.1636  -7.0953  -7.0945  -6.8897  -6.8896
    -6.8008  -6.8004  -6.7925  -6.7103  -6.5557  -6.5556  -6.5302  -6.5199
    -6.5198  -6.4762  -6.4717  -6.4673  -5.5059  -5.5058  -5.4977  -5.4971
    -5.2834  -5.2832  -4.9821  -4.8787  -4.8373  -4.7157  -4.6848  -4.6846
    -4.3753  -4.1666  -4.1664  -4.1137  -4.1136  -3.8251  -3.8250  -3.7502
    -3.6635  -3.6634  -3.1214  -2.6199  -2.6196  -1.8127  -1.7942  -1.7940
    -0.8372  -0.8265  -0.8264  -0.8256   0.9723   0.9796   0.9798   1.6472
     1.6472   1.6525   2.5646   2.8197   2.8199   2.8847   3.1688   3.1823
     3.5363   3.5388   3.5595   3.5596   3.6904   3.7773   3.7845   3.7926

     occupation numbers 
     1.0000   1.0000   1.0000   1.0000   1.0000   1.0000   1.0000   1.0000
     1.0000   1.0000   1.0000   1.0000   1.0000   1.0000   1.0000   1.0000
     1.0000   1.0000   1.0000   1.0000   1.0000   1.0000   1.0000   1.0000
     1.0000   1.0000   1.0000   1.0000   1.0000   1.0000   1.0000   1.0000
     1.0000   1.0000   1.0000   1.0000   1.0000   1.0000   1.0000   1.0000
     1.0000   1.0000   1.0000   1.0000   1.0000   1.0000   1.0000   1.0000
     1.0000   1.0000   1.0000   1.0000   1.0000   1.0000   1.0000   1.0000
     1.0000   1.0000   1.0000   1.0000   1.0000   1.0000   1.0000   1.0000
     1.0000   1.0000   1.0000   1.0000   1.0000   1.0000   1.0000   1.0000
     1.0000   1.0000   1.0000   1.0000   1.0000   1.0000   1.0000   1.0000
     1.0000   1.0000   1.0000   1.0000   1.0000   1.0000   1.0000   1.0000
     1.0000   1.0000   1.0000   1.0000   1.0000   1.0000   1.0000   1.0000
     1.0000   1.0000   1.0000   1.0000   1.0000   1.0000   1.0000   1.0000
     1.0084   0.5126   0.5111   0.4678   0.0000   0.0000   0.0000   0.0000
     0.0000   0.0000   0.0000   0.0000   0.0000   0.0000   0.0000   0.0000
     0.0000   0.0000   0.0000   0.0000   0.0000   0.0000   0.0000   0.0000

     the Fermi energy is    -0.8243 ev

!    total energy              =    -825.89455096 Ry
     Harris-Foulkes estimate   =    -825.89455164 Ry
     estimated scf accuracy    <       0.00000082 Ry

     The total energy is the sum of the following terms:

     one-electron contribution =   -2703.20494305 Ry
     hartree contribution      =    1396.42909052 Ry
     xc contribution           =    -259.57427640 Ry
     ewald contribution        =     740.45638430 Ry
     smearing contrib. (-TS)   =      -0.00080632 Ry

     convergence has been achieved in  39 iterations

     Writing output data file manganeso-bridge2-distance-5.0.save/

     init_run     :     45.50s CPU     46.77s WALL (       1 calls)
     electrons    :   2081.59s CPU   2150.20s WALL (       1 calls)

     Called by init_run:
     wfcinit      :     22.34s CPU     22.53s WALL (       1 calls)
     wfcinit:atom :      0.04s CPU      0.05s WALL (       1 calls)
     wfcinit:wfcr :     22.13s CPU     22.27s WALL (       1 calls)
     potinit      :     10.53s CPU     10.94s WALL (       1 calls)
     hinit0       :      7.21s CPU      7.26s WALL (       1 calls)

     Called by electrons:
     c_bands      :   1202.76s CPU   1209.72s WALL (      39 calls)
     sum_band     :    439.86s CPU    463.67s WALL (      39 calls)
     v_of_rho     :    255.48s CPU    270.80s WALL (      40 calls)
     v_h          :      3.04s CPU      3.14s WALL (      40 calls)
     v_xc         :    252.45s CPU    267.66s WALL (      40 calls)
     newd         :    181.23s CPU    204.33s WALL (      40 calls)
     mix_rho      :      8.76s CPU      8.96s WALL (      39 calls)

     Called by c_bands:
     init_us_2    :      3.52s CPU      3.57s WALL (      79 calls)
     cegterg      :   1193.05s CPU   1199.98s WALL (      39 calls)

     Called by sum_band:
     sum_band:bec :      0.03s CPU      0.03s WALL (      39 calls)
     addusdens    :    273.64s CPU    296.20s WALL (      39 calls)

     Called by *egterg:
     h_psi        :    640.66s CPU    645.63s WALL (     103 calls)
     s_psi        :    212.76s CPU    212.87s WALL (     103 calls)
     g_psi        :      0.62s CPU      0.62s WALL (      63 calls)
     cdiaghg      :      6.45s CPU      6.46s WALL (     102 calls)
     cegterg:over :    140.49s CPU    140.55s WALL (      63 calls)
     cegterg:upda :     77.01s CPU     77.53s WALL (      63 calls)
     cegterg:last :     63.76s CPU     63.80s WALL (      39 calls)

     Called by h_psi:
     h_psi:pot    :    639.99s CPU    644.10s WALL (     103 calls)
     h_psi:calbec :    213.02s CPU    213.12s WALL (     103 calls)
     vloc_psi     :    214.46s CPU    218.41s WALL (     103 calls)
     add_vuspsi   :    212.50s CPU    212.57s WALL (     103 calls)

     General routines
     calbec       :    312.02s CPU    312.18s WALL (     142 calls)
     fft          :    144.32s CPU    150.05s WALL (    2518 calls)
     ffts         :      1.51s CPU      1.55s WALL (      79 calls)
     fftw         :    231.98s CPU    236.38s WALL (   26450 calls)
     interpolate  :      3.62s CPU      3.74s WALL (      40 calls)

     Parallel routines
     fft_scatt_xy :     66.85s CPU     67.70s WALL (   29047 calls)
     fft_scatt_yz :    127.03s CPU    134.38s WALL (   29047 calls)

     PWSCF        :  35m28.30s CPU  36m38.45s WALL


   This run was terminated on:  20: 9:32   3Sep2022            

=------------------------------------------------------------------------------=
   JOB DONE.
=------------------------------------------------------------------------------=
