
     Program PWSCF v.6.4.1 starts on  4Sep2022 at  4:45:57 

     This program is part of the open-source Quantum ESPRESSO suite
     for quantum simulation of materials; please cite
         "P. Giannozzi et al., J. Phys.:Condens. Matter 21 395502 (2009);
         "P. Giannozzi et al., J. Phys.:Condens. Matter 29 465901 (2017);
          URL http://www.quantum-espresso.org", 
     in publications or presentations arising from this work. More details at
     http://www.quantum-espresso.org/quote

     Parallel version (MPI), running on     6 processors

     MPI processes distributed on     1 nodes
     R & G space division:  proc/nbgrp/npool/nimage =       6
     Reading input from distance-2.0.in

     Current dimensions of program PWSCF are:
     Max number of different atomic species (ntypx) = 10
     Max number of k-points (npk) =  40000
     Max angular momentum in pseudopotentials (lmaxx) =  3

     IMPORTANT: XC functional enforced from input :
     Exchange-correlation      = RVV10 ( 1  4 13  4 3 0)
     Any further DFT definition will be discarded
     Please, verify this is what you really want

               file H.pbe-rrkjus.UPF: wavefunction(s)  1S renormalized
               file Mn.pbe-spn-rrkjus_psl.0.3.1.UPF: wavefunction(s)  3D renormalized

     Subspace diagonalization in iterative solution of the eigenvalue problem:
     a serial algorithm will be used


     Parallelization info
     --------------------
     sticks:   dense  smooth     PW     G-vecs:    dense   smooth      PW
     Min        3051    1746    432               270999   117096   14629
     Max        3053    1747    437               271001   117099   14630
     Sum       18313   10477   2611              1626001   702581   87777



     bravais-lattice index     =            4
     lattice parameter (alat)  =      23.2937  a.u.
     unit-cell volume          =    8879.8548 (a.u.)^3
     number of atoms/cell      =           52
     number of atomic types    =            3
     number of electrons       =       213.00
     number of Kohn-Sham states=          128
     kinetic-energy cutoff     =      70.0000  Ry
     charge density cutoff     =     490.0000  Ry
     convergence threshold     =      1.0E-06
     mixing beta               =       0.7000
     number of iterations used =            8  plain     mixing
     Exchange-correlation      = RVV10 ( 1  4 13  4 3 0)

     celldm(1)=  23.293684  celldm(2)=   0.000000  celldm(3)=   0.811261
     celldm(4)=   0.000000  celldm(5)=   0.000000  celldm(6)=   0.000000

     crystal axes: (cart. coord. in units of alat)
               a(1) = (   1.000000   0.000000   0.000000 )  
               a(2) = (  -0.500000   0.866025   0.000000 )  
               a(3) = (   0.000000   0.000000   0.811261 )  

     reciprocal axes: (cart. coord. in units 2 pi/alat)
               b(1) = (  1.000000  0.577350 -0.000000 )  
               b(2) = (  0.000000  1.154701  0.000000 )  
               b(3) = (  0.000000 -0.000000  1.232649 )  


     PseudoPot. # 1 for H  read from file:
     /home/cristian/Escritorio/Proyecto_Grafeno/pseudopotenciales/H.pbe-rrkjus.UPF
     MD5 check sum: 7cc9d459525c9a0585f487a71c3c9563
     Pseudo is Ultrasoft, Zval =  1.0
     Generated by new atomic code, or converted to UPF format
     Using radial grid of 1061 points,  2 beta functions with: 
                l(1) =   0
                l(2) =   0
     Q(r) pseudized with 0 coefficients 


     PseudoPot. # 2 for C  read from file:
     /home/cristian/Escritorio/Proyecto_Grafeno/pseudopotenciales/C.pbe-n-rrkjus_psl.1.0.0.UPF
     MD5 check sum: 1fdd950c42eb37d8afe3dd2f8d12311e
     Pseudo is Ultrasoft + core correction, Zval =  4.0
     Generated using "atomic" code by A. Dal Corso v.6.3MaX
     Using radial grid of 1073 points,  4 beta functions with: 
                l(1) =   0
                l(2) =   0
                l(3) =   1
                l(4) =   1
     Q(r) pseudized with 0 coefficients 


     PseudoPot. # 3 for Mn read from file:
     /home/cristian/Escritorio/Proyecto_Grafeno/pseudopotenciales/Mn.pbe-spn-rrkjus_psl.0.3.1.UPF
     MD5 check sum: e1cac159bdd2ba70c18e85765a5d4279
     Pseudo is Ultrasoft + core correction, Zval = 15.0
     Generated using "atomic" code by A. Dal Corso v.6.2.2
     Using radial grid of 1187 points,  6 beta functions with: 
                l(1) =   0
                l(2) =   0
                l(3) =   1
                l(4) =   1
                l(5) =   2
                l(6) =   2
     Q(r) pseudized with 0 coefficients 


     vdW kernel table read from file rVV10_kernel_table
     MD5 check sum: b8e2538accc0c0b3206b45ba4daaba6c

     atomic species   valence    mass     pseudopotential
        H              1.00     1.00794     H ( 1.00)
        C              4.00    12.01070     C ( 1.00)
        Mn            15.00    54.93804     Mn( 1.00)

     No symmetry found


                                    s                        frac. trans.

      isym =  1     identity                                     

 cryst.   s( 1) = (     1          0          0      )
                  (     0          1          0      )
                  (     0          0          1      )

 cart.    s( 1) = (  1.0000000  0.0000000  0.0000000 )
                  (  0.0000000  1.0000000  0.0000000 )
                  (  0.0000000  0.0000000  1.0000000 )


     point group C_1 (1)    
     there are  1 classes
     the character table:

       E    
A      1.00

     the symmetry operations in each class and the name of the first element:

     E        1
          identity                                               

   Cartesian axes

     site n.     atom                  positions (alat units)
         1           H   tau(   1) = (   0.2194937   0.4330127   0.1622522  )
         2           H   tau(   2) = (   0.2805063   0.4330127   0.1622522  )
         3           C   tau(   3) = (   0.0000000   0.0000000   0.0000000  )
         4           C   tau(   4) = (   0.0000000   0.1154701   0.0000000  )
         5           C   tau(   5) = (  -0.1000000   0.1732051   0.0000000  )
         6           C   tau(   6) = (  -0.1000000   0.2886751   0.0000000  )
         7           C   tau(   7) = (  -0.2000000   0.3464102   0.0000000  )
         8           C   tau(   8) = (  -0.2000000   0.4618802   0.0000000  )
         9           C   tau(   9) = (  -0.3000000   0.5196152   0.0000000  )
        10           C   tau(  10) = (  -0.3000000   0.6350853   0.0000000  )
        11           C   tau(  11) = (  -0.4000000   0.6928203   0.0000000  )
        12           C   tau(  12) = (  -0.4000000   0.8082904   0.0000000  )
        13           C   tau(  13) = (   0.2000000   0.0000000   0.0000000  )
        14           C   tau(  14) = (   0.2000000   0.1154701   0.0000000  )
        15           C   tau(  15) = (   0.1000000   0.1732051   0.0000000  )
        16           C   tau(  16) = (   0.1000000   0.2886751   0.0000000  )
        17           C   tau(  17) = (   0.0000000   0.3464102   0.0000000  )
        18           C   tau(  18) = (   0.0000000   0.4618802   0.0000000  )
        19           C   tau(  19) = (  -0.1000000   0.5196152   0.0000000  )
        20           C   tau(  20) = (  -0.1000000   0.6350853   0.0000000  )
        21           C   tau(  21) = (  -0.2000000   0.6928203   0.0000000  )
        22           C   tau(  22) = (  -0.2000000   0.8082904   0.0000000  )
        23           C   tau(  23) = (   0.4000000   0.0000000   0.0000000  )
        24           C   tau(  24) = (   0.4000000   0.1154701   0.0000000  )
        25           C   tau(  25) = (   0.3000000   0.1732051   0.0000000  )
        26           C   tau(  26) = (   0.3000000   0.2886751   0.0000000  )
        27           C   tau(  27) = (   0.2000000   0.3464102   0.0000000  )
        28           Mn  tau(  28) = (   0.2000000   0.4618802   0.0000000  )
        29           C   tau(  29) = (   0.1000000   0.5196152   0.0000000  )
        30           C   tau(  30) = (   0.1000000   0.6350853   0.0000000  )
        31           C   tau(  31) = (   0.0000000   0.6928203   0.0000000  )
        32           C   tau(  32) = (   0.0000000   0.8082904   0.0000000  )
        33           C   tau(  33) = (   0.6000000   0.0000000   0.0000000  )
        34           C   tau(  34) = (   0.6000000   0.1154701   0.0000000  )
        35           C   tau(  35) = (   0.5000000   0.1732051   0.0000000  )
        36           C   tau(  36) = (   0.5000000   0.2886751   0.0000000  )
        37           C   tau(  37) = (   0.4000000   0.3464102   0.0000000  )
        38           C   tau(  38) = (   0.4000000   0.4618802   0.0000000  )
        39           C   tau(  39) = (   0.3000000   0.5196152   0.0000000  )
        40           C   tau(  40) = (   0.3000000   0.6350853   0.0000000  )
        41           C   tau(  41) = (   0.2000000   0.6928203   0.0000000  )
        42           C   tau(  42) = (   0.2000000   0.8082904   0.0000000  )
        43           C   tau(  43) = (   0.8000000   0.0000000   0.0000000  )
        44           C   tau(  44) = (   0.8000000   0.1154701   0.0000000  )
        45           C   tau(  45) = (   0.7000000   0.1732051   0.0000000  )
        46           C   tau(  46) = (   0.7000000   0.2886751   0.0000000  )
        47           C   tau(  47) = (   0.6000000   0.3464102   0.0000000  )
        48           C   tau(  48) = (   0.6000000   0.4618802   0.0000000  )
        49           C   tau(  49) = (   0.5000000   0.5196152   0.0000000  )
        50           C   tau(  50) = (   0.5000000   0.6350853   0.0000000  )
        51           C   tau(  51) = (   0.4000000   0.6928203   0.0000000  )
        52           C   tau(  52) = (   0.4000000   0.8082904   0.0000000  )

   Crystallographic axes

     site n.     atom                  positions (cryst. coord.)
         1           H   tau(   1) = (  0.4694937  0.5000000  0.2000000  )
         2           H   tau(   2) = (  0.5305063  0.5000000  0.2000000  )
         3           C   tau(   3) = (  0.0000000  0.0000000  0.0000000  )
         4           C   tau(   4) = (  0.0666667  0.1333333  0.0000000  )
         5           C   tau(   5) = (  0.0000000  0.2000000  0.0000000  )
         6           C   tau(   6) = (  0.0666667  0.3333333  0.0000000  )
         7           C   tau(   7) = (  0.0000000  0.4000000  0.0000000  )
         8           C   tau(   8) = (  0.0666667  0.5333333  0.0000000  )
         9           C   tau(   9) = (  0.0000000  0.6000000  0.0000000  )
        10           C   tau(  10) = (  0.0666667  0.7333333  0.0000000  )
        11           C   tau(  11) = (  0.0000000  0.8000000  0.0000000  )
        12           C   tau(  12) = (  0.0666667  0.9333333  0.0000000  )
        13           C   tau(  13) = (  0.2000000  0.0000000  0.0000000  )
        14           C   tau(  14) = (  0.2666667  0.1333333  0.0000000  )
        15           C   tau(  15) = (  0.2000000  0.2000000  0.0000000  )
        16           C   tau(  16) = (  0.2666667  0.3333333  0.0000000  )
        17           C   tau(  17) = (  0.2000000  0.4000000  0.0000000  )
        18           C   tau(  18) = (  0.2666667  0.5333333  0.0000000  )
        19           C   tau(  19) = (  0.2000000  0.6000000  0.0000000  )
        20           C   tau(  20) = (  0.2666667  0.7333333  0.0000000  )
        21           C   tau(  21) = (  0.2000000  0.8000000  0.0000000  )
        22           C   tau(  22) = (  0.2666667  0.9333333  0.0000000  )
        23           C   tau(  23) = (  0.4000000  0.0000000  0.0000000  )
        24           C   tau(  24) = (  0.4666667  0.1333333  0.0000000  )
        25           C   tau(  25) = (  0.4000000  0.2000000  0.0000000  )
        26           C   tau(  26) = (  0.4666667  0.3333333  0.0000000  )
        27           C   tau(  27) = (  0.4000000  0.4000000  0.0000000  )
        28           Mn  tau(  28) = (  0.4666667  0.5333333  0.0000000  )
        29           C   tau(  29) = (  0.4000000  0.6000000  0.0000000  )
        30           C   tau(  30) = (  0.4666667  0.7333333  0.0000000  )
        31           C   tau(  31) = (  0.4000000  0.8000000  0.0000000  )
        32           C   tau(  32) = (  0.4666667  0.9333333  0.0000000  )
        33           C   tau(  33) = (  0.6000000  0.0000000  0.0000000  )
        34           C   tau(  34) = (  0.6666667  0.1333333  0.0000000  )
        35           C   tau(  35) = (  0.6000000  0.2000000  0.0000000  )
        36           C   tau(  36) = (  0.6666667  0.3333333  0.0000000  )
        37           C   tau(  37) = (  0.6000000  0.4000000  0.0000000  )
        38           C   tau(  38) = (  0.6666667  0.5333333  0.0000000  )
        39           C   tau(  39) = (  0.6000000  0.6000000  0.0000000  )
        40           C   tau(  40) = (  0.6666667  0.7333333  0.0000000  )
        41           C   tau(  41) = (  0.6000000  0.8000000  0.0000000  )
        42           C   tau(  42) = (  0.6666667  0.9333333  0.0000000  )
        43           C   tau(  43) = (  0.8000000  0.0000000  0.0000000  )
        44           C   tau(  44) = (  0.8666667  0.1333333  0.0000000  )
        45           C   tau(  45) = (  0.8000000  0.2000000  0.0000000  )
        46           C   tau(  46) = (  0.8666667  0.3333333  0.0000000  )
        47           C   tau(  47) = (  0.8000000  0.4000000  0.0000000  )
        48           C   tau(  48) = (  0.8666667  0.5333333  0.0000000  )
        49           C   tau(  49) = (  0.8000000  0.6000000  0.0000000  )
        50           C   tau(  50) = (  0.8666667  0.7333333  0.0000000  )
        51           C   tau(  51) = (  0.8000000  0.8000000  0.0000000  )
        52           C   tau(  52) = (  0.8666667  0.9333333  0.0000000  )

     number of k points=     1  Marzari-Vanderbilt smearing, width (Ry)=  0.0010
                       cart. coord. in units 2pi/alat
        k(    1) = (   0.0000000   0.0000000   0.0000000), wk =   2.0000000

                       cryst. coord.
        k(    1) = (   0.0000000   0.0000000   0.0000000), wk =   2.0000000

     Dense  grid:  1626001 G-vectors     FFT dimensions: ( 180, 180, 135)

     Smooth grid:   702581 G-vectors     FFT dimensions: ( 125, 125, 108)

     Dynamical RAM for                 wfc:      28.59 MB

     Dynamical RAM for     wfc (w. buffer):      28.59 MB

     Dynamical RAM for           str. fact:      12.41 MB

     Dynamical RAM for           local pot:       0.00 MB

     Dynamical RAM for          nlocal pot:      92.46 MB

     Dynamical RAM for                qrad:      19.73 MB

     Dynamical RAM for          rho,v,vnew:      29.46 MB

     Dynamical RAM for               rhoin:       9.82 MB

     Dynamical RAM for            rho*nmix:      66.16 MB

     Dynamical RAM for           G-vectors:      16.40 MB

     Dynamical RAM for          h,s,v(r/c):      12.00 MB

     Dynamical RAM for          <psi|beta>:       0.81 MB

     Dynamical RAM for                 psi:     114.35 MB

     Dynamical RAM for                hpsi:     114.35 MB

     Dynamical RAM for                spsi:     114.35 MB

     Dynamical RAM for      wfcinit/wfcrot:      93.90 MB

     Dynamical RAM for           addusdens:     971.75 MB

     Estimated static dynamical RAM per process >     320.00 MB

     Estimated max dynamical RAM per process >       1.26 GB

     Estimated total dynamical RAM >       7.57 GB

     Check: negative core charge=   -0.000002

     Initial potential from superposition of free atoms

     starting charge  212.80506, renormalised to  213.00000

     negative rho (up, down):  8.371E-05 0.000E+00


---------------------------------------------------------------------------------
Carrying out rVV10 run using the following parameters:
Nqs =      20    Nr_points =    1024   r_max =   100.000
b_value =  6.30000    beta =  0.00901
     q_mesh =  0.00010000  0.00030000  0.00058939  0.00100810
               0.00161396  0.00249058  0.00375900  0.00559430
               0.00824984  0.01209221  0.01765183  0.02569619
               0.03733578  0.05417739  0.07854596  0.11380545
               0.16482331  0.23864234  0.34545298  0.50000000

Gradients computed in Reciprocal space

---------------------------------------------------------------------------------


     Starting wfcs are  208 randomized atomic wfcs

     total cpu time spent up to now is       54.6 secs

     Self-consistent Calculation

     iteration #  1     ecut=    70.00 Ry     beta= 0.70
     Davidson diagonalization with overlap
     ethr =  1.00E-02,  avg # of iterations =  2.0

     negative rho (up, down):  1.756E-04 0.000E+00

     total cpu time spent up to now is      121.1 secs

     total energy              =    -821.19595322 Ry
     Harris-Foulkes estimate   =    -829.04879336 Ry
     estimated scf accuracy    <      10.81444175 Ry

     iteration #  2     ecut=    70.00 Ry     beta= 0.70
     Davidson diagonalization with overlap
     ethr =  5.08E-03,  avg # of iterations =  7.0

     negative rho (up, down):  2.130E-04 0.000E+00

     total cpu time spent up to now is      187.7 secs

     total energy              =    -813.90914316 Ry
     Harris-Foulkes estimate   =    -841.87860380 Ry
     estimated scf accuracy    <     109.38026646 Ry

     iteration #  3     ecut=    70.00 Ry     beta= 0.70
     Davidson diagonalization with overlap
     ethr =  5.08E-03,  avg # of iterations =  5.0

     negative rho (up, down):  2.326E-04 0.000E+00

     total cpu time spent up to now is      280.1 secs

     total energy              =    -824.74264771 Ry
     Harris-Foulkes estimate   =    -826.63115636 Ry
     estimated scf accuracy    <       5.79218132 Ry

     iteration #  4     ecut=    70.00 Ry     beta= 0.70
     Davidson diagonalization with overlap
     ethr =  2.72E-03,  avg # of iterations =  4.0

     negative rho (up, down):  2.822E-04 0.000E+00

     total cpu time spent up to now is      337.3 secs

     total energy              =    -825.14713336 Ry
     Harris-Foulkes estimate   =    -826.42118750 Ry
     estimated scf accuracy    <       4.24464036 Ry

     iteration #  5     ecut=    70.00 Ry     beta= 0.70
     Davidson diagonalization with overlap
     ethr =  1.99E-03,  avg # of iterations =  4.0

     negative rho (up, down):  3.119E-04 0.000E+00

     total cpu time spent up to now is      389.1 secs

     total energy              =    -825.89039188 Ry
     Harris-Foulkes estimate   =    -826.05690039 Ry
     estimated scf accuracy    <       1.31214920 Ry

     iteration #  6     ecut=    70.00 Ry     beta= 0.70
     Davidson diagonalization with overlap
     ethr =  6.16E-04,  avg # of iterations =  2.0

     negative rho (up, down):  3.547E-04 0.000E+00

     total cpu time spent up to now is      438.6 secs

     total energy              =    -825.87666802 Ry
     Harris-Foulkes estimate   =    -825.93247001 Ry
     estimated scf accuracy    <       0.47638728 Ry

     iteration #  7     ecut=    70.00 Ry     beta= 0.70
     Davidson diagonalization with overlap
     ethr =  2.24E-04,  avg # of iterations =  3.0

     negative rho (up, down):  3.888E-04 0.000E+00

     total cpu time spent up to now is      489.4 secs

     total energy              =    -825.87619187 Ry
     Harris-Foulkes estimate   =    -825.90826582 Ry
     estimated scf accuracy    <       0.20536768 Ry

     iteration #  8     ecut=    70.00 Ry     beta= 0.70
     Davidson diagonalization with overlap
     ethr =  9.64E-05,  avg # of iterations =  4.0

     negative rho (up, down):  5.119E-04 0.000E+00

     total cpu time spent up to now is      541.1 secs

     total energy              =    -825.88012998 Ry
     Harris-Foulkes estimate   =    -825.89299379 Ry
     estimated scf accuracy    <       0.04428600 Ry

     iteration #  9     ecut=    70.00 Ry     beta= 0.70
     Davidson diagonalization with overlap
     ethr =  2.08E-05,  avg # of iterations =  3.0

     negative rho (up, down):  6.291E-04 0.000E+00

     total cpu time spent up to now is      597.9 secs

     total energy              =    -825.88339829 Ry
     Harris-Foulkes estimate   =    -825.89392240 Ry
     estimated scf accuracy    <       0.08059485 Ry

     iteration # 10     ecut=    70.00 Ry     beta= 0.70
     Davidson diagonalization with overlap
     ethr =  2.08E-05,  avg # of iterations =  2.0

     negative rho (up, down):  6.542E-04 0.000E+00

     total cpu time spent up to now is      647.5 secs

     total energy              =    -825.88637175 Ry
     Harris-Foulkes estimate   =    -825.88913293 Ry
     estimated scf accuracy    <       0.02524397 Ry

     iteration # 11     ecut=    70.00 Ry     beta= 0.70
     Davidson diagonalization with overlap
     ethr =  1.19E-05,  avg # of iterations =  1.0

     negative rho (up, down):  6.413E-04 0.000E+00

     total cpu time spent up to now is      696.9 secs

     total energy              =    -825.88705806 Ry
     Harris-Foulkes estimate   =    -825.89020331 Ry
     estimated scf accuracy    <       0.02195000 Ry

     iteration # 12     ecut=    70.00 Ry     beta= 0.70
     Davidson diagonalization with overlap
     ethr =  1.03E-05,  avg # of iterations =  1.0

     negative rho (up, down):  6.723E-04 0.000E+00

     total cpu time spent up to now is      746.3 secs

     total energy              =    -825.88718893 Ry
     Harris-Foulkes estimate   =    -825.88878566 Ry
     estimated scf accuracy    <       0.02264942 Ry

     iteration # 13     ecut=    70.00 Ry     beta= 0.70
     Davidson diagonalization with overlap
     ethr =  1.03E-05,  avg # of iterations =  1.0

     negative rho (up, down):  6.770E-04 0.000E+00

     total cpu time spent up to now is      796.6 secs

     total energy              =    -825.88794539 Ry
     Harris-Foulkes estimate   =    -825.88841159 Ry
     estimated scf accuracy    <       0.01360440 Ry

     iteration # 14     ecut=    70.00 Ry     beta= 0.70
     Davidson diagonalization with overlap
     ethr =  6.39E-06,  avg # of iterations =  1.0

     negative rho (up, down):  6.971E-04 0.000E+00

     total cpu time spent up to now is      845.8 secs

     total energy              =    -825.88779814 Ry
     Harris-Foulkes estimate   =    -825.88813199 Ry
     estimated scf accuracy    <       0.00421269 Ry

     iteration # 15     ecut=    70.00 Ry     beta= 0.70
     Davidson diagonalization with overlap
     ethr =  1.98E-06,  avg # of iterations =  1.0

     negative rho (up, down):  7.106E-04 0.000E+00

     total cpu time spent up to now is      895.3 secs

     total energy              =    -825.88794107 Ry
     Harris-Foulkes estimate   =    -825.88798351 Ry
     estimated scf accuracy    <       0.00038524 Ry

     iteration # 16     ecut=    70.00 Ry     beta= 0.70
     Davidson diagonalization with overlap
     ethr =  1.81E-07,  avg # of iterations =  2.0

     negative rho (up, down):  7.084E-04 0.000E+00

     total cpu time spent up to now is      945.0 secs

     total energy              =    -825.88795761 Ry
     Harris-Foulkes estimate   =    -825.88796520 Ry
     estimated scf accuracy    <       0.00002660 Ry

     iteration # 17     ecut=    70.00 Ry     beta= 0.70
     Davidson diagonalization with overlap
     ethr =  1.25E-08,  avg # of iterations =  4.0

     negative rho (up, down):  7.097E-04 0.000E+00

     total cpu time spent up to now is     1000.4 secs

     total energy              =    -825.88796020 Ry
     Harris-Foulkes estimate   =    -825.88796553 Ry
     estimated scf accuracy    <       0.00002380 Ry

     iteration # 18     ecut=    70.00 Ry     beta= 0.70
     Davidson diagonalization with overlap
     ethr =  1.12E-08,  avg # of iterations =  2.0

     negative rho (up, down):  7.118E-04 0.000E+00

     total cpu time spent up to now is     1050.3 secs

     total energy              =    -825.88796024 Ry
     Harris-Foulkes estimate   =    -825.88796548 Ry
     estimated scf accuracy    <       0.00010039 Ry

     iteration # 19     ecut=    70.00 Ry     beta= 0.70
     Davidson diagonalization with overlap
     ethr =  1.12E-08,  avg # of iterations =  1.0

     negative rho (up, down):  7.121E-04 0.000E+00

     total cpu time spent up to now is     1099.8 secs

     total energy              =    -825.88796255 Ry
     Harris-Foulkes estimate   =    -825.88796286 Ry
     estimated scf accuracy    <       0.00000242 Ry

     iteration # 20     ecut=    70.00 Ry     beta= 0.70
     Davidson diagonalization with overlap
     ethr =  1.14E-09,  avg # of iterations =  2.0

     negative rho (up, down):  7.124E-04 0.000E+00

     total cpu time spent up to now is     1149.2 secs

     End of self-consistent calculation

          k = 0.0000 0.0000 0.0000 ( 87777 PWs)   bands (ev):

   -80.2220 -49.8535 -49.8370 -48.5213 -19.6352 -18.7833 -18.7772 -18.7338
   -18.7307 -18.6922 -18.4104 -16.9586 -16.9576 -16.9391 -16.8671 -16.8621
   -16.5565 -16.1006 -16.0983 -16.0077 -15.9616 -15.9536 -15.2970 -13.9928
   -13.9872 -13.9347 -13.8617 -13.8603 -13.2839 -12.9425 -12.9410 -12.9101
   -12.6454 -12.6367 -12.1729 -11.7341 -11.7315 -11.5454 -11.2888 -11.2809
   -10.4152  -9.6041  -9.5981  -9.3460  -9.3268  -9.1777  -9.1759  -9.0821
    -9.0588  -9.0580  -9.0511  -8.5835  -8.5716  -8.0829  -8.0816  -7.9069
    -7.7240  -7.7112  -7.2951  -7.2923  -7.1126  -7.1037  -7.0146  -6.8062
    -6.8054  -6.6915  -6.6896  -6.6476  -6.6130  -6.4184  -6.4173  -6.4073
    -6.4060  -6.4050  -6.3646  -6.2392  -5.5915  -5.5012  -5.4137  -5.4111
    -5.1996  -5.1983  -4.9132  -4.8452  -4.7801  -4.6004  -4.5871  -4.5803
    -4.2201  -4.1355  -4.1219  -4.0785  -4.0755  -3.7012  -3.6939  -3.6463
    -3.5461  -3.5456  -2.9919  -2.5982  -2.5921  -1.7287  -1.6740  -1.6711
    -0.8530  -0.7894  -0.7887  -0.5747   1.0555   1.0830   1.0955   1.7164
     1.7250   1.7613   2.5337   2.7752   2.9378   2.9427   2.9772   3.0086
     3.4399   3.6007   3.6201   3.6787   3.7085   3.8210   3.8246   3.8590

     occupation numbers 
     1.0000   1.0000   1.0000   1.0000   1.0000   1.0000   1.0000   1.0000
     1.0000   1.0000   1.0000   1.0000   1.0000   1.0000   1.0000   1.0000
     1.0000   1.0000   1.0000   1.0000   1.0000   1.0000   1.0000   1.0000
     1.0000   1.0000   1.0000   1.0000   1.0000   1.0000   1.0000   1.0000
     1.0000   1.0000   1.0000   1.0000   1.0000   1.0000   1.0000   1.0000
     1.0000   1.0000   1.0000   1.0000   1.0000   1.0000   1.0000   1.0000
     1.0000   1.0000   1.0000   1.0000   1.0000   1.0000   1.0000   1.0000
     1.0000   1.0000   1.0000   1.0000   1.0000   1.0000   1.0000   1.0000
     1.0000   1.0000   1.0000   1.0000   1.0000   1.0000   1.0000   1.0000
     1.0000   1.0000   1.0000   1.0000   1.0000   1.0000   1.0000   1.0000
     1.0000   1.0000   1.0000   1.0000   1.0000   1.0000   1.0000   1.0000
     1.0000   1.0000   1.0000   1.0000   1.0000   1.0000   1.0000   1.0000
     1.0000   1.0000   1.0000   1.0000   1.0000   1.0000   1.0000   1.0000
     1.0000   0.7697   0.7303   0.0000   0.0000   0.0000   0.0000   0.0000
     0.0000   0.0000   0.0000   0.0000   0.0000   0.0000   0.0000   0.0000
     0.0000   0.0000   0.0000   0.0000   0.0000   0.0000   0.0000   0.0000

     the Fermi energy is    -0.7826 ev

!    total energy              =    -825.88796256 Ry
     Harris-Foulkes estimate   =    -825.88796273 Ry
     estimated scf accuracy    <       0.00000012 Ry

     The total energy is the sum of the following terms:

     one-electron contribution =   -2749.79789919 Ry
     hartree contribution      =    1420.26016086 Ry
     xc contribution           =    -259.72317887 Ry
     ewald contribution        =     763.37330333 Ry
     smearing contrib. (-TS)   =      -0.00034869 Ry

     convergence has been achieved in  20 iterations

     Writing output data file manganeso-bridge2-distance-2.0.save/

     init_run     :     52.39s CPU     53.46s WALL (       1 calls)
     electrons    :   1060.50s CPU   1094.77s WALL (       1 calls)

     Called by init_run:
     wfcinit      :     20.74s CPU     20.90s WALL (       1 calls)
     wfcinit:atom :      0.03s CPU      0.04s WALL (       1 calls)
     wfcinit:wfcr :     20.55s CPU     20.66s WALL (       1 calls)
     potinit      :     13.84s CPU     14.18s WALL (       1 calls)
     hinit0       :     13.07s CPU     13.10s WALL (       1 calls)

     Called by electrons:
     c_bands      :    645.03s CPU    649.02s WALL (      20 calls)
     sum_band     :    204.28s CPU    216.08s WALL (      20 calls)
     v_of_rho     :    128.94s CPU    136.92s WALL (      21 calls)
     v_h          :      1.47s CPU      1.53s WALL (      21 calls)
     v_xc         :    127.47s CPU    135.39s WALL (      21 calls)
     newd         :     86.19s CPU     97.33s WALL (      21 calls)
     mix_rho      :      3.92s CPU      4.00s WALL (      20 calls)

     Called by c_bands:
     init_us_2    :      1.79s CPU      1.84s WALL (      41 calls)
     cegterg      :    640.38s CPU    644.35s WALL (      20 calls)

     Called by sum_band:
     sum_band:bec :      0.02s CPU      0.02s WALL (      20 calls)
     addusdens    :    126.16s CPU    137.45s WALL (      20 calls)

     Called by *egterg:
     h_psi        :    336.55s CPU    339.29s WALL (      73 calls)
     s_psi        :    114.01s CPU    114.11s WALL (      73 calls)
     g_psi        :      0.37s CPU      0.37s WALL (      52 calls)
     cdiaghg      :      4.84s CPU      4.84s WALL (      72 calls)
     cegterg:over :     79.89s CPU     79.98s WALL (      52 calls)
     cegterg:upda :     47.71s CPU     48.04s WALL (      52 calls)
     cegterg:last :     39.83s CPU     39.85s WALL (      21 calls)

     Called by h_psi:
     h_psi:pot    :    336.19s CPU    338.44s WALL (      73 calls)
     h_psi:calbec :    113.43s CPU    113.54s WALL (      73 calls)
     vloc_psi     :    108.54s CPU    110.59s WALL (      73 calls)
     add_vuspsi   :    114.23s CPU    114.32s WALL (      73 calls)

     General routines
     calbec       :    161.39s CPU    161.55s WALL (      93 calls)
     fft          :     74.07s CPU     77.05s WALL (    1321 calls)
     ffts         :      0.70s CPU      0.73s WALL (      41 calls)
     fftw         :    115.17s CPU    117.38s WALL (   14666 calls)
     interpolate  :      1.73s CPU      1.79s WALL (      21 calls)

     Parallel routines
     fft_scatt_xy :     32.38s CPU     32.80s WALL (   16028 calls)
     fft_scatt_yz :     66.17s CPU     69.91s WALL (   16028 calls)

     PWSCF        :  18m34.10s CPU  19m 9.68s WALL


   This run was terminated on:   5: 5: 7   4Sep2022            

=------------------------------------------------------------------------------=
   JOB DONE.
=------------------------------------------------------------------------------=
