
     Program PWSCF v.6.4.1 starts on 23Mar2022 at 15:21:26 

     This program is part of the open-source Quantum ESPRESSO suite
     for quantum simulation of materials; please cite
         "P. Giannozzi et al., J. Phys.:Condens. Matter 21 395502 (2009);
         "P. Giannozzi et al., J. Phys.:Condens. Matter 29 465901 (2017);
          URL http://www.quantum-espresso.org", 
     in publications or presentations arising from this work. More details at
     http://www.quantum-espresso.org/quote

     Parallel version (MPI), running on     6 processors

     MPI processes distributed on     1 nodes
     R & G space division:  proc/nbgrp/npool/nimage =       6
     Reading input from ni-50.in
Warning: card NI1   58.6934    NI.PBE-SPN-RRKJUS_PSL.1.0.0.UPF ignored
Warning: card NI2   58.6934    NI.PBE-SPN-RRKJUS_PSL.1.0.0.UPF ignored

     Current dimensions of program PWSCF are:
     Max number of different atomic species (ntypx) = 10
     Max number of k-points (npk) =  40000
     Max angular momentum in pseudopotentials (lmaxx) =  3

     Subspace diagonalization in iterative solution of the eigenvalue problem:
     a serial algorithm will be used

     Found symmetry operation: I + (  0.0000 -0.5000 -0.5000)
     This is a supercell, fractional translations are disabled
     Message from routine setup:
     DEPRECATED: symmetry with ibrav=0, use correct ibrav instead

     Parallelization info
     --------------------
     sticks:   dense  smooth     PW     G-vecs:    dense   smooth      PW
     Min         116     116     35                 2332     2332     387
     Max         117     117     36                 2335     2335     388
     Sum         697     697    213                13997    13997    2325



     bravais-lattice index     =            0
     lattice parameter (alat)  =       6.6518  a.u.
     unit-cell volume          =     294.3233 (a.u.)^3
     number of atoms/cell      =            4
     number of atomic types    =            2
     number of electrons       =        72.00
     number of Kohn-Sham states=           43
     kinetic-energy cutoff     =      50.0000  Ry
     charge density cutoff     =     200.0000  Ry
     convergence threshold     =      1.0E-06
     mixing beta               =       0.7000
     number of iterations used =            8  plain     mixing
     Exchange-correlation      = PBE ( 1  4  3  4 0 0)

     celldm(1)=   6.651836  celldm(2)=   0.000000  celldm(3)=   0.000000
     celldm(4)=   0.000000  celldm(5)=   0.000000  celldm(6)=   0.000000

     crystal axes: (cart. coord. in units of alat)
               a(1) = (   1.000000   0.000000   0.000000 )  
               a(2) = (   0.000000   1.000000   0.000000 )  
               a(3) = (   0.000000   0.000000   1.000000 )  

     reciprocal axes: (cart. coord. in units 2 pi/alat)
               b(1) = (  1.000000  0.000000  0.000000 )  
               b(2) = (  0.000000  1.000000  0.000000 )  
               b(3) = (  0.000000  0.000000  1.000000 )  


     PseudoPot. # 1 for Ni read from file:
     /home/cristian/Escritorio/Proyecto_Grafeno/pseudopotenciales/Ni.pbe-spn-rrkjus_psl.1.0.0.UPF
     MD5 check sum: 8b3fc9aac6dafe35f580d41bb18c3945
     Pseudo is Ultrasoft + core correction, Zval = 18.0
     Generated using "atomic" code by A. Dal Corso v.6.3
     Using radial grid of 1195 points,  6 beta functions with: 
                l(1) =   0
                l(2) =   0
                l(3) =   1
                l(4) =   1
                l(5) =   2
                l(6) =   2
     Q(r) pseudized with 0 coefficients 


     PseudoPot. # 2 for Ni read from file:
     /home/cristian/Escritorio/Proyecto_Grafeno/pseudopotenciales/Ni.pbe-spn-rrkjus_psl.1.0.0.UPF
     MD5 check sum: 8b3fc9aac6dafe35f580d41bb18c3945
     Pseudo is Ultrasoft + core correction, Zval = 18.0
     Generated using "atomic" code by A. Dal Corso v.6.3
     Using radial grid of 1195 points,  6 beta functions with: 
                l(1) =   0
                l(2) =   0
                l(3) =   1
                l(4) =   1
                l(5) =   2
                l(6) =   2
     Q(r) pseudized with 0 coefficients 


     atomic species   valence    mass     pseudopotential
        Ni1           18.00    58.69340     Ni( 1.00)
        Ni2           18.00    58.69340     Ni( 1.00)

     Starting magnetic structure 
     atomic species   magnetization
        Ni1          0.100
        Ni2         -0.100

     16 Sym. Ops., with inversion, found



   Cartesian axes

     site n.     atom                  positions (alat units)
         1           Ni1 tau(   1) = (   0.0000000   0.0000000   0.0000000  )
         2           Ni2 tau(   2) = (   0.5000000   0.5000000   0.0000000  )
         3           Ni1 tau(   3) = (   0.0000000   0.5000000   0.5000000  )
         4           Ni2 tau(   4) = (   0.5000000   0.0000000   0.5000000  )

     number of k points=    40  Methfessel-Paxton smearing, width (Ry)=  0.0300
                       cart. coord. in units 2pi/alat
        k(    1) = (   0.0625000   0.0625000   0.0625000), wk =   0.0156250
        k(    2) = (   0.0625000   0.0625000   0.1875000), wk =   0.0312500
        k(    3) = (   0.0625000   0.0625000   0.3125000), wk =   0.0312500
        k(    4) = (   0.0625000   0.0625000   0.4375000), wk =   0.0312500
        k(    5) = (   0.0625000   0.1875000   0.1875000), wk =   0.0156250
        k(    6) = (   0.0625000   0.1875000   0.3125000), wk =   0.0312500
        k(    7) = (   0.0625000   0.1875000   0.4375000), wk =   0.0312500
        k(    8) = (   0.0625000   0.3125000   0.3125000), wk =   0.0156250
        k(    9) = (   0.0625000   0.3125000   0.4375000), wk =   0.0312500
        k(   10) = (   0.0625000   0.4375000   0.4375000), wk =   0.0156250
        k(   11) = (   0.1875000   0.1875000   0.1875000), wk =   0.0156250
        k(   12) = (   0.1875000   0.1875000   0.3125000), wk =   0.0312500
        k(   13) = (   0.1875000   0.1875000   0.4375000), wk =   0.0312500
        k(   14) = (   0.1875000   0.3125000   0.3125000), wk =   0.0156250
        k(   15) = (   0.1875000   0.3125000   0.4375000), wk =   0.0312500
        k(   16) = (   0.1875000   0.4375000   0.4375000), wk =   0.0156250
        k(   17) = (   0.3125000   0.3125000   0.3125000), wk =   0.0156250
        k(   18) = (   0.3125000   0.3125000   0.4375000), wk =   0.0312500
        k(   19) = (   0.3125000   0.4375000   0.4375000), wk =   0.0156250
        k(   20) = (   0.4375000   0.4375000   0.4375000), wk =   0.0156250
        k(   21) = (   0.1875000   0.0625000   0.0625000), wk =   0.0156250
        k(   22) = (   0.3125000   0.0625000   0.0625000), wk =   0.0156250
        k(   23) = (   0.4375000   0.0625000   0.0625000), wk =   0.0156250
        k(   24) = (   0.1875000   0.1875000   0.0625000), wk =   0.0312500
        k(   25) = (   0.1875000   0.3125000   0.0625000), wk =   0.0312500
        k(   26) = (   0.3125000   0.0625000   0.1875000), wk =   0.0312500
        k(   27) = (   0.1875000   0.4375000   0.0625000), wk =   0.0312500
        k(   28) = (   0.4375000   0.0625000   0.1875000), wk =   0.0312500
        k(   29) = (   0.3125000   0.3125000   0.0625000), wk =   0.0312500
        k(   30) = (   0.3125000   0.4375000   0.0625000), wk =   0.0312500
        k(   31) = (   0.4375000   0.0625000   0.3125000), wk =   0.0312500
        k(   32) = (   0.4375000   0.4375000   0.0625000), wk =   0.0312500
        k(   33) = (   0.3125000   0.1875000   0.1875000), wk =   0.0156250
        k(   34) = (   0.4375000   0.1875000   0.1875000), wk =   0.0156250
        k(   35) = (   0.3125000   0.3125000   0.1875000), wk =   0.0312500
        k(   36) = (   0.3125000   0.4375000   0.1875000), wk =   0.0312500
        k(   37) = (   0.4375000   0.1875000   0.3125000), wk =   0.0312500
        k(   38) = (   0.4375000   0.4375000   0.1875000), wk =   0.0312500
        k(   39) = (   0.4375000   0.3125000   0.3125000), wk =   0.0156250
        k(   40) = (   0.4375000   0.4375000   0.3125000), wk =   0.0312500

     Dense  grid:    13997 G-vectors     FFT dimensions: (  30,  30,  30)

     Estimated max dynamical RAM per process >      27.21 MB

     Estimated total dynamical RAM >     163.26 MB
     Generating pointlists ...
     new r_m :   0.2917 (alat units)  1.9402 (a.u.) for type    1
     new r_m :   0.2917 (alat units)  1.9402 (a.u.) for type    2

     Check: negative core charge=   -0.000020

     Initial potential from superposition of free atoms

     starting charge   71.99900, renormalised to   72.00000
     Starting wfcs are   40 randomized atomic wfcs +    3 random wfcs

     total cpu time spent up to now is        3.0 secs

     Self-consistent Calculation

     iteration #  1     ecut=    50.00 Ry     beta= 0.70
     Davidson diagonalization with overlap
     ethr =  1.00E-02,  avg # of iterations =  3.0

     Threshold (ethr) on eigenvalues was too large:
     Diagonalizing with lowered threshold

     Davidson diagonalization with overlap
     ethr =  1.83E-04,  avg # of iterations =  1.9

     total cpu time spent up to now is       13.2 secs

     total energy              =   -1358.18112287 Ry
     Harris-Foulkes estimate   =   -1358.13118351 Ry
     estimated scf accuracy    <       0.13230141 Ry

     total magnetization       =     0.00 Bohr mag/cell
     absolute magnetization    =     3.24 Bohr mag/cell

     iteration #  2     ecut=    50.00 Ry     beta= 0.70
     Davidson diagonalization with overlap
     ethr =  1.84E-04,  avg # of iterations =  1.1

     total cpu time spent up to now is       17.2 secs

     total energy              =   -1358.20229117 Ry
     Harris-Foulkes estimate   =   -1358.19290571 Ry
     estimated scf accuracy    <       0.04597920 Ry

     total magnetization       =     0.00 Bohr mag/cell
     absolute magnetization    =     2.50 Bohr mag/cell

     iteration #  3     ecut=    50.00 Ry     beta= 0.70
     Davidson diagonalization with overlap
     ethr =  6.39E-05,  avg # of iterations =  2.7

     total cpu time spent up to now is       23.5 secs

     total energy              =   -1358.20094449 Ry
     Harris-Foulkes estimate   =   -1358.23287471 Ry
     estimated scf accuracy    <       0.10842214 Ry

     total magnetization       =    -0.00 Bohr mag/cell
     absolute magnetization    =     1.72 Bohr mag/cell

     iteration #  4     ecut=    50.00 Ry     beta= 0.70
     Davidson diagonalization with overlap
     ethr =  6.39E-05,  avg # of iterations =  2.6

     total cpu time spent up to now is       29.4 secs

     total energy              =   -1358.22151582 Ry
     Harris-Foulkes estimate   =   -1358.22114619 Ry
     estimated scf accuracy    <       0.00439925 Ry

     total magnetization       =     0.01 Bohr mag/cell
     absolute magnetization    =     1.26 Bohr mag/cell

     iteration #  5     ecut=    50.00 Ry     beta= 0.70
     Davidson diagonalization with overlap
     ethr =  6.11E-06,  avg # of iterations =  2.3

     total cpu time spent up to now is       34.6 secs

     total energy              =   -1358.22107820 Ry
     Harris-Foulkes estimate   =   -1358.22528011 Ry
     estimated scf accuracy    <       0.04071598 Ry

     total magnetization       =    -0.09 Bohr mag/cell
     absolute magnetization    =     0.83 Bohr mag/cell

     iteration #  6     ecut=    50.00 Ry     beta= 0.70
     Davidson diagonalization with overlap
     ethr =  6.11E-06,  avg # of iterations =  2.0

     total cpu time spent up to now is       39.3 secs

     total energy              =   -1358.22346371 Ry
     Harris-Foulkes estimate   =   -1358.22378530 Ry
     estimated scf accuracy    <       0.00390989 Ry

     total magnetization       =     0.03 Bohr mag/cell
     absolute magnetization    =     0.79 Bohr mag/cell

     iteration #  7     ecut=    50.00 Ry     beta= 0.70
     Davidson diagonalization with overlap
     ethr =  5.43E-06,  avg # of iterations =  1.4

     total cpu time spent up to now is       43.4 secs

     total energy              =   -1358.22435483 Ry
     Harris-Foulkes estimate   =   -1358.22452323 Ry
     estimated scf accuracy    <       0.00133395 Ry

     total magnetization       =     0.01 Bohr mag/cell
     absolute magnetization    =     0.48 Bohr mag/cell

     iteration #  8     ecut=    50.00 Ry     beta= 0.70
     Davidson diagonalization with overlap
     ethr =  1.85E-06,  avg # of iterations =  1.3

     total cpu time spent up to now is       47.6 secs

     total energy              =   -1358.22440016 Ry
     Harris-Foulkes estimate   =   -1358.22458659 Ry
     estimated scf accuracy    <       0.00178446 Ry

     total magnetization       =    -0.00 Bohr mag/cell
     absolute magnetization    =     0.46 Bohr mag/cell

     iteration #  9     ecut=    50.00 Ry     beta= 0.70
     Davidson diagonalization with overlap
     ethr =  1.85E-06,  avg # of iterations =  1.7

     total cpu time spent up to now is       51.9 secs

     total energy              =   -1358.22479378 Ry
     Harris-Foulkes estimate   =   -1358.22487512 Ry
     estimated scf accuracy    <       0.00008846 Ry

     total magnetization       =     0.02 Bohr mag/cell
     absolute magnetization    =     0.26 Bohr mag/cell

     iteration # 10     ecut=    50.00 Ry     beta= 0.70
     Davidson diagonalization with overlap
     ethr =  1.23E-07,  avg # of iterations =  2.8

     total cpu time spent up to now is       58.3 secs

     total energy              =   -1358.22494685 Ry
     Harris-Foulkes estimate   =   -1358.22497651 Ry
     estimated scf accuracy    <       0.00001361 Ry

     total magnetization       =     0.03 Bohr mag/cell
     absolute magnetization    =     0.13 Bohr mag/cell

     iteration # 11     ecut=    50.00 Ry     beta= 0.70
     Davidson diagonalization with overlap
     ethr =  1.89E-08,  avg # of iterations =  3.0

     total cpu time spent up to now is       65.1 secs

     total energy              =   -1358.22500777 Ry
     Harris-Foulkes estimate   =   -1358.22500738 Ry
     estimated scf accuracy    <       0.00001296 Ry

     total magnetization       =     0.06 Bohr mag/cell
     absolute magnetization    =     0.07 Bohr mag/cell

     iteration # 12     ecut=    50.00 Ry     beta= 0.70
     Davidson diagonalization with overlap
     ethr =  1.80E-08,  avg # of iterations =  1.0

     total cpu time spent up to now is       69.0 secs

     total energy              =   -1358.22500562 Ry
     Harris-Foulkes estimate   =   -1358.22500809 Ry
     estimated scf accuracy    <       0.00001220 Ry

     total magnetization       =     0.06 Bohr mag/cell
     absolute magnetization    =     0.07 Bohr mag/cell

     iteration # 13     ecut=    50.00 Ry     beta= 0.70
     Davidson diagonalization with overlap
     ethr =  1.69E-08,  avg # of iterations =  1.0

     total cpu time spent up to now is       73.1 secs

     total energy              =   -1358.22499942 Ry
     Harris-Foulkes estimate   =   -1358.22500646 Ry
     estimated scf accuracy    <       0.00000982 Ry

     total magnetization       =     0.05 Bohr mag/cell
     absolute magnetization    =     0.06 Bohr mag/cell

     iteration # 14     ecut=    50.00 Ry     beta= 0.70
     Davidson diagonalization with overlap
     ethr =  1.36E-08,  avg # of iterations =  2.0

     total cpu time spent up to now is       77.8 secs

     total energy              =   -1358.22500526 Ry
     Harris-Foulkes estimate   =   -1358.22500689 Ry
     estimated scf accuracy    <       0.00000341 Ry

     total magnetization       =     0.03 Bohr mag/cell
     absolute magnetization    =     0.03 Bohr mag/cell

     iteration # 15     ecut=    50.00 Ry     beta= 0.70
     Davidson diagonalization with overlap
     ethr =  4.73E-09,  avg # of iterations =  1.5

     total cpu time spent up to now is       82.1 secs

     total energy              =   -1358.22500474 Ry
     Harris-Foulkes estimate   =   -1358.22500645 Ry
     estimated scf accuracy    <       0.00000236 Ry

     total magnetization       =     0.01 Bohr mag/cell
     absolute magnetization    =     0.02 Bohr mag/cell

     iteration # 16     ecut=    50.00 Ry     beta= 0.70
     Davidson diagonalization with overlap
     ethr =  3.28E-09,  avg # of iterations =  1.5

     total cpu time spent up to now is       86.8 secs

     total energy              =   -1358.22500619 Ry
     Harris-Foulkes estimate   =   -1358.22500669 Ry
     estimated scf accuracy    <       0.00000521 Ry

     total magnetization       =     0.00 Bohr mag/cell
     absolute magnetization    =     0.00 Bohr mag/cell

     iteration # 17     ecut=    50.00 Ry     beta= 0.70
     Davidson diagonalization with overlap
     ethr =  3.28E-09,  avg # of iterations =  1.0

     Magnetic moment per site:
     atom:    1    charge:   16.7079    magn:    0.0012    constr:    0.0000
     atom:    2    charge:   16.7083    magn:   -0.0008    constr:    0.0000
     atom:    3    charge:   16.7086    magn:    0.0013    constr:    0.0000
     atom:    4    charge:   16.7083    magn:   -0.0008    constr:    0.0000

     total cpu time spent up to now is       90.9 secs

     End of self-consistent calculation

 ------ SPIN UP ------------


          k = 0.0625 0.0625 0.0625 (  1779 PWs)   bands (ev):

   -85.3112 -85.2686 -85.2677 -85.2670 -45.7386 -45.7386 -45.7386 -45.6279
   -45.6275 -45.6272 -45.6211 -45.6208 -45.6203 -45.5213 -45.5213 -45.5208
     9.0262  13.5112  13.5113  13.5115  14.1038  14.1038  14.1038  15.8668
    15.9447  15.9447  16.9914  16.9915  17.6308  17.6313  17.6317  17.6596
    17.6599  17.6604  17.8944  17.8949  17.8954  20.3688  20.3688  20.3689
    27.6592  27.6592  27.6592

          k = 0.0625 0.0625 0.1875 (  1772 PWs)   bands (ev):

   -85.3079 -85.2713 -85.2678 -85.2675 -45.7319 -45.7319 -45.7300 -45.6323
   -45.6323 -45.6167 -45.6156 -45.6136 -45.6132 -45.5440 -45.5198 -45.5169
     9.4292  13.4907  13.7182  13.7184  14.2292  14.2371  14.2371  15.7340
    16.0472  16.0520  16.8638  16.9311  16.9311  17.0531  17.3238  17.5020
    17.5022  17.5267  17.7771  17.8798  17.8801  18.9697  21.3855  21.3855
    27.7689  27.7689  29.8995

          k = 0.0625 0.0625 0.3125 (  1757 PWs)   bands (ev):

   -85.3018 -85.2772 -85.2679 -85.2675 -45.7131 -45.7130 -45.6927 -45.6431
   -45.6430 -45.5978 -45.5975 -45.5972 -45.5942 -45.5922 -45.5378 -45.5315
    10.1990  13.2367  14.0616  14.0618  14.4630  14.5109  14.5110  15.4694
    16.1435  16.1436  16.2292  16.2495  16.6659  16.6953  17.1650  17.2187
    17.2190  17.2509  17.6304  17.7816  17.8756  17.8760  22.7786  22.7786
    27.6569  27.6569  28.3528

          k = 0.0625 0.0625 0.4375 (  1755 PWs)   bands (ev):

   -85.2938 -85.2851 -85.2679 -85.2676 -45.6898 -45.6897 -45.6649 -45.6648
   -45.6569 -45.6144 -45.5958 -45.5955 -45.5794 -45.5736 -45.5612 -45.5593
    11.2650  12.4221  14.3618  14.3620  14.7772  14.9029  14.9030  15.1307
    15.4571  15.4572  16.2530  16.2655  16.5398  16.7348  16.8945  16.9650
    16.9653  17.1435  17.3099  17.4721  17.8750  17.8754  24.3285  24.3286
    26.0605  26.0605  28.6225

          k = 0.0625 0.1875 0.1875 (  1761 PWs)   bands (ev):

   -85.3049 -85.2716 -85.2700 -85.2679 -45.7231 -45.7224 -45.7172 -45.6260
   -45.6200 -45.6185 -45.6029 -45.6022 -45.5988 -45.5863 -45.5249 -45.5171
     9.8172  13.7170  13.7172  13.9102  14.3492  14.3526  14.3527  15.6520
    16.0916  16.1042  16.5788  16.5976  16.5989  16.8417  17.0617  17.3380
    17.4046  17.4050  17.7580  17.7585  17.7951  19.8987  19.8993  22.1661
    27.2950  28.2693  29.9524

          k = 0.0625 0.1875 0.3125 (  1770 PWs)   bands (ev):

   -85.2992 -85.2765 -85.2702 -85.2684 -45.7147 -45.7069 -45.6970 -45.6503
   -45.6353 -45.6155 -45.6052 -45.6010 -45.5946 -45.5909 -45.5515 -45.5322
    10.5654  13.4892  14.0949  14.2221  14.5406  14.5651  14.5946  15.4469
    15.8750  16.0154  16.1344  16.1466  16.2614  16.7375  17.1000  17.1415
    17.1792  17.2201  17.5618  17.7134  17.7253  18.5481  21.0415  23.3566
    25.5222  28.3575  28.4601

          k = 0.0625 0.1875 0.4375 (  1759 PWs)   bands (ev):

   -85.2918 -85.2838 -85.2697 -85.2690 -45.6936 -45.6932 -45.6731 -45.6642
   -45.6510 -45.6381 -45.5902 -45.5866 -45.5842 -45.5760 -45.5646 -45.5467
    11.5999  12.7102  14.4687  14.5397  14.7715  14.8499  14.9037  15.1626
    15.3119  15.4706  15.9412  16.0635  16.5057  16.8094  16.8654  16.8992
    16.9384  17.2306  17.4607  17.6959  17.6983  17.8073  22.2996  23.6331
    25.0595  26.6032  29.0676

          k = 0.0625 0.3125 0.3125 (  1760 PWs)   bands (ev):

   -85.2944 -85.2759 -85.2743 -85.2697 -45.6962 -45.6950 -45.6946 -45.6655
   -45.6355 -45.6168 -45.6155 -45.5904 -45.5778 -45.5766 -45.5682 -45.5317
    11.2695  13.9219  13.9220  14.4552  14.6433  14.7700  14.7705  15.3652
    15.6050  15.6061  15.7602  16.0680  16.3353  16.7014  16.9037  16.9967
    16.9968  17.4581  17.4587  17.4743  17.5619  19.4528  19.4539  23.2370
    24.7083  28.9049  29.2792

          k = 0.0625 0.3125 0.4375 (  1750 PWs)   bands (ev):

   -85.2881 -85.2814 -85.2733 -85.2714 -45.6965 -45.6960 -45.6824 -45.6599
   -45.6531 -45.6324 -45.5987 -45.5795 -45.5780 -45.5628 -45.5586 -45.5364
    12.2220  13.2221  14.3578  14.5544  14.8455  14.9892  15.0014  15.2032
    15.2627  15.4514  15.6578  15.8992  16.4780  16.7139  16.7496  16.8027
    16.8162  17.1292  17.4199  17.4505  17.8601  18.4344  20.4802  21.7282
    25.9647  27.5214  29.6540

          k = 0.0625 0.4375 0.4375 (  1744 PWs)   bands (ev):

   -85.2834 -85.2789 -85.2773 -85.2746 -45.6919 -45.6863 -45.6849 -45.6762
   -45.6325 -45.6115 -45.6102 -45.5973 -45.5698 -45.5565 -45.5549 -45.5483
    13.0146  13.7986  13.7991  14.2518  15.1690  15.1722  15.1730  15.2192
    15.3686  15.4460  15.4471  15.7255  16.4448  16.5786  16.5793  16.5796
    16.8769  17.1142  17.1151  17.2339  18.4100  19.2089  19.2102  20.2519
    27.2342  28.7557  28.7557

          k = 0.1875 0.1875 0.1875 (  1755 PWs)   bands (ev):

   -85.3021 -85.2716 -85.2707 -85.2700 -45.7179 -45.7175 -45.7172 -45.6166
   -45.6115 -45.6106 -45.6101 -45.6000 -45.5997 -45.5992 -45.5194 -45.5193
    10.1949  13.9038  13.9040  13.9042  14.4585  14.4586  14.4587  15.6063
    16.1160  16.1160  16.3070  16.3075  16.3079  16.9724  16.9724  17.1158
    17.1162  17.1166  17.8196  17.8200  17.8205  20.5045  20.5046  20.5048
    28.0356  28.0356  28.0357

          k = 0.1875 0.1875 0.3125 (  1763 PWs)   bands (ev):

   -85.2969 -85.2761 -85.2709 -85.2705 -45.7110 -45.7109 -45.7026 -45.6329
   -45.6309 -45.6305 -45.5978 -45.5936 -45.5933 -45.5928 -45.5423 -45.5359
    10.9128  13.6691  14.2017  14.2018  14.6422  14.6423  14.6754  15.4639
    15.8516  15.8518  15.9504  16.1275  16.1715  16.8206  16.9140  16.9143
    16.9324  17.1895  17.7535  17.7537  17.7692  18.9194  21.4155  21.4155
    26.1304  26.1304  28.9746

          k = 0.1875 0.1875 0.4375 (  1758 PWs)   bands (ev):

   -85.2901 -85.2827 -85.2709 -85.2705 -45.7103 -45.7101 -45.6855 -45.6604
   -45.6313 -45.6310 -45.5824 -45.5822 -45.5814 -45.5735 -45.5601 -45.5564
    11.8907  12.9319  14.5051  14.5053  14.7643  14.7645  14.9553  15.2294
    15.5372  15.5374  15.8533  16.0061  16.3112  16.5351  16.7545  16.7548
    17.1866  17.4239  17.6292  17.6872  17.6875  17.8265  22.3269  22.3269
    24.7371  24.7371  30.2162

          k = 0.1875 0.3125 0.3125 (  1756 PWs)   bands (ev):

   -85.2925 -85.2759 -85.2743 -85.2716 -45.7129 -45.7093 -45.7083 -45.6555
   -45.6240 -45.6056 -45.6043 -45.5904 -45.5816 -45.5805 -45.5513 -45.5327
    11.5650  13.9324  13.9325  14.2726  14.8160  14.8898  14.8901  15.4579
    15.6961  15.6970  15.7871  16.0705  16.1468  16.6444  16.6447  16.6586
    17.0009  17.3841  17.6970  17.7096  17.7102  19.6193  19.6201  21.8217
    24.5295  27.0254  27.0254

          k = 0.1875 0.3125 0.4375 (  1750 PWs)   bands (ev):

   -85.2869 -85.2808 -85.2738 -85.2726 -45.7196 -45.7150 -45.6982 -45.6798
   -45.6196 -45.6142 -45.5872 -45.5719 -45.5691 -45.5638 -45.5597 -45.5445
    12.4191  13.2923  14.1479  14.2594  15.0153  15.0713  15.1780  15.3715
    15.6132  15.7053  15.7280  15.9181  16.2110  16.3869  16.5104  16.5245
    17.1856  17.5178  17.6080  17.6095  17.7439  18.3795  20.4882  21.4262
    24.3999  25.4578  28.2227

          k = 0.1875 0.4375 0.4375 (  1748 PWs)   bands (ev):

   -85.2827 -85.2789 -85.2773 -85.2752 -45.7243 -45.7102 -45.7092 -45.6954
   -45.6037 -45.5951 -45.5943 -45.5847 -45.5720 -45.5539 -45.5523 -45.5460
    13.0550  13.6588  13.6589  13.9680  15.3151  15.4260  15.4264  15.5221
    15.6642  15.6644  15.7533  15.7971  16.1740  16.2991  16.2992  16.3238
    17.1999  17.4106  17.4111  17.4646  18.2708  19.1032  19.1044  20.1052
    25.2536  26.5668  26.5668

          k = 0.3125 0.3125 0.3125 (  1746 PWs)   bands (ev):

   -85.2890 -85.2759 -85.2749 -85.2742 -45.7237 -45.7233 -45.7228 -45.6817
   -45.5904 -45.5894 -45.5888 -45.5829 -45.5827 -45.5822 -45.5297 -45.5297
    12.1040  13.9045  13.9046  13.9048  15.1380  15.1382  15.1384  15.6234
    15.8301  15.8306  15.8311  16.0470  16.0470  16.3827  16.3831  16.3835
    17.3097  17.3097  17.7746  17.7750  17.7755  19.9382  19.9384  19.9385
    25.2223  25.2223  25.2223

          k = 0.3125 0.3125 0.4375 (  1759 PWs)   bands (ev):

   -85.2845 -85.2797 -85.2751 -85.2748 -45.7400 -45.7399 -45.7187 -45.7027
   -45.5933 -45.5930 -45.5709 -45.5694 -45.5688 -45.5684 -45.5584 -45.5539
    12.7481  13.3843  13.8758  13.8759  15.3280  15.3282  15.5129  15.7386
    15.8726  15.9264  15.9748  15.9750  16.0430  16.1614  16.2508  16.2510
    17.5492  17.5656  17.7072  17.7074  17.7321  18.4348  20.2468  20.2468
    24.1445  24.1445  26.3068

          k = 0.3125 0.4375 0.4375 (  1757 PWs)   bands (ev):

   -85.2815 -85.2788 -85.2773 -85.2764 -45.7463 -45.7352 -45.7344 -45.7200
   -45.5850 -45.5799 -45.5792 -45.5721 -45.5664 -45.5541 -45.5527 -45.5471
    13.1218  13.4967  13.4968  13.6470  15.5685  15.6559  15.6566  15.8660
    15.9740  16.0503  16.0503  16.0742  16.1726  16.2012  16.2014  16.2577
    17.4913  17.6583  17.6588  17.6634  17.9859  18.8501  18.8511  19.5552
    24.0451  24.8759  24.8759

          k = 0.4375 0.4375 0.4375 (  1760 PWs)   bands (ev):

   -85.2802 -85.2788 -85.2777 -85.2773 -45.7589 -45.7586 -45.7582 -45.7353
   -45.5695 -45.5687 -45.5681 -45.5565 -45.5563 -45.5558 -45.5450 -45.5450
    13.2337  13.3960  13.3960  13.3961  15.7815  15.7816  15.7816  15.8878
    15.8878  15.9199  15.9202  15.9207  16.8158  16.8160  16.8162  17.0068
    17.6860  17.6860  17.7443  17.7447  17.7452  18.5035  18.5037  18.5038
    23.9502  23.9503  23.9503

          k = 0.1875 0.0625 0.0625 (  1772 PWs)   bands (ev):

   -85.3079 -85.2711 -85.2685 -85.2670 -45.7320 -45.7318 -45.7300 -45.6324
   -45.6322 -45.6167 -45.6156 -45.6140 -45.6126 -45.5440 -45.5198 -45.5169
     9.4292  13.4907  13.7181  13.7185  14.2292  14.2371  14.2371  15.7339
    16.0472  16.0520  16.8638  16.9310  16.9312  17.0530  17.3238  17.5016
    17.5025  17.5267  17.7771  17.8790  17.8807  18.9697  21.3855  21.3855
    27.7689  27.7689  29.9002

          k = 0.3125 0.0625 0.0625 (  1757 PWs)   bands (ev):

   -85.3018 -85.2771 -85.2685 -85.2669 -45.7132 -45.7130 -45.6926 -45.6432
   -45.6429 -45.5982 -45.5973 -45.5968 -45.5943 -45.5922 -45.5378 -45.5315
    10.1990  13.2367  14.0614  14.0620  14.4630  14.5109  14.5110  15.4693
    16.1435  16.1436  16.2292  16.2495  16.6660  16.6953  17.1650  17.2183
    17.2194  17.2509  17.6304  17.7816  17.8749  17.8767  22.7786  22.7786
    27.6569  27.6570  28.3528

          k = 0.4375 0.0625 0.0625 (  1755 PWs)   bands (ev):

   -85.2938 -85.2850 -85.2685 -85.2670 -45.6900 -45.6896 -45.6652 -45.6645
   -45.6568 -45.6143 -45.5962 -45.5950 -45.5795 -45.5736 -45.5611 -45.5593
    11.2650  12.4221  14.3615  14.3623  14.7772  14.9029  14.9031  15.1307
    15.4571  15.4573  16.2530  16.2656  16.5398  16.7349  16.8945  16.9645
    16.9659  17.1435  17.3099  17.4721  17.8742  17.8761  24.3285  24.3286
    26.0605  26.0605  28.6225

          k = 0.1875 0.1875 0.0625 (  1761 PWs)   bands (ev):

   -85.3049 -85.2711 -85.2706 -85.2678 -45.7228 -45.7227 -45.7172 -45.6260
   -45.6195 -45.6191 -45.6026 -45.6025 -45.5987 -45.5862 -45.5249 -45.5171
     9.8172  13.7171  13.7172  13.9102  14.3492  14.3526  14.3527  15.6519
    16.0916  16.1042  16.5788  16.5981  16.5984  16.8417  17.0617  17.3380
    17.4047  17.4048  17.7582  17.7583  17.7951  19.8990  19.8990  22.1661
    27.2950  28.2693  29.9524

          k = 0.1875 0.3125 0.0625 (  1770 PWs)   bands (ev):

   -85.2992 -85.2765 -85.2703 -85.2684 -45.7146 -45.7069 -45.6970 -45.6503
   -45.6354 -45.6155 -45.6053 -45.6010 -45.5945 -45.5909 -45.5515 -45.5322
    10.5654  13.4892  14.0949  14.2221  14.5406  14.5651  14.5946  15.4469
    15.8750  16.0154  16.1344  16.1467  16.2614  16.7375  17.1000  17.1415
    17.1791  17.2201  17.5618  17.7134  17.7253  18.5481  21.0415  23.3565
    25.5222  28.3575  28.4601

          k = 0.3125 0.0625 0.1875 (  1770 PWs)   bands (ev):

   -85.2992 -85.2764 -85.2706 -85.2682 -45.7147 -45.7069 -45.6970 -45.6503
   -45.6353 -45.6155 -45.6053 -45.6010 -45.5944 -45.5910 -45.5515 -45.5322
    10.5654  13.4892  14.0949  14.2221  14.5406  14.5651  14.5946  15.4468
    15.8750  16.0154  16.1344  16.1467  16.2614  16.7375  17.1000  17.1415
    17.1792  17.2201  17.5618  17.7133  17.7253  18.5481  21.0415  23.3565
    25.5222  28.3575  28.4601

          k = 0.1875 0.4375 0.0625 (  1759 PWs)   bands (ev):

   -85.2918 -85.2838 -85.2697 -85.2690 -45.6936 -45.6932 -45.6731 -45.6642
   -45.6511 -45.6381 -45.5901 -45.5866 -45.5842 -45.5760 -45.5646 -45.5466
    11.5999  12.7102  14.4687  14.5397  14.7715  14.8499  14.9037  15.1626
    15.3120  15.4706  15.9412  16.0635  16.5056  16.8094  16.8654  16.8992
    16.9384  17.2306  17.4607  17.6959  17.6983  17.8073  22.2996  23.6331
    25.0595  26.6032  29.0676

          k = 0.4375 0.0625 0.1875 (  1759 PWs)   bands (ev):

   -85.2918 -85.2837 -85.2702 -85.2685 -45.6940 -45.6929 -45.6731 -45.6643
   -45.6510 -45.6381 -45.5901 -45.5865 -45.5843 -45.5760 -45.5646 -45.5466
    11.5999  12.7102  14.4687  14.5397  14.7715  14.8498  14.9037  15.1626
    15.3120  15.4706  15.9412  16.0635  16.5057  16.8094  16.8655  16.8992
    16.9384  17.2306  17.4606  17.6957  17.6985  17.8073  22.2996  23.6331
    25.0595  26.6032  29.0676

          k = 0.3125 0.3125 0.0625 (  1760 PWs)   bands (ev):

   -85.2944 -85.2753 -85.2749 -85.2697 -45.6957 -45.6955 -45.6945 -45.6655
   -45.6356 -45.6164 -45.6160 -45.5904 -45.5773 -45.5770 -45.5683 -45.5317
    11.2695  13.9219  13.9219  14.4552  14.6433  14.7702  14.7703  15.3652
    15.6055  15.6057  15.7602  16.0680  16.3352  16.7014  16.9037  16.9968
    16.9968  17.4583  17.4584  17.4743  17.5619  19.4533  19.4535  23.2370
    24.7083  28.9049  29.2792

          k = 0.3125 0.4375 0.0625 (  1750 PWs)   bands (ev):

   -85.2881 -85.2814 -85.2733 -85.2714 -45.6965 -45.6959 -45.6825 -45.6599
   -45.6532 -45.6324 -45.5987 -45.5795 -45.5780 -45.5627 -45.5587 -45.5363
    12.2220  13.2221  14.3578  14.5544  14.8454  14.9892  15.0014  15.2032
    15.2627  15.4514  15.6578  15.8992  16.4780  16.7140  16.7496  16.8027
    16.8162  17.1292  17.4199  17.4505  17.8601  18.4344  20.4802  21.7282
    25.9647  27.5214  29.6540

          k = 0.4375 0.0625 0.3125 (  1750 PWs)   bands (ev):

   -85.2882 -85.2812 -85.2736 -85.2712 -45.6967 -45.6957 -45.6824 -45.6599
   -45.6532 -45.6324 -45.5988 -45.5795 -45.5780 -45.5627 -45.5587 -45.5364
    12.2220  13.2221  14.3578  14.5544  14.8454  14.9891  15.0014  15.2032
    15.2627  15.4514  15.6578  15.8992  16.4780  16.7139  16.7496  16.8027
    16.8162  17.1292  17.4199  17.4505  17.8601  18.4344  20.4802  21.7282
    25.9647  27.5214  29.6540

          k = 0.4375 0.4375 0.0625 (  1744 PWs)   bands (ev):

   -85.2834 -85.2784 -85.2779 -85.2745 -45.6919 -45.6857 -45.6854 -45.6762
   -45.6326 -45.6111 -45.6108 -45.5973 -45.5697 -45.5558 -45.5555 -45.5483
    13.0146  13.7988  13.7989  14.2518  15.1690  15.1725  15.1727  15.2192
    15.3686  15.4464  15.4467  15.7254  16.4448  16.5786  16.5791  16.5800
    16.8769  17.1145  17.1147  17.2339  18.4101  19.2094  19.2096  20.2519
    27.2342  28.7557  28.7557

          k = 0.3125 0.1875 0.1875 (  1763 PWs)   bands (ev):

   -85.2969 -85.2759 -85.2715 -85.2700 -45.7113 -45.7105 -45.7026 -45.6326
   -45.6315 -45.6301 -45.5978 -45.5936 -45.5933 -45.5928 -45.5423 -45.5359
    10.9128  13.6691  14.2015  14.2020  14.6421  14.6424  14.6754  15.4639
    15.8513  15.8521  15.9504  16.1275  16.1715  16.8206  16.9136  16.9148
    16.9324  17.1895  17.7530  17.7542  17.7692  18.9195  21.4154  21.4155
    26.1304  26.1304  28.9746

          k = 0.4375 0.1875 0.1875 (  1758 PWs)   bands (ev):

   -85.2901 -85.2826 -85.2715 -85.2700 -45.7107 -45.7097 -45.6855 -45.6604
   -45.6319 -45.6303 -45.5825 -45.5818 -45.5815 -45.5736 -45.5601 -45.5564
    11.8907  12.9319  14.5049  14.5055  14.7640  14.7648  14.9553  15.2294
    15.5368  15.5378  15.8533  16.0061  16.3112  16.5351  16.7540  16.7554
    17.1867  17.4238  17.6292  17.6867  17.6880  17.8265  22.3269  22.3269
    24.7371  24.7371  30.2162

          k = 0.3125 0.3125 0.1875 (  1756 PWs)   bands (ev):

   -85.2925 -85.2754 -85.2749 -85.2714 -45.7130 -45.7089 -45.7087 -45.6555
   -45.6240 -45.6051 -45.6048 -45.5903 -45.5812 -45.5809 -45.5513 -45.5327
    11.5650  13.9324  13.9324  14.2726  14.8160  14.8899  14.8899  15.4579
    15.6965  15.6967  15.7871  16.0705  16.1468  16.6445  16.6446  16.6586
    17.0009  17.3841  17.6970  17.7099  17.7100  19.6196  19.6198  21.8217
    24.5295  27.0254  27.0254

          k = 0.3125 0.4375 0.1875 (  1750 PWs)   bands (ev):

   -85.2869 -85.2808 -85.2739 -85.2726 -45.7196 -45.7150 -45.6982 -45.6798
   -45.6196 -45.6142 -45.5872 -45.5718 -45.5692 -45.5636 -45.5598 -45.5445
    12.4191  13.2923  14.1479  14.2594  15.0153  15.0713  15.1780  15.3715
    15.6132  15.7053  15.7280  15.9181  16.2110  16.3869  16.5105  16.5245
    17.1856  17.5178  17.6080  17.6095  17.7439  18.3795  20.4882  21.4262
    24.3999  25.4578  28.2227

          k = 0.4375 0.1875 0.3125 (  1750 PWs)   bands (ev):

   -85.2869 -85.2806 -85.2743 -85.2723 -45.7196 -45.7150 -45.6982 -45.6798
   -45.6197 -45.6141 -45.5872 -45.5719 -45.5691 -45.5636 -45.5598 -45.5445
    12.4191  13.2923  14.1479  14.2594  15.0153  15.0713  15.1780  15.3715
    15.6132  15.7053  15.7280  15.9181  16.2110  16.3869  16.5104  16.5246
    17.1856  17.5178  17.6078  17.6096  17.7439  18.3795  20.4882  21.4262
    24.3999  25.4578  28.2227

          k = 0.4375 0.4375 0.1875 (  1748 PWs)   bands (ev):

   -85.2828 -85.2784 -85.2779 -85.2751 -45.7243 -45.7098 -45.7096 -45.6954
   -45.6038 -45.5948 -45.5946 -45.5847 -45.5720 -45.5532 -45.5529 -45.5459
    13.0550  13.6589  13.6589  13.9680  15.3151  15.4261  15.4262  15.5221
    15.6643  15.6643  15.7533  15.7971  16.1740  16.2991  16.2992  16.3238
    17.1999  17.4108  17.4109  17.4646  18.2709  19.1037  19.1039  20.1052
    25.2536  26.5668  26.5668

          k = 0.4375 0.3125 0.3125 (  1759 PWs)   bands (ev):

   -85.2846 -85.2794 -85.2758 -85.2742 -45.7403 -45.7396 -45.7187 -45.7027
   -45.5940 -45.5923 -45.5708 -45.5692 -45.5690 -45.5684 -45.5584 -45.5539
    12.7481  13.3843  13.8757  13.8760  15.3277  15.3284  15.5129  15.7386
    15.8725  15.9264  15.9745  15.9754  16.0430  16.1614  16.2503  16.2515
    17.5492  17.5656  17.7067  17.7078  17.7321  18.4348  20.2468  20.2468
    24.1445  24.1445  26.3068

          k = 0.4375 0.4375 0.3125 (  1757 PWs)   bands (ev):

   -85.2816 -85.2784 -85.2778 -85.2762 -45.7463 -45.7349 -45.7347 -45.7200
   -45.5851 -45.5796 -45.5795 -45.5721 -45.5665 -45.5535 -45.5532 -45.5471
    13.1218  13.4967  13.4967  13.6470  15.5685  15.6562  15.6564  15.8659
    15.9740  16.0503  16.0503  16.0742  16.1726  16.2013  16.2013  16.2578
    17.4913  17.6585  17.6586  17.6634  17.9859  18.8505  18.8507  19.5552
    24.0451  24.8759  24.8759

 ------ SPIN DOWN ----------


          k = 0.0625 0.0625 0.0625 (  1779 PWs)   bands (ev):

   -85.3111 -85.2685 -85.2677 -85.2666 -45.7385 -45.7385 -45.7384 -45.6279
   -45.6274 -45.6269 -45.6211 -45.6206 -45.6201 -45.5212 -45.5212 -45.5206
     9.0262  13.5112  13.5114  13.5115  14.1038  14.1039  14.1039  15.8670
    15.9448  15.9448  16.9916  16.9916  17.6310  17.6314  17.6319  17.6596
    17.6601  17.6606  17.8945  17.8951  17.8956  20.3688  20.3688  20.3689
    27.6592  27.6592  27.6593

          k = 0.0625 0.0625 0.1875 (  1772 PWs)   bands (ev):

   -85.3077 -85.2712 -85.2677 -85.2673 -45.7318 -45.7317 -45.7299 -45.6322
   -45.6321 -45.6165 -45.6154 -45.6134 -45.6131 -45.5439 -45.5196 -45.5167
     9.4292  13.4907  13.7183  13.7184  14.2293  14.2372  14.2372  15.7341
    16.0473  16.0521  16.8639  16.9312  16.9312  17.0532  17.3239  17.5021
    17.5023  17.5268  17.7772  17.8800  17.8802  18.9697  21.3855  21.3856
    27.7689  27.7689  29.8989

          k = 0.0625 0.0625 0.3125 (  1757 PWs)   bands (ev):

   -85.3017 -85.2770 -85.2677 -85.2674 -45.7129 -45.7129 -45.6925 -45.6430
   -45.6429 -45.5977 -45.5974 -45.5970 -45.5940 -45.5921 -45.5377 -45.5313
    10.1989  13.2367  14.0617  14.0618  14.4632  14.5110  14.5111  15.4695
    16.1436  16.1437  16.2293  16.2496  16.6661  16.6954  17.1651  17.2188
    17.2190  17.2511  17.6305  17.7817  17.8758  17.8761  22.7786  22.7786
    27.6569  27.6569  28.3528

          k = 0.0625 0.0625 0.4375 (  1755 PWs)   bands (ev):

   -85.2936 -85.2850 -85.2677 -85.2674 -45.6897 -45.6896 -45.6648 -45.6647
   -45.6567 -45.6142 -45.5956 -45.5953 -45.5793 -45.5734 -45.5610 -45.5592
    11.2650  12.4221  14.3619  14.3621  14.7773  14.9030  14.9031  15.1308
    15.4572  15.4573  16.2531  16.2656  16.5400  16.7350  16.8947  16.9652
    16.9654  17.1437  17.3100  17.4722  17.8752  17.8755  24.3286  24.3286
    26.0605  26.0606  28.6225

          k = 0.0625 0.1875 0.1875 (  1761 PWs)   bands (ev):

   -85.3047 -85.2716 -85.2698 -85.2678 -45.7230 -45.7222 -45.7170 -45.6258
   -45.6200 -45.6182 -45.6027 -45.6020 -45.5987 -45.5861 -45.5247 -45.5170
     9.8171  13.7171  13.7173  13.9103  14.3493  14.3527  14.3529  15.6521
    16.0917  16.1043  16.5789  16.5976  16.5990  16.8418  17.0618  17.3381
    17.4046  17.4052  17.7581  17.7587  17.7952  19.8987  19.8993  22.1661
    27.2950  28.2693  29.9523

          k = 0.0625 0.1875 0.3125 (  1770 PWs)   bands (ev):

   -85.2991 -85.2764 -85.2701 -85.2683 -45.7146 -45.7067 -45.6969 -45.6502
   -45.6352 -45.6154 -45.6051 -45.6009 -45.5944 -45.5908 -45.5513 -45.5321
    10.5654  13.4893  14.0950  14.2222  14.5407  14.5652  14.5948  15.4470
    15.8751  16.0155  16.1344  16.1468  16.2616  16.7376  17.1001  17.1416
    17.1793  17.2203  17.5619  17.7135  17.7254  18.5482  21.0416  23.3566
    25.5222  28.3575  28.4601

          k = 0.0625 0.1875 0.4375 (  1759 PWs)   bands (ev):

   -85.2917 -85.2837 -85.2696 -85.2688 -45.6935 -45.6931 -45.6730 -45.6641
   -45.6509 -45.6379 -45.5900 -45.5865 -45.5840 -45.5758 -45.5644 -45.5465
    11.5999  12.7102  14.4687  14.5398  14.7716  14.8500  14.9038  15.1628
    15.3120  15.4707  15.9412  16.0636  16.5058  16.8095  16.8656  16.8993
    16.9385  17.2308  17.4608  17.6961  17.6984  17.8075  22.2996  23.6331
    25.0595  26.6032  29.0676

          k = 0.0625 0.3125 0.3125 (  1760 PWs)   bands (ev):

   -85.2943 -85.2758 -85.2740 -85.2696 -45.6961 -45.6948 -45.6945 -45.6653
   -45.6354 -45.6169 -45.6151 -45.5903 -45.5777 -45.5764 -45.5681 -45.5316
    11.2695  13.9219  13.9220  14.4553  14.6433  14.7701  14.7706  15.3654
    15.6051  15.6062  15.7603  16.0681  16.3354  16.7015  16.9038  16.9968
    16.9970  17.4582  17.4589  17.4744  17.5621  19.4529  19.4540  23.2370
    24.7083  28.9049  29.2793

          k = 0.0625 0.3125 0.4375 (  1750 PWs)   bands (ev):

   -85.2880 -85.2813 -85.2731 -85.2713 -45.6963 -45.6959 -45.6823 -45.6598
   -45.6529 -45.6323 -45.5985 -45.5793 -45.5779 -45.5627 -45.5584 -45.5362
    12.2219  13.2221  14.3578  14.5545  14.8455  14.9893  15.0015  15.2033
    15.2628  15.4515  15.6579  15.8993  16.4781  16.7141  16.7497  16.8028
    16.8163  17.1294  17.4201  17.4506  17.8602  18.4345  20.4802  21.7282
    25.9648  27.5215  29.6540

          k = 0.0625 0.4375 0.4375 (  1744 PWs)   bands (ev):

   -85.2832 -85.2789 -85.2771 -85.2744 -45.6918 -45.6862 -45.6847 -45.6760
   -45.6324 -45.6116 -45.6099 -45.5972 -45.5697 -45.5564 -45.5547 -45.5481
    13.0146  13.7986  13.7991  14.2518  15.1691  15.1722  15.1731  15.2193
    15.3687  15.4461  15.4472  15.7255  16.4449  16.5788  16.5794  16.5798
    16.8771  17.1142  17.1153  17.2341  18.4102  19.2089  19.2103  20.2520
    27.2342  28.7557  28.7557

          k = 0.1875 0.1875 0.1875 (  1755 PWs)   bands (ev):

   -85.3019 -85.2715 -85.2707 -85.2697 -45.7178 -45.7173 -45.7170 -45.6165
   -45.6114 -45.6106 -45.6097 -45.6000 -45.5995 -45.5990 -45.5192 -45.5192
    10.1948  13.9039  13.9041  13.9042  14.4586  14.4587  14.4588  15.6064
    16.1161  16.1162  16.3071  16.3075  16.3080  16.9725  16.9725  17.1158
    17.1163  17.1168  17.8196  17.8202  17.8206  20.5045  20.5047  20.5048
    28.0356  28.0357  28.0357

          k = 0.1875 0.1875 0.3125 (  1763 PWs)   bands (ev):

   -85.2967 -85.2759 -85.2707 -85.2703 -45.7109 -45.7107 -45.7025 -45.6328
   -45.6308 -45.6303 -45.5976 -45.5935 -45.5931 -45.5926 -45.5422 -45.5357
    10.9128  13.6691  14.2018  14.2019  14.6423  14.6424  14.6755  15.4640
    15.8517  15.8518  15.9505  16.1276  16.1716  16.8207  16.9142  16.9144
    16.9325  17.1896  17.7537  17.7539  17.7693  18.9195  21.4155  21.4155
    26.1304  26.1304  28.9746

          k = 0.1875 0.1875 0.4375 (  1758 PWs)   bands (ev):

   -85.2899 -85.2826 -85.2707 -85.2704 -45.7101 -45.7099 -45.6853 -45.6602
   -45.6311 -45.6308 -45.5823 -45.5820 -45.5812 -45.5734 -45.5600 -45.5563
    11.8907  12.9319  14.5052  14.5053  14.7644  14.7646  14.9554  15.2295
    15.5373  15.5375  15.8534  16.0062  16.3113  16.5352  16.7547  16.7549
    17.1868  17.4240  17.6293  17.6874  17.6876  17.8266  22.3269  22.3269
    24.7372  24.7372  30.2162

          k = 0.1875 0.3125 0.3125 (  1756 PWs)   bands (ev):

   -85.2924 -85.2758 -85.2740 -85.2714 -45.7128 -45.7092 -45.7082 -45.6554
   -45.6238 -45.6056 -45.6040 -45.5902 -45.5816 -45.5803 -45.5512 -45.5326
    11.5650  13.9324  13.9325  14.2726  14.8161  14.8899  14.8901  15.4580
    15.6961  15.6972  15.7872  16.0706  16.1469  16.6444  16.6449  16.6587
    17.0010  17.3842  17.6972  17.7097  17.7104  19.6194  19.6202  21.8217
    24.5295  27.0254  27.0254

          k = 0.1875 0.3125 0.4375 (  1750 PWs)   bands (ev):

   -85.2867 -85.2807 -85.2737 -85.2725 -45.7195 -45.7149 -45.6981 -45.6797
   -45.6194 -45.6140 -45.5870 -45.5718 -45.5689 -45.5637 -45.5595 -45.5444
    12.4191  13.2923  14.1479  14.2595  15.0154  15.0714  15.1781  15.3716
    15.6133  15.7054  15.7281  15.9182  16.2111  16.3870  16.5106  16.5246
    17.1857  17.5179  17.6081  17.6096  17.7440  18.3796  20.4882  21.4262
    24.4000  25.4578  28.2228

          k = 0.1875 0.4375 0.4375 (  1748 PWs)   bands (ev):

   -85.2826 -85.2788 -85.2770 -85.2750 -45.7242 -45.7100 -45.7091 -45.6952
   -45.6036 -45.5951 -45.5940 -45.5845 -45.5719 -45.5538 -45.5521 -45.5458
    13.0550  13.6588  13.6590  13.9681  15.3152  15.4260  15.4265  15.5222
    15.6643  15.6645  15.7534  15.7972  16.1741  16.2992  16.2993  16.3239
    17.2000  17.4107  17.4113  17.4647  18.2710  19.1032  19.1046  20.1052
    25.2537  26.5668  26.5668

          k = 0.3125 0.3125 0.3125 (  1746 PWs)   bands (ev):

   -85.2889 -85.2758 -85.2749 -85.2739 -45.7236 -45.7231 -45.7227 -45.6815
   -45.5903 -45.5894 -45.5885 -45.5829 -45.5825 -45.5820 -45.5296 -45.5296
    12.1040  13.9045  13.9047  13.9048  15.1381  15.1383  15.1384  15.6235
    15.8301  15.8307  15.8313  16.0471  16.0471  16.3828  16.3833  16.3837
    17.3098  17.3098  17.7746  17.7752  17.7756  19.9382  19.9384  19.9387
    25.2223  25.2223  25.2223

          k = 0.3125 0.3125 0.4375 (  1759 PWs)   bands (ev):

   -85.2844 -85.2796 -85.2750 -85.2745 -45.7399 -45.7398 -45.7185 -45.7026
   -45.5931 -45.5928 -45.5707 -45.5693 -45.5686 -45.5682 -45.5582 -45.5538
    12.7481  13.3844  13.8759  13.8759  15.3281  15.3283  15.5129  15.7386
    15.8727  15.9265  15.9749  15.9751  16.0431  16.1615  16.2509  16.2511
    17.5493  17.5657  17.7073  17.7075  17.7323  18.4349  20.2469  20.2469
    24.1445  24.1445  26.3068

          k = 0.3125 0.4375 0.4375 (  1757 PWs)   bands (ev):

   -85.2814 -85.2788 -85.2771 -85.2761 -45.7462 -45.7350 -45.7343 -45.7198
   -45.5848 -45.5799 -45.5789 -45.5720 -45.5663 -45.5541 -45.5525 -45.5470
    13.1218  13.4967  13.4968  13.6471  15.5686  15.6560  15.6568  15.8661
    15.9742  16.0504  16.0504  16.0743  16.1726  16.2013  16.2015  16.2578
    17.4915  17.6584  17.6590  17.6635  17.9860  18.8502  18.8512  19.5552
    24.0452  24.8760  24.8760

          k = 0.4375 0.4375 0.4375 (  1760 PWs)   bands (ev):

   -85.2800 -85.2788 -85.2777 -85.2769 -45.7587 -45.7584 -45.7581 -45.7352
   -45.5694 -45.5687 -45.5678 -45.5565 -45.5561 -45.5556 -45.5449 -45.5449
    13.2338  13.3960  13.3961  13.3962  15.7816  15.7817  15.7817  15.8879
    15.8879  15.9199  15.9204  15.9208  16.8158  16.8160  16.8163  17.0068
    17.6861  17.6861  17.7444  17.7449  17.7454  18.5035  18.5037  18.5039
    23.9503  23.9503  23.9503

          k = 0.1875 0.0625 0.0625 (  1772 PWs)   bands (ev):

   -85.3077 -85.2709 -85.2685 -85.2667 -45.7319 -45.7317 -45.7298 -45.6323
   -45.6320 -45.6166 -45.6155 -45.6141 -45.6123 -45.5438 -45.5197 -45.5167
     9.4292  13.4907  13.7182  13.7185  14.2292  14.2372  14.2372  15.7341
    16.0473  16.0522  16.8639  16.9311  16.9313  17.0531  17.3239  17.5016
    17.5028  17.5268  17.7772  17.8791  17.8809  18.9698  21.3855  21.3856
    27.7689  27.7690  29.9001

          k = 0.3125 0.0625 0.0625 (  1757 PWs)   bands (ev):

   -85.3017 -85.2769 -85.2685 -85.2667 -45.7130 -45.7129 -45.6925 -45.6431
   -45.6428 -45.5982 -45.5972 -45.5965 -45.5942 -45.5920 -45.5377 -45.5313
    10.1989  13.2367  14.0615  14.0620  14.4631  14.5110  14.5111  15.4694
    16.1436  16.1437  16.2293  16.2496  16.6661  16.6954  17.1651  17.2183
    17.2196  17.2511  17.6305  17.7817  17.8750  17.8769  22.7786  22.7786
    27.6569  27.6570  28.3527

          k = 0.4375 0.0625 0.0625 (  1755 PWs)   bands (ev):

   -85.2937 -85.2848 -85.2685 -85.2667 -45.6899 -45.6894 -45.6651 -45.6643
   -45.6567 -45.6141 -45.5962 -45.5946 -45.5793 -45.5735 -45.5610 -45.5592
    11.2650  12.4221  14.3616  14.3624  14.7773  14.9030  14.9032  15.1308
    15.4571  15.4574  16.2531  16.2657  16.5400  16.7350  16.8947  16.9645
    16.9661  17.1437  17.3100  17.4722  17.8743  17.8763  24.3286  24.3286
    26.0605  26.0606  28.6225

          k = 0.1875 0.1875 0.0625 (  1761 PWs)   bands (ev):

   -85.3047 -85.2710 -85.2706 -85.2675 -45.7227 -45.7225 -45.7171 -45.6258
   -45.6193 -45.6190 -45.6025 -45.6023 -45.5985 -45.5861 -45.5248 -45.5170
     9.8171  13.7172  13.7172  13.9103  14.3494  14.3527  14.3528  15.6521
    16.0918  16.1043  16.5789  16.5983  16.5985  16.8419  17.0618  17.3381
    17.4049  17.4049  17.7583  17.7584  17.7952  19.8990  19.8991  22.1661
    27.2950  28.2694  29.9524

          k = 0.1875 0.3125 0.0625 (  1770 PWs)   bands (ev):

   -85.2991 -85.2764 -85.2702 -85.2682 -45.7145 -45.7068 -45.6969 -45.6501
   -45.6352 -45.6154 -45.6051 -45.6009 -45.5943 -45.5908 -45.5514 -45.5321
    10.5654  13.4893  14.0950  14.2222  14.5407  14.5652  14.5947  15.4470
    15.8751  16.0155  16.1345  16.1468  16.2615  16.7376  17.1001  17.1416
    17.1793  17.2203  17.5619  17.7135  17.7254  18.5482  21.0416  23.3566
    25.5222  28.3575  28.4601

          k = 0.3125 0.0625 0.1875 (  1770 PWs)   bands (ev):

   -85.2991 -85.2762 -85.2706 -85.2679 -45.7145 -45.7068 -45.6969 -45.6502
   -45.6352 -45.6154 -45.6051 -45.6009 -45.5942 -45.5908 -45.5514 -45.5321
    10.5654  13.4893  14.0950  14.2222  14.5407  14.5652  14.5948  15.4470
    15.8751  16.0155  16.1345  16.1468  16.2616  16.7376  17.1001  17.1416
    17.1793  17.2203  17.5619  17.7134  17.7254  18.5482  21.0416  23.3566
    25.5222  28.3575  28.4601

          k = 0.1875 0.4375 0.0625 (  1759 PWs)   bands (ev):

   -85.2917 -85.2837 -85.2696 -85.2688 -45.6935 -45.6931 -45.6730 -45.6641
   -45.6509 -45.6379 -45.5900 -45.5865 -45.5840 -45.5758 -45.5644 -45.5465
    11.5999  12.7102  14.4687  14.5398  14.7716  14.8500  14.9038  15.1628
    15.3121  15.4707  15.9413  16.0636  16.5058  16.8095  16.8656  16.8993
    16.9385  17.2308  17.4608  17.6961  17.6984  17.8075  22.2997  23.6331
    25.0595  26.6032  29.0676

          k = 0.4375 0.0625 0.1875 (  1759 PWs)   bands (ev):

   -85.2917 -85.2835 -85.2702 -85.2683 -45.6939 -45.6927 -45.6730 -45.6641
   -45.6509 -45.6379 -45.5900 -45.5863 -45.5841 -45.5759 -45.5644 -45.5465
    11.5999  12.7102  14.4687  14.5398  14.7716  14.8499  14.9038  15.1627
    15.3121  15.4707  15.9413  16.0637  16.5058  16.8095  16.8656  16.8993
    16.9385  17.2308  17.4608  17.6958  17.6986  17.8075  22.2997  23.6331
    25.0595  26.6032  29.0676

          k = 0.3125 0.3125 0.0625 (  1760 PWs)   bands (ev):

   -85.2943 -85.2752 -85.2748 -85.2695 -45.6956 -45.6953 -45.6944 -45.6653
   -45.6354 -45.6162 -45.6159 -45.5902 -45.5771 -45.5769 -45.5681 -45.5316
    11.2695  13.9220  13.9220  14.4553  14.6433  14.7703  14.7704  15.3653
    15.6056  15.6058  15.7603  16.0681  16.3354  16.7015  16.9038  16.9969
    16.9969  17.4585  17.4586  17.4744  17.5621  19.4534  19.4535  23.2370
    24.7083  28.9049  29.2792

          k = 0.3125 0.4375 0.0625 (  1750 PWs)   bands (ev):

   -85.2880 -85.2813 -85.2731 -85.2712 -45.6963 -45.6958 -45.6823 -45.6598
   -45.6530 -45.6323 -45.5986 -45.5794 -45.5779 -45.5625 -45.5585 -45.5362
    12.2219  13.2221  14.3579  14.5545  14.8455  14.9893  15.0015  15.2033
    15.2628  15.4515  15.6579  15.8993  16.4781  16.7141  16.7497  16.8028
    16.8163  17.1293  17.4201  17.4506  17.8602  18.4345  20.4803  21.7282
    25.9648  27.5214  29.6540

          k = 0.4375 0.0625 0.3125 (  1750 PWs)   bands (ev):

   -85.2881 -85.2811 -85.2736 -85.2710 -45.6965 -45.6956 -45.6823 -45.6597
   -45.6531 -45.6323 -45.5986 -45.5793 -45.5779 -45.5625 -45.5585 -45.5362
    12.2219  13.2221  14.3579  14.5545  14.8455  14.9892  15.0015  15.2033
    15.2628  15.4515  15.6579  15.8993  16.4781  16.7141  16.7497  16.8028
    16.8163  17.1294  17.4200  17.4506  17.8602  18.4345  20.4803  21.7282
    25.9648  27.5214  29.6540

          k = 0.4375 0.4375 0.0625 (  1744 PWs)   bands (ev):

   -85.2833 -85.2782 -85.2778 -85.2743 -45.6918 -45.6856 -45.6853 -45.6760
   -45.6324 -45.6109 -45.6106 -45.5972 -45.5696 -45.5556 -45.5553 -45.5481
    13.0146  13.7988  13.7989  14.2518  15.1690  15.1726  15.1727  15.2193
    15.3687  15.4466  15.4467  15.7256  16.4449  16.5787  16.5791  16.5802
    16.8770  17.1147  17.1148  17.2340  18.4102  19.2095  19.2097  20.2520
    27.2342  28.7557  28.7557

          k = 0.3125 0.1875 0.1875 (  1763 PWs)   bands (ev):

   -85.2967 -85.2758 -85.2715 -85.2697 -45.7112 -45.7104 -45.7025 -45.6324
   -45.6315 -45.6298 -45.5976 -45.5936 -45.5931 -45.5925 -45.5422 -45.5357
    10.9128  13.6691  14.2016  14.2020  14.6421  14.6425  14.6755  15.4640
    15.8514  15.8522  15.9505  16.1276  16.1716  16.8207  16.9136  16.9150
    16.9325  17.1896  17.7531  17.7544  17.7693  18.9195  21.4154  21.4156
    26.1304  26.1304  28.9746

          k = 0.4375 0.1875 0.1875 (  1758 PWs)   bands (ev):

   -85.2900 -85.2824 -85.2715 -85.2697 -45.7105 -45.7095 -45.6853 -45.6602
   -45.6319 -45.6301 -45.5825 -45.5814 -45.5814 -45.5734 -45.5600 -45.5563
    11.8907  12.9319  14.5049  14.5056  14.7641  14.7649  14.9554  15.2295
    15.5369  15.5380  15.8534  16.0062  16.3113  16.5352  16.7540  16.7556
    17.1868  17.4240  17.6293  17.6868  17.6882  17.8266  22.3269  22.3270
    24.7371  24.7372  30.2162

          k = 0.3125 0.3125 0.1875 (  1756 PWs)   bands (ev):

   -85.2924 -85.2752 -85.2748 -85.2712 -45.7128 -45.7087 -45.7086 -45.6553
   -45.6239 -45.6049 -45.6046 -45.5902 -45.5810 -45.5808 -45.5512 -45.5325
    11.5650  13.9324  13.9325  14.2727  14.8161  14.8900  14.8900  15.4580
    15.6966  15.6967  15.7872  16.0707  16.1469  16.6446  16.6447  16.6587
    17.0010  17.3842  17.6971  17.7100  17.7101  19.6197  19.6198  21.8217
    24.5295  27.0254  27.0254

          k = 0.3125 0.4375 0.1875 (  1750 PWs)   bands (ev):

   -85.2867 -85.2806 -85.2737 -85.2724 -45.7195 -45.7149 -45.6981 -45.6797
   -45.6195 -45.6140 -45.5871 -45.5717 -45.5690 -45.5635 -45.5597 -45.5444
    12.4191  13.2923  14.1479  14.2595  15.0154  15.0714  15.1781  15.3716
    15.6133  15.7054  15.7282  15.9182  16.2111  16.3870  16.5106  16.5246
    17.1857  17.5179  17.6081  17.6096  17.7440  18.3796  20.4883  21.4262
    24.4000  25.4578  28.2228

          k = 0.4375 0.1875 0.3125 (  1750 PWs)   bands (ev):

   -85.2868 -85.2804 -85.2743 -85.2721 -45.7195 -45.7148 -45.6981 -45.6797
   -45.6196 -45.6139 -45.5871 -45.5717 -45.5690 -45.5634 -45.5597 -45.5444
    12.4191  13.2923  14.1479  14.2595  15.0154  15.0714  15.1781  15.3716
    15.6133  15.7054  15.7281  15.9182  16.2111  16.3870  16.5105  16.5247
    17.1857  17.5179  17.6079  17.6098  17.7440  18.3796  20.4883  21.4262
    24.4000  25.4578  28.2228

          k = 0.4375 0.4375 0.1875 (  1748 PWs)   bands (ev):

   -85.2826 -85.2782 -85.2777 -85.2749 -45.7242 -45.7096 -45.7095 -45.6952
   -45.6037 -45.5947 -45.5945 -45.5846 -45.5718 -45.5530 -45.5527 -45.5458
    13.0550  13.6589  13.6589  13.9681  15.3152  15.4262  15.4263  15.5222
    15.6644  15.6644  15.7534  15.7972  16.1741  16.2992  16.2993  16.3239
    17.2000  17.4109  17.4110  17.4647  18.2710  19.1038  19.1040  20.1052
    25.2537  26.5668  26.5668

          k = 0.4375 0.3125 0.3125 (  1759 PWs)   bands (ev):

   -85.2845 -85.2792 -85.2758 -85.2740 -45.7402 -45.7395 -45.7185 -45.7026
   -45.5939 -45.5921 -45.5706 -45.5691 -45.5689 -45.5682 -45.5582 -45.5538
    12.7481  13.3844  13.8757  13.8761  15.3278  15.3285  15.5129  15.7386
    15.8726  15.9265  15.9745  15.9756  16.0431  16.1615  16.2504  16.2517
    17.5493  17.5657  17.7068  17.7080  17.7323  18.4349  20.2468  20.2469
    24.1445  24.1445  26.3068

          k = 0.4375 0.4375 0.3125 (  1757 PWs)   bands (ev):

   -85.2815 -85.2784 -85.2777 -85.2759 -45.7462 -45.7347 -45.7346 -45.7198
   -45.5850 -45.5795 -45.5793 -45.5719 -45.5664 -45.5534 -45.5531 -45.5469
    13.1218  13.4968  13.4968  13.6471  15.5686  15.6563  15.6564  15.8661
    15.9742  16.0504  16.0504  16.0743  16.1726  16.2014  16.2014  16.2578
    17.4915  17.6586  17.6587  17.6636  17.9860  18.8506  18.8508  19.5552
    24.0452  24.8760  24.8760

     the Fermi energy is    17.7711 ev

!    total energy              =   -1358.22500629 Ry
     Harris-Foulkes estimate   =   -1358.22500648 Ry
     estimated scf accuracy    <       0.00000024 Ry

     The total energy is the sum of the following terms:

     one-electron contribution =    -746.86683349 Ry
     hartree contribution      =     419.24514176 Ry
     xc contribution           =    -137.30780072 Ry
     ewald contribution        =    -893.28438931 Ry
     smearing contrib. (-TS)   =      -0.01112453 Ry

     total magnetization       =     0.00 Bohr mag/cell
     absolute magnetization    =     0.00 Bohr mag/cell

     convergence has been achieved in  17 iterations

     Writing output data file ni-50.save/

     init_run     :      1.63s CPU      1.67s WALL (       1 calls)
     electrons    :     86.42s CPU     87.94s WALL (       1 calls)

     Called by init_run:
     wfcinit      :      1.44s CPU      1.46s WALL (       1 calls)
     potinit      :      0.02s CPU      0.02s WALL (       1 calls)
     hinit0       :      0.15s CPU      0.15s WALL (       1 calls)

     Called by electrons:
     c_bands      :     77.09s CPU     78.31s WALL (      18 calls)
     sum_band     :      8.72s CPU      9.02s WALL (      18 calls)
     v_of_rho     :      0.13s CPU      0.14s WALL (      18 calls)
     newd         :      0.46s CPU      0.47s WALL (      18 calls)
     mix_rho      :      0.03s CPU      0.03s WALL (      18 calls)

     Called by c_bands:
     init_us_2    :      0.55s CPU      0.55s WALL (    2960 calls)
     cegterg      :     74.07s CPU     75.28s WALL (    1440 calls)

     Called by sum_band:
     sum_band:bec :      0.13s CPU      0.13s WALL (    1440 calls)
     addusdens    :      0.48s CPU      0.48s WALL (      18 calls)

     Called by *egterg:
     h_psi        :     32.75s CPU     33.72s WALL (    4235 calls)
     s_psi        :      4.88s CPU      4.92s WALL (    4235 calls)
     g_psi        :      0.18s CPU      0.18s WALL (    2715 calls)
     cdiaghg      :     14.60s CPU     14.66s WALL (    4075 calls)

     Called by h_psi:
     h_psi:pot    :     32.60s CPU     33.57s WALL (    4235 calls)
     h_psi:calbec :      6.67s CPU      6.92s WALL (    4235 calls)
     vloc_psi     :     21.02s CPU     21.63s WALL (    4235 calls)
     add_vuspsi   :      4.90s CPU      5.01s WALL (    4235 calls)

     General routines
     calbec       :      9.52s CPU      9.90s WALL (    5675 calls)
     fft          :      0.07s CPU      0.07s WALL (     378 calls)
     ffts         :      0.01s CPU      0.01s WALL (      36 calls)
     fftw         :     23.33s CPU     24.02s WALL (  344798 calls)

     Parallel routines
     fft_scatt_xy :      1.98s CPU      2.05s WALL (  345212 calls)
     fft_scatt_yz :     10.02s CPU     10.30s WALL (  345212 calls)

     PWSCF        :   1m29.55s CPU   1m31.21s WALL


   This run was terminated on:  15:22:57  23Mar2022            

=------------------------------------------------------------------------------=
   JOB DONE.
=------------------------------------------------------------------------------=
