
     Program PWSCF v.6.4.1 starts on 23Mar2022 at 15:24:22 

     This program is part of the open-source Quantum ESPRESSO suite
     for quantum simulation of materials; please cite
         "P. Giannozzi et al., J. Phys.:Condens. Matter 21 395502 (2009);
         "P. Giannozzi et al., J. Phys.:Condens. Matter 29 465901 (2017);
          URL http://www.quantum-espresso.org", 
     in publications or presentations arising from this work. More details at
     http://www.quantum-espresso.org/quote

     Parallel version (MPI), running on     6 processors

     MPI processes distributed on     1 nodes
     R & G space division:  proc/nbgrp/npool/nimage =       6
     Reading input from ni-60.in
Warning: card NI1   58.6934    NI.PBE-SPN-RRKJUS_PSL.1.0.0.UPF ignored
Warning: card NI2   58.6934    NI.PBE-SPN-RRKJUS_PSL.1.0.0.UPF ignored

     Current dimensions of program PWSCF are:
     Max number of different atomic species (ntypx) = 10
     Max number of k-points (npk) =  40000
     Max angular momentum in pseudopotentials (lmaxx) =  3

     Subspace diagonalization in iterative solution of the eigenvalue problem:
     a serial algorithm will be used

     Found symmetry operation: I + (  0.0000 -0.5000 -0.5000)
     This is a supercell, fractional translations are disabled
     Message from routine setup:
     DEPRECATED: symmetry with ibrav=0, use correct ibrav instead

     Parallelization info
     --------------------
     sticks:   dense  smooth     PW     G-vecs:    dense   smooth      PW
     Min         140     140     41                 3056     3056     494
     Max         141     141     42                 3059     3059     497
     Sum         845     845    249                18349    18349    2969



     bravais-lattice index     =            0
     lattice parameter (alat)  =       6.6518  a.u.
     unit-cell volume          =     294.3233 (a.u.)^3
     number of atoms/cell      =            4
     number of atomic types    =            2
     number of electrons       =        72.00
     number of Kohn-Sham states=           43
     kinetic-energy cutoff     =      60.0000  Ry
     charge density cutoff     =     240.0000  Ry
     convergence threshold     =      1.0E-06
     mixing beta               =       0.7000
     number of iterations used =            8  plain     mixing
     Exchange-correlation      = PBE ( 1  4  3  4 0 0)

     celldm(1)=   6.651836  celldm(2)=   0.000000  celldm(3)=   0.000000
     celldm(4)=   0.000000  celldm(5)=   0.000000  celldm(6)=   0.000000

     crystal axes: (cart. coord. in units of alat)
               a(1) = (   1.000000   0.000000   0.000000 )  
               a(2) = (   0.000000   1.000000   0.000000 )  
               a(3) = (   0.000000   0.000000   1.000000 )  

     reciprocal axes: (cart. coord. in units 2 pi/alat)
               b(1) = (  1.000000  0.000000  0.000000 )  
               b(2) = (  0.000000  1.000000  0.000000 )  
               b(3) = (  0.000000  0.000000  1.000000 )  


     PseudoPot. # 1 for Ni read from file:
     /home/cristian/Escritorio/Proyecto_Grafeno/pseudopotenciales/Ni.pbe-spn-rrkjus_psl.1.0.0.UPF
     MD5 check sum: 8b3fc9aac6dafe35f580d41bb18c3945
     Pseudo is Ultrasoft + core correction, Zval = 18.0
     Generated using "atomic" code by A. Dal Corso v.6.3
     Using radial grid of 1195 points,  6 beta functions with: 
                l(1) =   0
                l(2) =   0
                l(3) =   1
                l(4) =   1
                l(5) =   2
                l(6) =   2
     Q(r) pseudized with 0 coefficients 


     PseudoPot. # 2 for Ni read from file:
     /home/cristian/Escritorio/Proyecto_Grafeno/pseudopotenciales/Ni.pbe-spn-rrkjus_psl.1.0.0.UPF
     MD5 check sum: 8b3fc9aac6dafe35f580d41bb18c3945
     Pseudo is Ultrasoft + core correction, Zval = 18.0
     Generated using "atomic" code by A. Dal Corso v.6.3
     Using radial grid of 1195 points,  6 beta functions with: 
                l(1) =   0
                l(2) =   0
                l(3) =   1
                l(4) =   1
                l(5) =   2
                l(6) =   2
     Q(r) pseudized with 0 coefficients 


     atomic species   valence    mass     pseudopotential
        Ni1           18.00    58.69340     Ni( 1.00)
        Ni2           18.00    58.69340     Ni( 1.00)

     Starting magnetic structure 
     atomic species   magnetization
        Ni1          0.100
        Ni2         -0.100

     16 Sym. Ops., with inversion, found



   Cartesian axes

     site n.     atom                  positions (alat units)
         1           Ni1 tau(   1) = (   0.0000000   0.0000000   0.0000000  )
         2           Ni2 tau(   2) = (   0.5000000   0.5000000   0.0000000  )
         3           Ni1 tau(   3) = (   0.0000000   0.5000000   0.5000000  )
         4           Ni2 tau(   4) = (   0.5000000   0.0000000   0.5000000  )

     number of k points=    40  Methfessel-Paxton smearing, width (Ry)=  0.0300
                       cart. coord. in units 2pi/alat
        k(    1) = (   0.0625000   0.0625000   0.0625000), wk =   0.0156250
        k(    2) = (   0.0625000   0.0625000   0.1875000), wk =   0.0312500
        k(    3) = (   0.0625000   0.0625000   0.3125000), wk =   0.0312500
        k(    4) = (   0.0625000   0.0625000   0.4375000), wk =   0.0312500
        k(    5) = (   0.0625000   0.1875000   0.1875000), wk =   0.0156250
        k(    6) = (   0.0625000   0.1875000   0.3125000), wk =   0.0312500
        k(    7) = (   0.0625000   0.1875000   0.4375000), wk =   0.0312500
        k(    8) = (   0.0625000   0.3125000   0.3125000), wk =   0.0156250
        k(    9) = (   0.0625000   0.3125000   0.4375000), wk =   0.0312500
        k(   10) = (   0.0625000   0.4375000   0.4375000), wk =   0.0156250
        k(   11) = (   0.1875000   0.1875000   0.1875000), wk =   0.0156250
        k(   12) = (   0.1875000   0.1875000   0.3125000), wk =   0.0312500
        k(   13) = (   0.1875000   0.1875000   0.4375000), wk =   0.0312500
        k(   14) = (   0.1875000   0.3125000   0.3125000), wk =   0.0156250
        k(   15) = (   0.1875000   0.3125000   0.4375000), wk =   0.0312500
        k(   16) = (   0.1875000   0.4375000   0.4375000), wk =   0.0156250
        k(   17) = (   0.3125000   0.3125000   0.3125000), wk =   0.0156250
        k(   18) = (   0.3125000   0.3125000   0.4375000), wk =   0.0312500
        k(   19) = (   0.3125000   0.4375000   0.4375000), wk =   0.0156250
        k(   20) = (   0.4375000   0.4375000   0.4375000), wk =   0.0156250
        k(   21) = (   0.1875000   0.0625000   0.0625000), wk =   0.0156250
        k(   22) = (   0.3125000   0.0625000   0.0625000), wk =   0.0156250
        k(   23) = (   0.4375000   0.0625000   0.0625000), wk =   0.0156250
        k(   24) = (   0.1875000   0.1875000   0.0625000), wk =   0.0312500
        k(   25) = (   0.1875000   0.3125000   0.0625000), wk =   0.0312500
        k(   26) = (   0.3125000   0.0625000   0.1875000), wk =   0.0312500
        k(   27) = (   0.1875000   0.4375000   0.0625000), wk =   0.0312500
        k(   28) = (   0.4375000   0.0625000   0.1875000), wk =   0.0312500
        k(   29) = (   0.3125000   0.3125000   0.0625000), wk =   0.0312500
        k(   30) = (   0.3125000   0.4375000   0.0625000), wk =   0.0312500
        k(   31) = (   0.4375000   0.0625000   0.3125000), wk =   0.0312500
        k(   32) = (   0.4375000   0.4375000   0.0625000), wk =   0.0312500
        k(   33) = (   0.3125000   0.1875000   0.1875000), wk =   0.0156250
        k(   34) = (   0.4375000   0.1875000   0.1875000), wk =   0.0156250
        k(   35) = (   0.3125000   0.3125000   0.1875000), wk =   0.0312500
        k(   36) = (   0.3125000   0.4375000   0.1875000), wk =   0.0312500
        k(   37) = (   0.4375000   0.1875000   0.3125000), wk =   0.0312500
        k(   38) = (   0.4375000   0.4375000   0.1875000), wk =   0.0312500
        k(   39) = (   0.4375000   0.3125000   0.3125000), wk =   0.0156250
        k(   40) = (   0.4375000   0.4375000   0.3125000), wk =   0.0312500

     Dense  grid:    18349 G-vectors     FFT dimensions: (  36,  36,  36)

     Estimated max dynamical RAM per process >      35.47 MB

     Estimated total dynamical RAM >     212.82 MB
     Generating pointlists ...
     new r_m :   0.2917 (alat units)  1.9402 (a.u.) for type    1
     new r_m :   0.2917 (alat units)  1.9402 (a.u.) for type    2

     Check: negative core charge=   -0.000009

     Initial potential from superposition of free atoms

     starting charge   71.99900, renormalised to   72.00000
     Starting wfcs are   40 randomized atomic wfcs +    3 random wfcs

     total cpu time spent up to now is        3.7 secs

     Self-consistent Calculation

     iteration #  1     ecut=    60.00 Ry     beta= 0.70
     Davidson diagonalization with overlap
     ethr =  1.00E-02,  avg # of iterations =  3.0

     Threshold (ethr) on eigenvalues was too large:
     Diagonalizing with lowered threshold

     Davidson diagonalization with overlap
     ethr =  1.81E-04,  avg # of iterations =  2.5

     total cpu time spent up to now is       18.4 secs

     total energy              =   -1358.32854634 Ry
     Harris-Foulkes estimate   =   -1358.27937715 Ry
     estimated scf accuracy    <       0.13127697 Ry

     total magnetization       =     0.00 Bohr mag/cell
     absolute magnetization    =     3.24 Bohr mag/cell

     iteration #  2     ecut=    60.00 Ry     beta= 0.70
     Davidson diagonalization with overlap
     ethr =  1.82E-04,  avg # of iterations =  1.6

     total cpu time spent up to now is       24.4 secs

     total energy              =   -1358.34383426 Ry
     Harris-Foulkes estimate   =   -1358.34341862 Ry
     estimated scf accuracy    <       0.05506263 Ry

     total magnetization       =    -0.00 Bohr mag/cell
     absolute magnetization    =     2.51 Bohr mag/cell

     iteration #  3     ecut=    60.00 Ry     beta= 0.70
     Davidson diagonalization with overlap
     ethr =  7.65E-05,  avg # of iterations =  2.8

     total cpu time spent up to now is       33.0 secs

     total energy              =   -1358.34613173 Ry
     Harris-Foulkes estimate   =   -1358.37944473 Ry
     estimated scf accuracy    <       0.12335030 Ry

     total magnetization       =     0.00 Bohr mag/cell
     absolute magnetization    =     1.89 Bohr mag/cell

     iteration #  4     ecut=    60.00 Ry     beta= 0.70
     Davidson diagonalization with overlap
     ethr =  7.65E-05,  avg # of iterations =  2.5

     total cpu time spent up to now is       40.9 secs

     total energy              =   -1358.37025284 Ry
     Harris-Foulkes estimate   =   -1358.36983662 Ry
     estimated scf accuracy    <       0.00427560 Ry

     total magnetization       =    -0.01 Bohr mag/cell
     absolute magnetization    =     1.24 Bohr mag/cell

     iteration #  5     ecut=    60.00 Ry     beta= 0.70
     Davidson diagonalization with overlap
     ethr =  5.94E-06,  avg # of iterations =  2.7

     total cpu time spent up to now is       48.4 secs

     total energy              =   -1358.36788934 Ry
     Harris-Foulkes estimate   =   -1358.37568710 Ry
     estimated scf accuracy    <       0.09220876 Ry

     total magnetization       =     0.15 Bohr mag/cell
     absolute magnetization    =     0.84 Bohr mag/cell

     iteration #  6     ecut=    60.00 Ry     beta= 0.70
     Davidson diagonalization with overlap
     ethr =  5.94E-06,  avg # of iterations =  2.1

     total cpu time spent up to now is       55.2 secs

     total energy              =   -1358.37230468 Ry
     Harris-Foulkes estimate   =   -1358.37236685 Ry
     estimated scf accuracy    <       0.00215087 Ry

     total magnetization       =    -0.01 Bohr mag/cell
     absolute magnetization    =     0.79 Bohr mag/cell

     iteration #  7     ecut=    60.00 Ry     beta= 0.70
     Davidson diagonalization with overlap
     ethr =  2.99E-06,  avg # of iterations =  2.6

     total cpu time spent up to now is       62.9 secs

     total energy              =   -1358.37111350 Ry
     Harris-Foulkes estimate   =   -1358.37525633 Ry
     estimated scf accuracy    <       0.04900184 Ry

     total magnetization       =    -0.06 Bohr mag/cell
     absolute magnetization    =     0.54 Bohr mag/cell

     iteration #  8     ecut=    60.00 Ry     beta= 0.70
     Davidson diagonalization with overlap
     ethr =  2.99E-06,  avg # of iterations =  2.1

     total cpu time spent up to now is       69.8 secs

     total energy              =   -1358.37323242 Ry
     Harris-Foulkes estimate   =   -1358.37328942 Ry
     estimated scf accuracy    <       0.00019218 Ry

     total magnetization       =    -0.00 Bohr mag/cell
     absolute magnetization    =     0.42 Bohr mag/cell

     iteration #  9     ecut=    60.00 Ry     beta= 0.70
     Davidson diagonalization with overlap
     ethr =  2.67E-07,  avg # of iterations =  2.8

     total cpu time spent up to now is       78.8 secs

     total energy              =   -1358.37354169 Ry
     Harris-Foulkes estimate   =   -1358.37363797 Ry
     estimated scf accuracy    <       0.00005516 Ry

     total magnetization       =    -0.01 Bohr mag/cell
     absolute magnetization    =     0.23 Bohr mag/cell

     iteration # 10     ecut=    60.00 Ry     beta= 0.70
     Davidson diagonalization with overlap
     ethr =  7.66E-08,  avg # of iterations =  3.0

     total cpu time spent up to now is       88.3 secs

     total energy              =   -1358.37370245 Ry
     Harris-Foulkes estimate   =   -1358.37372742 Ry
     estimated scf accuracy    <       0.00000712 Ry

     total magnetization       =    -0.01 Bohr mag/cell
     absolute magnetization    =     0.09 Bohr mag/cell

     iteration # 11     ecut=    60.00 Ry     beta= 0.70
     Davidson diagonalization with overlap
     ethr =  9.89E-09,  avg # of iterations =  3.1

     total cpu time spent up to now is       98.5 secs

     total energy              =   -1358.37374395 Ry
     Harris-Foulkes estimate   =   -1358.37374395 Ry
     estimated scf accuracy    <       0.00000307 Ry

     total magnetization       =    -0.02 Bohr mag/cell
     absolute magnetization    =     0.03 Bohr mag/cell

     iteration # 12     ecut=    60.00 Ry     beta= 0.70
     Davidson diagonalization with overlap
     ethr =  4.27E-09,  avg # of iterations =  1.7

     total cpu time spent up to now is      104.5 secs

     total energy              =   -1358.37374360 Ry
     Harris-Foulkes estimate   =   -1358.37374570 Ry
     estimated scf accuracy    <       0.00000416 Ry

     total magnetization       =    -0.03 Bohr mag/cell
     absolute magnetization    =     0.04 Bohr mag/cell

     iteration # 13     ecut=    60.00 Ry     beta= 0.70
     Davidson diagonalization with overlap
     ethr =  4.27E-09,  avg # of iterations =  1.5

     total cpu time spent up to now is      110.5 secs

     total energy              =   -1358.37374121 Ry
     Harris-Foulkes estimate   =   -1358.37374448 Ry
     estimated scf accuracy    <       0.00000183 Ry

     total magnetization       =    -0.02 Bohr mag/cell
     absolute magnetization    =     0.02 Bohr mag/cell

     iteration # 14     ecut=    60.00 Ry     beta= 0.70
     Davidson diagonalization with overlap
     ethr =  2.54E-09,  avg # of iterations =  2.5

     Magnetic moment per site:
     atom:    1    charge:   16.7062    magn:   -0.0023    constr:    0.0000
     atom:    2    charge:   16.7061    magn:   -0.0006    constr:    0.0000
     atom:    3    charge:   16.7061    magn:   -0.0022    constr:    0.0000
     atom:    4    charge:   16.7061    magn:   -0.0006    constr:    0.0000

     total cpu time spent up to now is      118.1 secs

     End of self-consistent calculation

 ------ SPIN UP ------------


          k = 0.0625 0.0625 0.0625 (  2307 PWs)   bands (ev):

   -85.3119 -85.2703 -85.2696 -85.2689 -45.7749 -45.7748 -45.7745 -45.6563
   -45.6561 -45.6556 -45.6516 -45.6515 -45.6509 -45.5792 -45.5717 -45.5715
     8.9776  13.5013  13.5016  13.5017  14.0943  14.0944  14.0944  15.8495
    15.9269  15.9270  16.9832  16.9834  17.6303  17.6309  17.6312  17.6650
    17.6653  17.6660  17.8909  17.8915  17.8919  20.3732  20.3733  20.3733
    27.6222  27.6223  27.6225

          k = 0.0625 0.0625 0.1875 (  2314 PWs)   bands (ev):

   -85.3089 -85.2729 -85.2695 -85.2694 -45.7660 -45.7657 -45.7609 -45.6666
   -45.6663 -45.6504 -45.6503 -45.6492 -45.6451 -45.5972 -45.5780 -45.5761
     9.3783  13.4801  13.7081  13.7082  14.2190  14.2265  14.2267  15.7136
    16.0280  16.0321  16.8554  16.9264  16.9266  17.0441  17.3194  17.5020
    17.5022  17.5280  17.7787  17.8788  17.8788  18.9661  21.3902  21.3903
    27.7400  27.7400  29.8440

          k = 0.0625 0.0625 0.3125 (  2313 PWs)   bands (ev):

   -85.3029 -85.2788 -85.2695 -85.2695 -45.7498 -45.7495 -45.7348 -45.6834
   -45.6831 -45.6505 -45.6504 -45.6368 -45.6341 -45.6260 -45.5892 -45.5874
    10.1540  13.2160  14.0501  14.0502  14.4533  14.4918  14.4919  15.4518
    16.1342  16.1344  16.2177  16.2376  16.6622  16.6823  17.1569  17.2154
    17.2156  17.2420  17.6309  17.7730  17.8738  17.8738  22.7833  22.7834
    27.6688  27.6688  28.3031

          k = 0.0625 0.0625 0.4375 (  2316 PWs)   bands (ev):

   -85.2951 -85.2867 -85.2695 -85.2695 -45.7292 -45.7289 -45.7042 -45.7039
   -45.7002 -45.6623 -45.6506 -45.6506 -45.6207 -45.6196 -45.6038 -45.6031
    11.2258  12.3906  14.3528  14.3528  14.7673  14.8874  14.8875  15.1178
    15.4464  15.4466  16.2397  16.2562  16.5303  16.7207  16.8822  16.9552
    16.9552  17.1331  17.3056  17.4700  17.8723  17.8723  24.3332  24.3333
    26.0619  26.0620  28.6151

          k = 0.0625 0.1875 0.1875 (  2312 PWs)   bands (ev):

   -85.3058 -85.2733 -85.2719 -85.2697 -45.7574 -45.7565 -45.7560 -45.6805
   -45.6590 -45.6578 -45.6438 -45.6433 -45.6430 -45.6179 -45.5834 -45.5756
     9.7705  13.7044  13.7048  13.8960  14.3324  14.3404  14.3405  15.6403
    16.0773  16.0812  16.5729  16.5872  16.5884  16.8366  17.0564  17.3304
    17.4017  17.4023  17.7569  17.7574  17.7880  19.8950  19.8957  22.1709
    27.3059  28.1963  29.9605

          k = 0.0625 0.1875 0.3125 (  2301 PWs)   bands (ev):

   -85.3003 -85.2782 -85.2717 -85.2700 -45.7472 -45.7429 -45.7370 -45.6960
   -45.6738 -45.6468 -45.6444 -45.6412 -45.6385 -45.6306 -45.5950 -45.5824
    10.5243  13.4701  14.0843  14.2143  14.5292  14.5547  14.5807  15.4381
    15.8639  16.0080  16.1212  16.1359  16.2481  16.7338  17.0944  17.1349
    17.1757  17.2156  17.5610  17.7107  17.7215  18.5407  21.0381  23.3634
    25.5117  28.3563  28.4114

          k = 0.0625 0.1875 0.4375 (  2308 PWs)   bands (ev):

   -85.2933 -85.2855 -85.2711 -85.2706 -45.7356 -45.7296 -45.7105 -45.7057
   -45.6930 -45.6790 -45.6389 -45.6376 -45.6276 -45.6136 -45.6104 -45.5963
    11.5605  12.6807  14.4588  14.5320  14.7556  14.8395  14.8903  15.1512
    15.3007  15.4603  15.9340  16.0542  16.4935  16.7993  16.8536  16.8917
    16.9288  17.2249  17.4558  17.6919  17.6938  17.8040  22.2913  23.6319
    25.0535  26.5994  29.0307

          k = 0.0625 0.3125 0.3125 (  2305 PWs)   bands (ev):

   -85.2955 -85.2773 -85.2759 -85.2715 -45.7396 -45.7386 -45.7348 -45.7044
   -45.6737 -45.6596 -45.6583 -45.6283 -45.6258 -45.6247 -45.6072 -45.5831
    11.2304  13.9026  13.9031  14.4465  14.6355  14.7552  14.7555  15.3601
    15.5943  15.5954  15.7545  16.0567  16.3232  16.6926  16.8990  16.9886
    16.9890  17.4524  17.4529  17.4671  17.5528  19.4418  19.4430  23.2350
    24.7000  28.8586  29.2739

          k = 0.0625 0.3125 0.4375 (  2310 PWs)   bands (ev):

   -85.2897 -85.2830 -85.2747 -85.2731 -45.7385 -45.7350 -45.7233 -45.7009
   -45.6960 -45.6775 -45.6414 -45.6234 -45.6226 -45.6218 -45.6074 -45.5921
    12.1834  13.1933  14.3392  14.5405  14.8401  14.9784  14.9896  15.1951
    15.2470  15.4396  15.6476  15.8896  16.4634  16.7025  16.7415  16.7910
    16.8031  17.1211  17.4109  17.4438  17.8535  18.4277  20.4698  21.7182
    25.9608  27.5152  29.6149

          k = 0.0625 0.4375 0.4375 (  2302 PWs)   bands (ev):

   -85.2849 -85.2802 -85.2788 -85.2762 -45.7374 -45.7340 -45.7328 -45.7202
   -45.6787 -45.6599 -45.6587 -45.6405 -45.6113 -45.6065 -45.6052 -45.5953
    12.9841  13.7731  13.7737  14.2349  15.1599  15.1604  15.1642  15.2099
    15.3559  15.4363  15.4374  15.7186  16.4324  16.5655  16.5655  16.5711
    16.8640  17.1030  17.1038  17.2223  18.4029  19.1978  19.1993  20.2388
    27.2278  28.7475  28.7476

          k = 0.1875 0.1875 0.1875 (  2316 PWs)   bands (ev):

   -85.3031 -85.2733 -85.2725 -85.2719 -45.7542 -45.7537 -45.7537 -45.6674
   -45.6669 -45.6662 -45.6392 -45.6380 -45.6379 -45.6374 -45.5807 -45.5805
    10.1480  13.8900  13.8902  13.8903  14.4420  14.4421  14.4421  15.5965
    16.0932  16.0933  16.2955  16.2960  16.2963  16.9721  16.9723  17.1070
    17.1073  17.1079  17.8184  17.8189  17.8194  20.5023  20.5026  20.5028
    28.0253  28.0253  28.0253

          k = 0.1875 0.1875 0.3125 (  2312 PWs)   bands (ev):

   -85.2983 -85.2777 -85.2723 -85.2723 -45.7503 -45.7501 -45.7431 -45.6752
   -45.6751 -45.6683 -45.6447 -45.6335 -45.6334 -45.6282 -45.5902 -45.5857
    10.8701  13.6505  14.1889  14.1889  14.6303  14.6304  14.6608  15.4539
    15.8428  15.8429  15.9379  16.1135  16.1581  16.8130  16.9070  16.9071
    16.9251  17.1872  17.7508  17.7508  17.7713  18.9119  21.4135  21.4136
    26.1092  26.1093  28.9619

          k = 0.1875 0.1875 0.4375 (  2296 PWs)   bands (ev):

   -85.2916 -85.2843 -85.2720 -85.2720 -45.7475 -45.7474 -45.7241 -45.6981
   -45.6802 -45.6802 -45.6310 -45.6310 -45.6206 -45.6158 -45.6025 -45.5998
    11.8543  12.9039  14.4890  14.4891  14.7557  14.7557  14.9419  15.2213
    15.5252  15.5252  15.8434  15.9960  16.3033  16.5294  16.7440  16.7440
    17.1746  17.4228  17.6308  17.6824  17.6825  17.8173  22.3320  22.3320
    24.7052  24.7053  30.2051

          k = 0.1875 0.3125 0.3125 (  2308 PWs)   bands (ev):

   -85.2940 -85.2773 -85.2759 -85.2731 -45.7545 -45.7513 -45.7505 -45.6960
   -45.6727 -45.6502 -45.6490 -45.6249 -45.6236 -45.6227 -45.5976 -45.5867
    11.5234  13.9121  13.9123  14.2604  14.8064  14.8781  14.8781  15.4460
    15.6856  15.6865  15.7768  16.0564  16.1333  16.6358  16.6364  16.6516
    16.9928  17.3806  17.6936  17.7083  17.7090  19.6122  19.6131  21.8285
    24.4899  27.0021  27.0022

          k = 0.1875 0.3125 0.4375 (  2310 PWs)   bands (ev):

   -85.2886 -85.2824 -85.2754 -85.2741 -45.7575 -45.7564 -45.7413 -45.7219
   -45.6660 -45.6575 -45.6273 -45.6196 -45.6193 -45.6105 -45.6089 -45.5949
    12.3829  13.2634  14.1263  14.2395  15.0082  15.0632  15.1672  15.3620
    15.6002  15.6954  15.7165  15.9092  16.1975  16.3772  16.5002  16.5117
    17.1764  17.5146  17.6030  17.6038  17.7391  18.3716  20.4847  21.4293
    24.3636  25.4267  28.2015

          k = 0.1875 0.4375 0.4375 (  2316 PWs)   bands (ev):

   -85.2843 -85.2804 -85.2790 -85.2769 -45.7605 -45.7550 -45.7542 -45.7422
   -45.6520 -45.6390 -45.6382 -45.6231 -45.6100 -45.6066 -45.6053 -45.5965
    13.0246  13.6317  13.6319  13.9490  15.3095  15.4180  15.4186  15.5128
    15.6540  15.6543  15.7453  15.7887  16.1595  16.2832  16.2835  16.3129
    17.1908  17.4033  17.4039  17.4604  18.2650  19.0966  19.0979  20.1005
    25.2250  26.5380  26.5380

          k = 0.3125 0.3125 0.3125 (  2314 PWs)   bands (ev):

   -85.2906 -85.2774 -85.2766 -85.2760 -45.7646 -45.7642 -45.7639 -45.7232
   -45.6422 -45.6414 -45.6409 -45.6187 -45.6185 -45.6180 -45.5929 -45.5928
    12.0565  13.8864  13.8864  13.8865  15.1280  15.1282  15.1282  15.6101
    15.8188  15.8191  15.8196  16.0257  16.0258  16.3726  16.3730  16.3735
    17.3043  17.3044  17.7728  17.7733  17.7738  19.9369  19.9373  19.9375
    25.1857  25.1857  25.1858

          k = 0.3125 0.3125 0.4375 (  2320 PWs)   bands (ev):

   -85.2863 -85.2816 -85.2765 -85.2764 -45.7722 -45.7721 -45.7616 -45.7470
   -45.6382 -45.6381 -45.6159 -45.6140 -45.6139 -45.6101 -45.6011 -45.5988
    12.7151  13.3575  13.8545  13.8545  15.3210  15.3211  15.5040  15.7279
    15.8607  15.9163  15.9684  15.9685  16.0315  16.1529  16.2387  16.2388
    17.5417  17.5648  17.7047  17.7047  17.7305  18.4297  20.2524  20.2524
    24.1045  24.1045  26.2734

          k = 0.3125 0.4375 0.4375 (  2323 PWs)   bands (ev):

   -85.2832 -85.2805 -85.2791 -85.2781 -45.7794 -45.7756 -45.7750 -45.7663
   -45.6258 -45.6188 -45.6182 -45.6078 -45.6073 -45.6065 -45.6052 -45.5987
    13.0907  13.4691  13.4691  13.6283  15.5608  15.6477  15.6486  15.8561
    15.9578  16.0352  16.0356  16.0650  16.1662  16.1969  16.1974  16.2561
    17.4858  17.6548  17.6554  17.6628  17.9829  18.8503  18.8514  19.5593
    24.0034  24.8342  24.8343

          k = 0.4375 0.4375 0.4375 (  2314 PWs)   bands (ev):

   -85.2818 -85.2803 -85.2794 -85.2789 -45.7874 -45.7872 -45.7869 -45.7826
   -45.6085 -45.6078 -45.6074 -45.6049 -45.6049 -45.6043 -45.6015 -45.6015
    13.1957  13.3704  13.3704  13.3705  15.7712  15.7715  15.7716  15.8697
    15.8698  15.9072  15.9076  15.9081  16.8161  16.8164  16.8167  17.0057
    17.6828  17.6828  17.7446  17.7450  17.7456  18.5068  18.5072  18.5075
    23.9104  23.9105  23.9105

          k = 0.1875 0.0625 0.0625 (  2314 PWs)   bands (ev):

   -85.3089 -85.2728 -85.2703 -85.2688 -45.7660 -45.7660 -45.7606 -45.6667
   -45.6663 -45.6506 -45.6496 -45.6494 -45.6453 -45.5970 -45.5781 -45.5761
     9.3783  13.4802  13.7079  13.7082  14.2189  14.2267  14.2267  15.7134
    16.0280  16.0322  16.8556  16.9265  16.9266  17.0439  17.3195  17.5017
    17.5027  17.5279  17.7786  17.8777  17.8796  18.9662  21.3902  21.3903
    27.7398  27.7401  29.8839

          k = 0.3125 0.0625 0.0625 (  2313 PWs)   bands (ev):

   -85.3029 -85.2787 -85.2702 -85.2688 -45.7499 -45.7498 -45.7345 -45.6835
   -45.6832 -45.6508 -45.6497 -45.6369 -45.6343 -45.6258 -45.5893 -45.5875
    10.1540  13.2161  14.0500  14.0502  14.4531  14.4919  14.4919  15.4516
    16.1343  16.1344  16.2178  16.2377  16.6623  16.6824  17.1567  17.2151
    17.2162  17.2420  17.6308  17.7731  17.8726  17.8746  22.7833  22.7834
    27.6688  27.6688  28.3033

          k = 0.4375 0.0625 0.0625 (  2316 PWs)   bands (ev):

   -85.2952 -85.2866 -85.2702 -85.2688 -45.7294 -45.7290 -45.7045 -45.7039
   -45.6999 -45.6620 -45.6509 -45.6498 -45.6208 -45.6198 -45.6039 -45.6033
    11.2258  12.3906  14.3527  14.3527  14.7671  14.8875  14.8876  15.1176
    15.4465  15.4466  16.2398  16.2564  16.5304  16.7208  16.8823  16.9547
    16.9560  17.1332  17.3054  17.4699  17.8711  17.8731  24.3332  24.3333
    26.0619  26.0620  28.6149

          k = 0.1875 0.1875 0.0625 (  2312 PWs)   bands (ev):

   -85.3058 -85.2728 -85.2726 -85.2695 -45.7577 -45.7562 -45.7559 -45.6803
   -45.6586 -45.6586 -45.6436 -45.6435 -45.6426 -45.6177 -45.5837 -45.5754
     9.7705  13.7046  13.7047  13.8959  14.3326  14.3403  14.3404  15.6403
    16.0774  16.0812  16.5728  16.5879  16.5879  16.8368  17.0563  17.3306
    17.4019  17.4020  17.7570  17.7571  17.7879  19.8954  19.8954  22.1708
    27.3059  28.1964  29.9606

          k = 0.1875 0.3125 0.0625 (  2301 PWs)   bands (ev):

   -85.3003 -85.2782 -85.2718 -85.2699 -45.7469 -45.7432 -45.7370 -45.6958
   -45.6740 -45.6468 -45.6447 -45.6412 -45.6384 -45.6303 -45.5953 -45.5822
    10.5243  13.4701  14.0844  14.2142  14.5293  14.5547  14.5806  15.4381
    15.8641  16.0079  16.1213  16.1360  16.2480  16.7339  17.0946  17.1349
    17.1756  17.2155  17.5610  17.7107  17.7215  18.5408  21.0382  23.3633
    25.5118  28.3563  28.4114

          k = 0.3125 0.0625 0.1875 (  2301 PWs)   bands (ev):

   -85.3003 -85.2781 -85.2721 -85.2698 -45.7471 -45.7432 -45.7368 -45.6959
   -45.6740 -45.6467 -45.6446 -45.6410 -45.6383 -45.6306 -45.5953 -45.5823
    10.5244  13.4702  14.0842  14.2142  14.5293  14.5545  14.5807  15.4380
    15.8640  16.0080  16.1214  16.1360  16.2481  16.7340  17.0946  17.1349
    17.1758  17.2154  17.5610  17.7105  17.7214  18.5408  21.0382  23.3633
    25.5117  28.3563  28.4114

          k = 0.1875 0.4375 0.0625 (  2308 PWs)   bands (ev):

   -85.2933 -85.2855 -85.2711 -85.2706 -45.7354 -45.7297 -45.7104 -45.7057
   -45.6932 -45.6790 -45.6388 -45.6375 -45.6279 -45.6134 -45.6107 -45.5961
    11.5605  12.6807  14.4588  14.5319  14.7558  14.8395  14.8901  15.1512
    15.3007  15.4602  15.9340  16.0542  16.4934  16.7992  16.8537  16.8918
    16.9288  17.2249  17.4557  17.6918  17.6938  17.8040  22.2913  23.6319
    25.0534  26.5993  29.0308

          k = 0.4375 0.0625 0.1875 (  2308 PWs)   bands (ev):

   -85.2933 -85.2854 -85.2716 -85.2701 -45.7356 -45.7297 -45.7102 -45.7058
   -45.6932 -45.6788 -45.6387 -45.6373 -45.6279 -45.6136 -45.6106 -45.5962
    11.5605  12.6807  14.4587  14.5318  14.7558  14.8393  14.8903  15.1510
    15.3008  15.4603  15.9341  16.0543  16.4935  16.7993  16.8537  16.8919
    16.9290  17.2249  17.4557  17.6913  17.6940  17.8040  22.2913  23.6319
    25.0535  26.5994  29.0308

          k = 0.3125 0.3125 0.0625 (  2305 PWs)   bands (ev):

   -85.2956 -85.2767 -85.2766 -85.2714 -45.7391 -45.7389 -45.7349 -45.7044
   -45.6736 -45.6592 -45.6592 -45.6282 -45.6252 -45.6250 -45.6074 -45.5830
    11.2304  13.9029  13.9029  14.4465  14.6355  14.7552  14.7553  15.3600
    15.5949  15.5949  15.7544  16.0568  16.3232  16.6927  16.8992  16.9887
    16.9889  17.4525  17.4526  17.4671  17.5528  19.4425  19.4425  23.2350
    24.7000  28.8586  29.2739

          k = 0.3125 0.4375 0.0625 (  2310 PWs)   bands (ev):

   -85.2897 -85.2829 -85.2748 -85.2731 -45.7383 -45.7349 -45.7232 -45.7008
   -45.6962 -45.6778 -45.6417 -45.6237 -45.6225 -45.6217 -45.6072 -45.5920
    12.1834  13.1933  14.3392  14.5407  14.8400  14.9784  14.9895  15.1951
    15.2470  15.4395  15.6476  15.8896  16.4635  16.7026  16.7416  16.7910
    16.8031  17.1210  17.4109  17.4437  17.8535  18.4278  20.4699  21.7182
    25.9607  27.5152  29.6149

          k = 0.4375 0.0625 0.3125 (  2310 PWs)   bands (ev):

   -85.2897 -85.2828 -85.2751 -85.2729 -45.7384 -45.7350 -45.7231 -45.7007
   -45.6963 -45.6778 -45.6417 -45.6236 -45.6225 -45.6216 -45.6073 -45.5920
    12.1834  13.1933  14.3392  14.5407  14.8399  14.9783  14.9895  15.1950
    15.2470  15.4396  15.6477  15.8896  16.4635  16.7025  16.7417  16.7911
    16.8031  17.1210  17.4108  17.4437  17.8535  18.4278  20.4698  21.7182
    25.9608  27.5152  29.6149

          k = 0.4375 0.4375 0.0625 (  2302 PWs)   bands (ev):

   -85.2849 -85.2797 -85.2795 -85.2761 -45.7373 -45.7333 -45.7332 -45.7201
   -45.6790 -45.6596 -45.6596 -45.6407 -45.6111 -45.6057 -45.6057 -45.5952
    12.9841  13.7734  13.7734  14.2350  15.1601  15.1601  15.1641  15.2098
    15.3558  15.4368  15.4369  15.7186  16.4325  16.5656  16.5656  16.5713
    16.8640  17.1033  17.1034  17.2222  18.4029  19.1986  19.1986  20.2389
    27.2278  28.7475  28.7475

          k = 0.3125 0.1875 0.1875 (  2312 PWs)   bands (ev):

   -85.2983 -85.2776 -85.2731 -85.2716 -45.7506 -45.7500 -45.7429 -45.6758
   -45.6745 -45.6683 -45.6448 -45.6336 -45.6329 -45.6284 -45.5904 -45.5856
    10.8701  13.6506  14.1889  14.1889  14.6303  14.6304  14.6607  15.4538
    15.8425  15.8431  15.9380  16.1135  16.1582  16.8130  16.9065  16.9077
    16.9252  17.1871  17.7501  17.7514  17.7713  18.9120  21.4134  21.4137
    26.1092  26.1093  28.9619

          k = 0.4375 0.1875 0.1875 (  2296 PWs)   bands (ev):

   -85.2916 -85.2842 -85.2728 -85.2714 -45.7478 -45.7471 -45.7239 -45.6979
   -45.6810 -45.6797 -45.6312 -45.6305 -45.6206 -45.6160 -45.6026 -45.5997
    11.8543  12.9039  14.4889  14.4892  14.7555  14.7556  14.9418  15.2212
    15.5249  15.5257  15.8435  15.9961  16.3033  16.5293  16.7434  16.7448
    17.1747  17.4227  17.6307  17.6816  17.6831  17.8174  22.3317  22.3322
    24.7051  24.7054  30.2051

          k = 0.3125 0.3125 0.1875 (  2308 PWs)   bands (ev):

   -85.2940 -85.2768 -85.2766 -85.2730 -45.7547 -45.7508 -45.7507 -45.6959
   -45.6728 -45.6497 -45.6497 -45.6248 -45.6232 -45.6229 -45.5978 -45.5865
    11.5234  13.9122  13.9122  14.2605  14.8063  14.8781  14.8781  15.4460
    15.6861  15.6861  15.7768  16.0564  16.1333  16.6361  16.6361  16.6517
    16.9929  17.3805  17.6936  17.7086  17.7086  19.6127  19.6127  21.8285
    24.4899  27.0021  27.0021

          k = 0.3125 0.4375 0.1875 (  2310 PWs)   bands (ev):

   -85.2886 -85.2824 -85.2754 -85.2741 -45.7575 -45.7563 -45.7412 -45.7219
   -45.6661 -45.6576 -45.6275 -45.6195 -45.6193 -45.6107 -45.6087 -45.5947
    12.3829  13.2634  14.1263  14.2395  15.0081  15.0632  15.1672  15.3620
    15.6001  15.6954  15.7165  15.9092  16.1975  16.3772  16.5002  16.5116
    17.1764  17.5146  17.6030  17.6038  17.7391  18.3716  20.4847  21.4293
    24.3636  25.4267  28.2015

          k = 0.4375 0.1875 0.3125 (  2310 PWs)   bands (ev):

   -85.2886 -85.2822 -85.2757 -85.2738 -45.7576 -45.7563 -45.7412 -45.7218
   -45.6662 -45.6576 -45.6274 -45.6195 -45.6190 -45.6107 -45.6088 -45.5947
    12.3829  13.2635  14.1263  14.2396  15.0081  15.0631  15.1671  15.3619
    15.6002  15.6955  15.7166  15.9092  16.1975  16.3772  16.5002  16.5118
    17.1764  17.5146  17.6026  17.6041  17.7391  18.3717  20.4847  21.4293
    24.3636  25.4267  28.2015

          k = 0.4375 0.4375 0.1875 (  2316 PWs)   bands (ev):

   -85.2844 -85.2799 -85.2796 -85.2768 -45.7605 -45.7545 -45.7545 -45.7422
   -45.6522 -45.6388 -45.6388 -45.6233 -45.6098 -45.6058 -45.6058 -45.5964
    13.0246  13.6318  13.6318  13.9490  15.3094  15.4182  15.4183  15.5128
    15.6541  15.6542  15.7453  15.7887  16.1595  16.2834  16.2834  16.3130
    17.1908  17.4036  17.4036  17.4603  18.2650  19.0973  19.0973  20.1005
    25.2250  26.5380  26.5380

          k = 0.4375 0.3125 0.3125 (  2320 PWs)   bands (ev):

   -85.2863 -85.2814 -85.2772 -85.2758 -45.7724 -45.7719 -45.7615 -45.7470
   -45.6390 -45.6376 -45.6158 -45.6140 -45.6135 -45.6104 -45.6012 -45.5987
    12.7151  13.3575  13.8544  13.8546  15.3209  15.3210  15.5041  15.7278
    15.8607  15.9163  15.9681  15.9689  16.0315  16.1528  16.2382  16.2394
    17.5418  17.5648  17.7041  17.7053  17.7304  18.4298  20.2521  20.2527
    24.1044  24.1046  26.2734

          k = 0.4375 0.4375 0.3125 (  2323 PWs)   bands (ev):

   -85.2833 -85.2800 -85.2796 -85.2779 -45.7794 -45.7753 -45.7753 -45.7663
   -45.6260 -45.6186 -45.6186 -45.6076 -45.6076 -45.6057 -45.6057 -45.5986
    13.0908  13.4691  13.4691  13.6283  15.5607  15.6481  15.6482  15.8560
    15.9578  16.0354  16.0355  16.0651  16.1662  16.1971  16.1971  16.2561
    17.4858  17.6551  17.6551  17.6628  17.9829  18.8508  18.8509  19.5593
    24.0034  24.8342  24.8342

 ------ SPIN DOWN ----------


          k = 0.0625 0.0625 0.0625 (  2307 PWs)   bands (ev):

   -85.3129 -85.2713 -85.2706 -85.2699 -45.7759 -45.7758 -45.7755 -45.6574
   -45.6571 -45.6566 -45.6527 -45.6525 -45.6518 -45.5802 -45.5727 -45.5725
     8.9776  13.5008  13.5011  13.5013  14.0935  14.0937  14.0937  15.8485
    15.9259  15.9261  16.9823  16.9826  17.6294  17.6299  17.6302  17.6640
    17.6644  17.6652  17.8899  17.8905  17.8908  20.3731  20.3732  20.3732
    27.6218  27.6220  27.6222

          k = 0.0625 0.0625 0.1875 (  2314 PWs)   bands (ev):

   -85.3099 -85.2740 -85.2706 -85.2704 -45.7670 -45.7667 -45.7620 -45.6676
   -45.6674 -45.6514 -45.6514 -45.6502 -45.6461 -45.5982 -45.5790 -45.5771
     9.3783  13.4797  13.7076  13.7077  14.2183  14.2258  14.2260  15.7127
    16.0270  16.0312  16.8546  16.9256  16.9258  17.0433  17.3185  17.5012
    17.5013  17.5271  17.7777  17.8777  17.8778  18.9658  21.3900  21.3901
    27.7397  27.7397  29.8438

          k = 0.0625 0.0625 0.3125 (  2313 PWs)   bands (ev):

   -85.3039 -85.2798 -85.2705 -85.2705 -45.7509 -45.7506 -45.7358 -45.6844
   -45.6841 -45.6515 -45.6515 -45.6378 -45.6351 -45.6271 -45.5902 -45.5884
    10.1540  13.2158  14.0496  14.0497  14.4525  14.4910  14.4912  15.4510
    16.1334  16.1336  16.2168  16.2367  16.6614  16.6816  17.1560  17.2146
    17.2147  17.2410  17.6299  17.7722  17.8727  17.8728  22.7830  22.7831
    27.6686  27.6686  28.3029

          k = 0.0625 0.0625 0.4375 (  2316 PWs)   bands (ev):

   -85.2961 -85.2877 -85.2705 -85.2705 -45.7302 -45.7299 -45.7052 -45.7049
   -45.7012 -45.6633 -45.6517 -45.6516 -45.6217 -45.6206 -45.6049 -45.6042
    11.2259  12.3905  14.3522  14.3523  14.7665  14.8866  14.8868  15.1169
    15.4456  15.4458  16.2390  16.2554  16.5294  16.7198  16.8812  16.9543
    16.9544  17.1322  17.3047  17.4691  17.8712  17.8713  24.3329  24.3330
    26.0617  26.0618  28.6148

          k = 0.0625 0.1875 0.1875 (  2312 PWs)   bands (ev):

   -85.3068 -85.2744 -85.2729 -85.2707 -45.7584 -45.7575 -45.7570 -45.6815
   -45.6602 -45.6586 -45.6449 -45.6443 -45.6440 -45.6189 -45.5844 -45.5766
     9.7705  13.7039  13.7044  13.8955  14.3317  14.3396  14.3397  15.6395
    16.0764  16.0803  16.5721  16.5865  16.5876  16.8358  17.0556  17.3296
    17.4008  17.4015  17.7559  17.7564  17.7870  19.8945  19.8952  22.1706
    27.3056  28.1961  29.9602

          k = 0.0625 0.1875 0.3125 (  2301 PWs)   bands (ev):

   -85.3013 -85.2792 -85.2728 -85.2710 -45.7482 -45.7439 -45.7381 -45.6970
   -45.6748 -45.6478 -45.6454 -45.6423 -45.6396 -45.6316 -45.5960 -45.5834
    10.5244  13.4699  14.0838  14.2137  14.5285  14.5539  14.5800  15.4373
    15.8632  16.0073  16.1205  16.1350  16.2472  16.7329  17.0936  17.1340
    17.1749  17.2147  17.5601  17.7097  17.7205  18.5400  21.0377  23.3631
    25.5115  28.3561  28.4111

          k = 0.0625 0.1875 0.4375 (  2308 PWs)   bands (ev):

   -85.2943 -85.2865 -85.2721 -85.2716 -45.7367 -45.7306 -45.7115 -45.7067
   -45.6940 -45.6801 -45.6399 -45.6386 -45.6286 -45.6147 -45.6114 -45.5974
    11.5605  12.6806  14.4583  14.5314  14.7549  14.8387  14.8895  15.1504
    15.2999  15.4596  15.9332  16.0534  16.4926  16.7984  16.8528  16.8909
    16.9280  17.2240  17.4548  17.6908  17.6928  17.8031  22.2909  23.6316
    25.0532  26.5992  29.0305

          k = 0.0625 0.3125 0.3125 (  2305 PWs)   bands (ev):

   -85.2966 -85.2784 -85.2769 -85.2725 -45.7406 -45.7397 -45.7358 -45.7055
   -45.6748 -45.6608 -45.6591 -45.6294 -45.6268 -45.6258 -45.6082 -45.5842
    11.2304  13.9022  13.9028  14.4458  14.6350  14.7545  14.7548  15.3592
    15.5936  15.5946  15.7538  16.0558  16.3223  16.6917  16.8982  16.9877
    16.9882  17.4513  17.4519  17.4662  17.5518  19.4412  19.4424  23.2347
    24.6997  28.8583  29.2737

          k = 0.0625 0.3125 0.4375 (  2310 PWs)   bands (ev):

   -85.2907 -85.2840 -85.2758 -85.2741 -45.7395 -45.7361 -45.7243 -45.7020
   -45.6970 -45.6786 -45.6424 -45.6244 -45.6237 -45.6229 -45.6085 -45.5932
    12.1834  13.1931  14.3388  14.5400  14.8395  14.9776  14.9889  15.1944
    15.2463  15.4389  15.6468  15.8888  16.4626  16.7017  16.7407  16.7902
    16.8022  17.1201  17.4099  17.4428  17.8526  18.4269  20.4692  21.7177
    25.9605  27.5150  29.6147

          k = 0.0625 0.4375 0.4375 (  2302 PWs)   bands (ev):

   -85.2859 -85.2813 -85.2798 -85.2772 -45.7385 -45.7350 -45.7339 -45.7212
   -45.6797 -45.6611 -45.6595 -45.6415 -45.6123 -45.6075 -45.6063 -45.5963
    12.9840  13.7728  13.7734  14.2345  15.1592  15.1598  15.1636  15.2092
    15.3552  15.4355  15.4367  15.7178  16.4316  16.5646  16.5648  16.5703
    16.8631  17.1020  17.1029  17.2213  18.4020  19.1971  19.1985  20.2382
    27.2275  28.7473  28.7473

          k = 0.1875 0.1875 0.1875 (  2316 PWs)   bands (ev):

   -85.3041 -85.2743 -85.2736 -85.2728 -45.7552 -45.7547 -45.7547 -45.6685
   -45.6680 -45.6672 -45.6402 -45.6392 -45.6389 -45.6383 -45.5818 -45.5816
    10.1480  13.8895  13.8897  13.8899  14.4412  14.4413  14.4414  15.5956
    16.0923  16.0924  16.2948  16.2953  16.2955  16.9713  16.9715  17.1060
    17.1064  17.1071  17.8174  17.8179  17.8184  20.5019  20.5022  20.5024
    28.0251  28.0251  28.0251

          k = 0.1875 0.1875 0.3125 (  2312 PWs)   bands (ev):

   -85.2993 -85.2787 -85.2734 -85.2733 -45.7513 -45.7511 -45.7441 -45.6763
   -45.6761 -45.6693 -45.6458 -45.6345 -45.6344 -45.6292 -45.5913 -45.5867
    10.8701  13.6502  14.1884  14.1884  14.6297  14.6297  14.6601  15.4531
    15.8420  15.8421  15.9372  16.1126  16.1572  16.8121  16.9061  16.9062
    16.9242  17.1863  17.7498  17.7498  17.7703  18.9113  21.4131  21.4132
    26.1090  26.1090  28.9617

          k = 0.1875 0.1875 0.4375 (  2296 PWs)   bands (ev):

   -85.2926 -85.2853 -85.2731 -85.2730 -45.7485 -45.7484 -45.7251 -45.6991
   -45.6813 -45.6812 -45.6321 -45.6320 -45.6217 -45.6168 -45.6035 -45.6008
    11.8543  12.9037  14.4884  14.4885  14.7551  14.7551  14.9412  15.2206
    15.5244  15.5245  15.8426  15.9952  16.3024  16.5285  16.7431  16.7432
    17.1737  17.4219  17.6298  17.6814  17.6815  17.8164  22.3316  22.3317
    24.7049  24.7049  30.2049

          k = 0.1875 0.3125 0.3125 (  2308 PWs)   bands (ev):

   -85.2950 -85.2784 -85.2769 -85.2741 -45.7556 -45.7522 -45.7516 -45.6970
   -45.6738 -45.6513 -45.6499 -45.6259 -45.6246 -45.6237 -45.5986 -45.5877
    11.5234  13.9117  13.9118  14.2598  14.8059  14.8774  14.8775  15.4453
    15.6848  15.6857  15.7761  16.0555  16.1325  16.6349  16.6356  16.6508
    16.9919  17.3797  17.6927  17.7072  17.7080  19.6116  19.6126  21.8282
    24.4895  27.0019  27.0019

          k = 0.1875 0.3125 0.4375 (  2310 PWs)   bands (ev):

   -85.2896 -85.2834 -85.2764 -85.2751 -45.7585 -45.7574 -45.7423 -45.7230
   -45.6670 -45.6585 -45.6283 -45.6207 -45.6204 -45.6115 -45.6099 -45.5959
    12.3828  13.2632  14.1258  14.2389  15.0077  15.0626  15.1665  15.3613
    15.5994  15.6947  15.7158  15.9084  16.1966  16.3764  16.4993  16.5108
    17.1755  17.5137  17.6020  17.6028  17.7382  18.3708  20.4842  21.4290
    24.3632  25.4264  28.2012

          k = 0.1875 0.4375 0.4375 (  2316 PWs)   bands (ev):

   -85.2854 -85.2814 -85.2800 -85.2779 -45.7615 -45.7559 -45.7553 -45.7433
   -45.6530 -45.6401 -45.6391 -45.6241 -45.6110 -45.6076 -45.6064 -45.5975
    13.0244  13.6313  13.6315  13.9485  15.3089  15.4174  15.4181  15.5122
    15.6533  15.6535  15.7446  15.7879  16.1586  16.2823  16.2828  16.3121
    17.1899  17.4023  17.4030  17.4594  18.2641  19.0959  19.0972  20.0999
    25.2247  26.5376  26.5377

          k = 0.3125 0.3125 0.3125 (  2314 PWs)   bands (ev):

   -85.2916 -85.2784 -85.2776 -85.2769 -45.7655 -45.7652 -45.7651 -45.7242
   -45.6432 -45.6425 -45.6419 -45.6198 -45.6196 -45.6190 -45.5940 -45.5938
    12.0564  13.8858  13.8859  13.8860  15.1274  15.1277  15.1277  15.6095
    15.8180  15.8184  15.8189  16.0249  16.0249  16.3717  16.3721  16.3727
    17.3034  17.3034  17.7718  17.7723  17.7728  19.9363  19.9368  19.9371
    25.1853  25.1854  25.1855

          k = 0.3125 0.3125 0.4375 (  2320 PWs)   bands (ev):

   -85.2873 -85.2826 -85.2775 -85.2774 -45.7732 -45.7732 -45.7626 -45.7480
   -45.6392 -45.6391 -45.6169 -45.6150 -45.6150 -45.6111 -45.6021 -45.5998
    12.7149  13.3571  13.8539  13.8539  15.3204  15.3205  15.5034  15.7273
    15.8600  15.9155  15.9677  15.9678  16.0307  16.1520  16.2379  16.2380
    17.5408  17.5638  17.7037  17.7038  17.7295  18.4290  20.2520  20.2520
    24.1041  24.1041  26.2731

          k = 0.3125 0.4375 0.4375 (  2323 PWs)   bands (ev):

   -85.2842 -85.2815 -85.2800 -85.2791 -45.7804 -45.7765 -45.7762 -45.7673
   -45.6268 -45.6199 -45.6191 -45.6089 -45.6083 -45.6075 -45.6063 -45.5998
    13.0904  13.4686  13.4687  13.6277  15.5601  15.6470  15.6480  15.8553
    15.9570  16.0344  16.0348  16.0642  16.1658  16.1964  16.1968  16.2555
    17.4849  17.6538  17.6545  17.6618  17.9820  18.8496  18.8509  19.5588
    24.0030  24.8337  24.8339

          k = 0.4375 0.4375 0.4375 (  2314 PWs)   bands (ev):

   -85.2828 -85.2814 -85.2804 -85.2799 -45.7883 -45.7882 -45.7880 -45.7836
   -45.6096 -45.6088 -45.6084 -45.6061 -45.6059 -45.6052 -45.6026 -45.6025
    13.1953  13.3698  13.3699  13.3700  15.7704  15.7707  15.7709  15.8689
    15.8689  15.9064  15.9068  15.9073  16.8156  16.8160  16.8164  17.0056
    17.6818  17.6818  17.7436  17.7441  17.7446  18.5062  18.5067  18.5071
    23.9098  23.9099  23.9101

          k = 0.1875 0.0625 0.0625 (  2314 PWs)   bands (ev):

   -85.3099 -85.2738 -85.2713 -85.2698 -45.7671 -45.7670 -45.7616 -45.6678
   -45.6673 -45.6518 -45.6505 -45.6504 -45.6463 -45.5980 -45.5791 -45.5772
     9.3783  13.4798  13.7073  13.7078  14.2181  14.2260  14.2260  15.7125
    16.0271  16.0313  16.8548  16.9257  16.9258  17.0431  17.3187  17.5007
    17.5020  17.5270  17.7777  17.8767  17.8784  18.9659  21.3900  21.3900
    27.7394  27.7399  29.8836

          k = 0.3125 0.0625 0.0625 (  2313 PWs)   bands (ev):

   -85.3039 -85.2797 -85.2713 -85.2698 -45.7509 -45.7508 -45.7355 -45.6845
   -45.6842 -45.6519 -45.6505 -45.6380 -45.6353 -45.6268 -45.5904 -45.5885
    10.1540  13.2158  14.0494  14.0497  14.4523  14.4912  14.4912  15.4507
    16.1336  16.1337  16.2169  16.2368  16.6615  16.6818  17.1559  17.2141
    17.2155  17.2411  17.6298  17.7723  17.8716  17.8734  22.7830  22.7831
    27.6685  27.6686  28.3031

          k = 0.4375 0.0625 0.0625 (  2316 PWs)   bands (ev):

   -85.2962 -85.2876 -85.2713 -85.2698 -45.7304 -45.7300 -45.7055 -45.7049
   -45.7009 -45.6630 -45.6521 -45.6506 -45.6218 -45.6208 -45.6050 -45.6043
    11.2259  12.3905  14.3520  14.3522  14.7663  14.8867  14.8869  15.1167
    15.4457  15.4459  16.2391  16.2556  16.5295  16.7200  16.8813  16.9538
    16.9553  17.1323  17.3046  17.4690  17.8701  17.8720  24.3329  24.3331
    26.0616  26.0618  28.6145

          k = 0.1875 0.1875 0.0625 (  2312 PWs)   bands (ev):

   -85.3068 -85.2738 -85.2736 -85.2705 -45.7587 -45.7572 -45.7569 -45.6813
   -45.6597 -45.6596 -45.6447 -45.6446 -45.6435 -45.6188 -45.5847 -45.5764
     9.7705  13.7041  13.7042  13.8954  14.3319  14.3395  14.3397  15.6394
    16.0766  16.0802  16.5720  16.5871  16.5872  16.8360  17.0554  17.3297
    17.4010  17.4011  17.7560  17.7561  17.7869  19.8949  19.8950  22.1705
    27.3056  28.1961  29.9604

          k = 0.1875 0.3125 0.0625 (  2301 PWs)   bands (ev):

   -85.3013 -85.2792 -85.2728 -85.2709 -45.7479 -45.7442 -45.7381 -45.6968
   -45.6751 -45.6478 -45.6457 -45.6422 -45.6395 -45.6313 -45.5963 -45.5832
    10.5244  13.4699  14.0839  14.2137  14.5287  14.5539  14.5798  15.4373
    15.8633  16.0071  16.1206  16.1351  16.2470  16.7331  17.0937  17.1340
    17.1748  17.2146  17.5600  17.7097  17.7204  18.5401  21.0378  23.3630
    25.5115  28.3561  28.4111

          k = 0.3125 0.0625 0.1875 (  2301 PWs)   bands (ev):

   -85.3013 -85.2791 -85.2731 -85.2708 -45.7482 -45.7442 -45.7378 -45.6969
   -45.6750 -45.6477 -45.6457 -45.6421 -45.6392 -45.6316 -45.5963 -45.5833
    10.5244  13.4699  14.0838  14.2136  14.5286  14.5537  14.5800  15.4371
    15.8633  16.0072  16.1207  16.1351  16.2471  16.7331  17.0938  17.1340
    17.1749  17.2145  17.5600  17.7094  17.7204  18.5401  21.0378  23.3630
    25.5115  28.3561  28.4111

          k = 0.1875 0.4375 0.0625 (  2308 PWs)   bands (ev):

   -85.2943 -85.2865 -85.2721 -85.2716 -45.7364 -45.7307 -45.7115 -45.7067
   -45.6942 -45.6800 -45.6398 -45.6386 -45.6289 -45.6144 -45.6117 -45.5971
    11.5605  12.6806  14.4583  14.5313  14.7551  14.8387  14.8894  15.1504
    15.3000  15.4594  15.9332  16.0534  16.4925  16.7983  16.8529  16.8910
    16.9280  17.2240  17.4548  17.6908  17.6928  17.8032  22.2910  23.6316
    25.0532  26.5991  29.0305

          k = 0.4375 0.0625 0.1875 (  2308 PWs)   bands (ev):

   -85.2943 -85.2864 -85.2727 -85.2711 -45.7366 -45.7308 -45.7112 -45.7068
   -45.6942 -45.6799 -45.6398 -45.6382 -45.6290 -45.6146 -45.6117 -45.5973
    11.5605  12.6806  14.4582  14.5313  14.7551  14.8385  14.8895  15.1502
    15.3000  15.4596  15.9333  16.0535  16.4926  16.7984  16.8529  16.8911
    16.9282  17.2240  17.4548  17.6903  17.6929  17.8032  22.2909  23.6316
    25.0532  26.5991  29.0305

          k = 0.3125 0.3125 0.0625 (  2305 PWs)   bands (ev):

   -85.2966 -85.2778 -85.2776 -85.2724 -45.7401 -45.7399 -45.7360 -45.7055
   -45.6747 -45.6603 -45.6603 -45.6292 -45.6262 -45.6260 -45.6085 -45.5840
    11.2304  13.9025  13.9026  14.4459  14.6349  14.7544  14.7546  15.3591
    15.5942  15.5942  15.7537  16.0559  16.3223  16.6918  16.8983  16.9879
    16.9880  17.4515  17.4516  17.4662  17.5517  19.4418  19.4419  23.2347
    24.6996  28.8583  29.2737

          k = 0.3125 0.4375 0.0625 (  2310 PWs)   bands (ev):

   -85.2907 -85.2840 -85.2758 -85.2741 -45.7393 -45.7360 -45.7243 -45.7018
   -45.6972 -45.6788 -45.6427 -45.6247 -45.6235 -45.6227 -45.6082 -45.5930
    12.1834  13.1932  14.3388  14.5401  14.8394  14.9776  14.9888  15.1943
    15.2463  15.4388  15.6468  15.8888  16.4626  16.7017  16.7408  16.7902
    16.8022  17.1201  17.4099  17.4427  17.8526  18.4269  20.4693  21.7178
    25.9605  27.5149  29.6147

          k = 0.4375 0.0625 0.3125 (  2310 PWs)   bands (ev):

   -85.2908 -85.2838 -85.2761 -85.2739 -45.7395 -45.7360 -45.7241 -45.7017
   -45.6973 -45.6788 -45.6427 -45.6247 -45.6236 -45.6225 -45.6084 -45.5931
    12.1834  13.1932  14.3388  14.5401  14.8393  14.9775  14.9889  15.1942
    15.2463  15.4389  15.6469  15.8888  16.4626  16.7016  16.7408  16.7903
    16.8023  17.1201  17.4097  17.4426  17.8526  18.4270  20.4693  21.7177
    25.9605  27.5149  29.6147

          k = 0.4375 0.4375 0.0625 (  2302 PWs)   bands (ev):

   -85.2859 -85.2807 -85.2805 -85.2771 -45.7383 -45.7343 -45.7342 -45.7211
   -45.6800 -45.6606 -45.6606 -45.6418 -45.6121 -45.6068 -45.6067 -45.5962
    12.9840  13.7732  13.7732  14.2346  15.1593  15.1594  15.1635  15.2091
    15.3551  15.4361  15.4361  15.7178  16.4317  16.5647  16.5648  16.5705
    16.8630  17.1024  17.1024  17.2212  18.4021  19.1978  19.1979  20.2383
    27.2275  28.7473  28.7473

          k = 0.3125 0.1875 0.1875 (  2312 PWs)   bands (ev):

   -85.2993 -85.2786 -85.2741 -85.2726 -45.7516 -45.7511 -45.7439 -45.6768
   -45.6756 -45.6693 -45.6458 -45.6348 -45.6338 -45.6294 -45.5914 -45.5866
    10.8701  13.6502  14.1883  14.1884  14.6297  14.6297  14.6600  15.4530
    15.8418  15.8424  15.9373  16.1126  16.1573  16.8121  16.9056  16.9069
    16.9244  17.1862  17.7491  17.7504  17.7703  18.9114  21.4129  21.4133
    26.1090  26.1090  28.9617

          k = 0.4375 0.1875 0.1875 (  2296 PWs)   bands (ev):

   -85.2927 -85.2852 -85.2738 -85.2724 -45.7488 -45.7482 -45.7249 -45.6990
   -45.6820 -45.6808 -45.6323 -45.6313 -45.6217 -45.6170 -45.6036 -45.6008
    11.8543  12.9038  14.4883  14.4886  14.7550  14.7550  14.9410  15.2204
    15.5241  15.5250  15.8427  15.9953  16.3024  16.5285  16.7425  16.7440
    17.1738  17.4218  17.6298  17.6806  17.6820  17.8166  22.3313  22.3319
    24.7047  24.7051  30.2049

          k = 0.3125 0.3125 0.1875 (  2308 PWs)   bands (ev):

   -85.2950 -85.2778 -85.2776 -85.2740 -45.7557 -45.7519 -45.7517 -45.6970
   -45.6739 -45.6508 -45.6507 -45.6258 -45.6242 -45.6239 -45.5988 -45.5875
    11.5234  13.9117  13.9118  14.2598  14.8058  14.8774  14.8774  15.4452
    15.6853  15.6853  15.7760  16.0556  16.1324  16.6352  16.6353  16.6509
    16.9920  17.3796  17.6926  17.7076  17.7076  19.6121  19.6122  21.8281
    24.4895  27.0019  27.0019

          k = 0.3125 0.4375 0.1875 (  2310 PWs)   bands (ev):

   -85.2896 -85.2834 -85.2764 -85.2751 -45.7585 -45.7573 -45.7423 -45.7229
   -45.6671 -45.6586 -45.6285 -45.6205 -45.6203 -45.6117 -45.6097 -45.5957
    12.3828  13.2632  14.1258  14.2389  15.0076  15.0627  15.1665  15.3613
    15.5994  15.6947  15.7158  15.9083  16.1966  16.3764  16.4994  16.5108
    17.1755  17.5136  17.6020  17.6028  17.7383  18.3709  20.4842  21.4290
    24.3632  25.4263  28.2012

          k = 0.4375 0.1875 0.3125 (  2310 PWs)   bands (ev):

   -85.2896 -85.2833 -85.2768 -85.2748 -45.7585 -45.7573 -45.7422 -45.7229
   -45.6673 -45.6587 -45.6285 -45.6207 -45.6199 -45.6118 -45.6098 -45.5958
    12.3828  13.2632  14.1258  14.2390  15.0075  15.0626  15.1664  15.3612
    15.5995  15.6947  15.7158  15.9084  16.1966  16.3764  16.4994  16.5109
    17.1755  17.5136  17.6016  17.6031  17.7383  18.3709  20.4842  21.4289
    24.3632  25.4264  28.2012

          k = 0.4375 0.4375 0.1875 (  2316 PWs)   bands (ev):

   -85.2854 -85.2809 -85.2806 -85.2778 -45.7615 -45.7556 -45.7555 -45.7432
   -45.6532 -45.6398 -45.6398 -45.6244 -45.6108 -45.6069 -45.6068 -45.5974
    13.0244  13.6314  13.6315  13.9485  15.3088  15.4176  15.4177  15.5122
    15.6533  15.6534  15.7446  15.7879  16.1587  16.2826  16.2826  16.3122
    17.1899  17.4026  17.4026  17.4594  18.2642  19.0966  19.0966  20.1000
    25.2246  26.5377  26.5377

          k = 0.4375 0.3125 0.3125 (  2320 PWs)   bands (ev):

   -85.2874 -85.2824 -85.2783 -85.2768 -45.7734 -45.7730 -45.7626 -45.7480
   -45.6400 -45.6387 -45.6168 -45.6152 -45.6144 -45.6114 -45.6022 -45.5997
    12.7149  13.3571  13.8538  13.8541  15.3203  15.3205  15.5035  15.7273
    15.8599  15.9155  15.9674  15.9683  16.0306  16.1520  16.2374  16.2386
    17.5409  17.5638  17.7031  17.7043  17.7295  18.4291  20.2517  20.2523
    24.1039  24.1042  26.2731

          k = 0.4375 0.4375 0.3125 (  2323 PWs)   bands (ev):

   -85.2843 -85.2811 -85.2806 -85.2789 -45.7804 -45.7763 -45.7763 -45.7673
   -45.6270 -45.6197 -45.6196 -45.6087 -45.6086 -45.6067 -45.6066 -45.5996
    13.0904  13.4686  13.4686  13.6278  15.5600  15.6474  15.6475  15.8553
    15.9570  16.0346  16.0346  16.0642  16.1657  16.1965  16.1966  16.2555
    17.4849  17.6541  17.6541  17.6618  17.9820  18.8503  18.8503  19.5588
    24.0030  24.8338  24.8338

     the Fermi energy is    17.7676 ev

!    total energy              =   -1358.37374404 Ry
     Harris-Foulkes estimate   =   -1358.37374437 Ry
     estimated scf accuracy    <       0.00000057 Ry

     The total energy is the sum of the following terms:

     one-electron contribution =    -747.08806309 Ry
     hartree contribution      =     419.29552755 Ry
     xc contribution           =    -137.28565003 Ry
     ewald contribution        =    -893.28438931 Ry
     smearing contrib. (-TS)   =      -0.01116916 Ry

     total magnetization       =    -0.01 Bohr mag/cell
     absolute magnetization    =     0.01 Bohr mag/cell

     convergence has been achieved in  14 iterations

     Writing output data file ni-60.save/

     init_run     :      2.28s CPU      2.31s WALL (       1 calls)
     electrons    :    112.96s CPU    114.46s WALL (       1 calls)

     Called by init_run:
     wfcinit      :      2.03s CPU      2.06s WALL (       1 calls)
     potinit      :      0.03s CPU      0.03s WALL (       1 calls)
     hinit0       :      0.17s CPU      0.17s WALL (       1 calls)

     Called by electrons:
     c_bands      :    100.66s CPU    101.92s WALL (      15 calls)
     sum_band     :     11.56s CPU     11.79s WALL (      15 calls)
     v_of_rho     :      0.21s CPU      0.21s WALL (      15 calls)
     newd         :      0.53s CPU      0.54s WALL (      15 calls)
     mix_rho      :      0.03s CPU      0.03s WALL (      15 calls)

     Called by c_bands:
     init_us_2    :      0.59s CPU      0.60s WALL (    2480 calls)
     cegterg      :     97.31s CPU     98.54s WALL (    1200 calls)

     Called by sum_band:
     sum_band:bec :      0.11s CPU      0.11s WALL (    1200 calls)
     addusdens    :      0.59s CPU      0.59s WALL (      15 calls)

     Called by *egterg:
     h_psi        :     49.19s CPU     50.18s WALL (    4193 calls)
     s_psi        :      5.29s CPU      5.32s WALL (    4193 calls)
     g_psi        :      0.21s CPU      0.21s WALL (    2913 calls)
     cdiaghg      :     16.18s CPU     16.26s WALL (    4033 calls)

     Called by h_psi:
     h_psi:pot    :     49.01s CPU     50.01s WALL (    4193 calls)
     h_psi:calbec :      7.93s CPU      8.12s WALL (    4193 calls)
     vloc_psi     :     35.68s CPU     36.41s WALL (    4193 calls)
     add_vuspsi   :      5.39s CPU      5.46s WALL (    4193 calls)

     General routines
     calbec       :     11.02s CPU     11.28s WALL (    5393 calls)
     fft          :      0.10s CPU      0.10s WALL (     315 calls)
     ffts         :      0.01s CPU      0.01s WALL (      30 calls)
     fftw         :     39.54s CPU     40.35s WALL (  307282 calls)

     Parallel routines
     fft_scatt_xy :      2.64s CPU      2.69s WALL (  307627 calls)
     fft_scatt_yz :     16.23s CPU     16.53s WALL (  307627 calls)

     PWSCF        :   1m56.79s CPU   1m58.42s WALL


   This run was terminated on:  15:26:20  23Mar2022            

=------------------------------------------------------------------------------=
   JOB DONE.
=------------------------------------------------------------------------------=
