
     Program PWSCF v.6.4.1 starts on 23Mar2022 at 15:28:35 

     This program is part of the open-source Quantum ESPRESSO suite
     for quantum simulation of materials; please cite
         "P. Giannozzi et al., J. Phys.:Condens. Matter 21 395502 (2009);
         "P. Giannozzi et al., J. Phys.:Condens. Matter 29 465901 (2017);
          URL http://www.quantum-espresso.org", 
     in publications or presentations arising from this work. More details at
     http://www.quantum-espresso.org/quote

     Parallel version (MPI), running on     6 processors

     MPI processes distributed on     1 nodes
     R & G space division:  proc/nbgrp/npool/nimage =       6
     Reading input from ni-70.in
Warning: card NI1   58.6934    NI.PBE-SPN-RRKJUS_PSL.1.0.0.UPF ignored
Warning: card NI2   58.6934    NI.PBE-SPN-RRKJUS_PSL.1.0.0.UPF ignored

     Current dimensions of program PWSCF are:
     Max number of different atomic species (ntypx) = 10
     Max number of k-points (npk) =  40000
     Max angular momentum in pseudopotentials (lmaxx) =  3

     Subspace diagonalization in iterative solution of the eigenvalue problem:
     a serial algorithm will be used

     Found symmetry operation: I + (  0.0000 -0.5000 -0.5000)
     This is a supercell, fractional translations are disabled
     Message from routine setup:
     DEPRECATED: symmetry with ibrav=0, use correct ibrav instead

     Parallelization info
     --------------------
     sticks:   dense  smooth     PW     G-vecs:    dense   smooth      PW
     Min         162     162     48                 3854     3854     622
     Max         164     164     49                 3857     3857     625
     Sum         981     981    293                23127    23127    3743



     bravais-lattice index     =            0
     lattice parameter (alat)  =       6.6518  a.u.
     unit-cell volume          =     294.3233 (a.u.)^3
     number of atoms/cell      =            4
     number of atomic types    =            2
     number of electrons       =        72.00
     number of Kohn-Sham states=           43
     kinetic-energy cutoff     =      70.0000  Ry
     charge density cutoff     =     280.0000  Ry
     convergence threshold     =      1.0E-06
     mixing beta               =       0.7000
     number of iterations used =            8  plain     mixing
     Exchange-correlation      = PBE ( 1  4  3  4 0 0)

     celldm(1)=   6.651836  celldm(2)=   0.000000  celldm(3)=   0.000000
     celldm(4)=   0.000000  celldm(5)=   0.000000  celldm(6)=   0.000000

     crystal axes: (cart. coord. in units of alat)
               a(1) = (   1.000000   0.000000   0.000000 )  
               a(2) = (   0.000000   1.000000   0.000000 )  
               a(3) = (   0.000000   0.000000   1.000000 )  

     reciprocal axes: (cart. coord. in units 2 pi/alat)
               b(1) = (  1.000000  0.000000  0.000000 )  
               b(2) = (  0.000000  1.000000  0.000000 )  
               b(3) = (  0.000000  0.000000  1.000000 )  


     PseudoPot. # 1 for Ni read from file:
     /home/cristian/Escritorio/Proyecto_Grafeno/pseudopotenciales/Ni.pbe-spn-rrkjus_psl.1.0.0.UPF
     MD5 check sum: 8b3fc9aac6dafe35f580d41bb18c3945
     Pseudo is Ultrasoft + core correction, Zval = 18.0
     Generated using "atomic" code by A. Dal Corso v.6.3
     Using radial grid of 1195 points,  6 beta functions with: 
                l(1) =   0
                l(2) =   0
                l(3) =   1
                l(4) =   1
                l(5) =   2
                l(6) =   2
     Q(r) pseudized with 0 coefficients 


     PseudoPot. # 2 for Ni read from file:
     /home/cristian/Escritorio/Proyecto_Grafeno/pseudopotenciales/Ni.pbe-spn-rrkjus_psl.1.0.0.UPF
     MD5 check sum: 8b3fc9aac6dafe35f580d41bb18c3945
     Pseudo is Ultrasoft + core correction, Zval = 18.0
     Generated using "atomic" code by A. Dal Corso v.6.3
     Using radial grid of 1195 points,  6 beta functions with: 
                l(1) =   0
                l(2) =   0
                l(3) =   1
                l(4) =   1
                l(5) =   2
                l(6) =   2
     Q(r) pseudized with 0 coefficients 


     atomic species   valence    mass     pseudopotential
        Ni1           18.00    58.69340     Ni( 1.00)
        Ni2           18.00    58.69340     Ni( 1.00)

     Starting magnetic structure 
     atomic species   magnetization
        Ni1          0.100
        Ni2         -0.100

     16 Sym. Ops., with inversion, found



   Cartesian axes

     site n.     atom                  positions (alat units)
         1           Ni1 tau(   1) = (   0.0000000   0.0000000   0.0000000  )
         2           Ni2 tau(   2) = (   0.5000000   0.5000000   0.0000000  )
         3           Ni1 tau(   3) = (   0.0000000   0.5000000   0.5000000  )
         4           Ni2 tau(   4) = (   0.5000000   0.0000000   0.5000000  )

     number of k points=    40  Methfessel-Paxton smearing, width (Ry)=  0.0300
                       cart. coord. in units 2pi/alat
        k(    1) = (   0.0625000   0.0625000   0.0625000), wk =   0.0156250
        k(    2) = (   0.0625000   0.0625000   0.1875000), wk =   0.0312500
        k(    3) = (   0.0625000   0.0625000   0.3125000), wk =   0.0312500
        k(    4) = (   0.0625000   0.0625000   0.4375000), wk =   0.0312500
        k(    5) = (   0.0625000   0.1875000   0.1875000), wk =   0.0156250
        k(    6) = (   0.0625000   0.1875000   0.3125000), wk =   0.0312500
        k(    7) = (   0.0625000   0.1875000   0.4375000), wk =   0.0312500
        k(    8) = (   0.0625000   0.3125000   0.3125000), wk =   0.0156250
        k(    9) = (   0.0625000   0.3125000   0.4375000), wk =   0.0312500
        k(   10) = (   0.0625000   0.4375000   0.4375000), wk =   0.0156250
        k(   11) = (   0.1875000   0.1875000   0.1875000), wk =   0.0156250
        k(   12) = (   0.1875000   0.1875000   0.3125000), wk =   0.0312500
        k(   13) = (   0.1875000   0.1875000   0.4375000), wk =   0.0312500
        k(   14) = (   0.1875000   0.3125000   0.3125000), wk =   0.0156250
        k(   15) = (   0.1875000   0.3125000   0.4375000), wk =   0.0312500
        k(   16) = (   0.1875000   0.4375000   0.4375000), wk =   0.0156250
        k(   17) = (   0.3125000   0.3125000   0.3125000), wk =   0.0156250
        k(   18) = (   0.3125000   0.3125000   0.4375000), wk =   0.0312500
        k(   19) = (   0.3125000   0.4375000   0.4375000), wk =   0.0156250
        k(   20) = (   0.4375000   0.4375000   0.4375000), wk =   0.0156250
        k(   21) = (   0.1875000   0.0625000   0.0625000), wk =   0.0156250
        k(   22) = (   0.3125000   0.0625000   0.0625000), wk =   0.0156250
        k(   23) = (   0.4375000   0.0625000   0.0625000), wk =   0.0156250
        k(   24) = (   0.1875000   0.1875000   0.0625000), wk =   0.0312500
        k(   25) = (   0.1875000   0.3125000   0.0625000), wk =   0.0312500
        k(   26) = (   0.3125000   0.0625000   0.1875000), wk =   0.0312500
        k(   27) = (   0.1875000   0.4375000   0.0625000), wk =   0.0312500
        k(   28) = (   0.4375000   0.0625000   0.1875000), wk =   0.0312500
        k(   29) = (   0.3125000   0.3125000   0.0625000), wk =   0.0312500
        k(   30) = (   0.3125000   0.4375000   0.0625000), wk =   0.0312500
        k(   31) = (   0.4375000   0.0625000   0.3125000), wk =   0.0312500
        k(   32) = (   0.4375000   0.4375000   0.0625000), wk =   0.0312500
        k(   33) = (   0.3125000   0.1875000   0.1875000), wk =   0.0156250
        k(   34) = (   0.4375000   0.1875000   0.1875000), wk =   0.0156250
        k(   35) = (   0.3125000   0.3125000   0.1875000), wk =   0.0312500
        k(   36) = (   0.3125000   0.4375000   0.1875000), wk =   0.0312500
        k(   37) = (   0.4375000   0.1875000   0.3125000), wk =   0.0312500
        k(   38) = (   0.4375000   0.4375000   0.1875000), wk =   0.0312500
        k(   39) = (   0.4375000   0.3125000   0.3125000), wk =   0.0156250
        k(   40) = (   0.4375000   0.4375000   0.3125000), wk =   0.0312500

     Dense  grid:    23127 G-vectors     FFT dimensions: (  36,  36,  36)

     Estimated max dynamical RAM per process >      43.99 MB

     Estimated total dynamical RAM >     263.96 MB
     Generating pointlists ...
     new r_m :   0.2917 (alat units)  1.9402 (a.u.) for type    1
     new r_m :   0.2917 (alat units)  1.9402 (a.u.) for type    2

     Check: negative core charge=   -0.000011

     Initial potential from superposition of free atoms

     starting charge   71.99900, renormalised to   72.00000
     Starting wfcs are   40 randomized atomic wfcs +    3 random wfcs

     total cpu time spent up to now is        4.1 secs

     Self-consistent Calculation

     iteration #  1     ecut=    70.00 Ry     beta= 0.70
     Davidson diagonalization with overlap
     ethr =  1.00E-02,  avg # of iterations =  3.0

     Threshold (ethr) on eigenvalues was too large:
     Diagonalizing with lowered threshold

     Davidson diagonalization with overlap
     ethr =  1.81E-04,  avg # of iterations =  2.5

     total cpu time spent up to now is       21.8 secs

     total energy              =   -1358.34173261 Ry
     Harris-Foulkes estimate   =   -1358.29273324 Ry
     estimated scf accuracy    <       0.13129262 Ry

     total magnetization       =    -0.00 Bohr mag/cell
     absolute magnetization    =     3.24 Bohr mag/cell

     iteration #  2     ecut=    70.00 Ry     beta= 0.70
     Davidson diagonalization with overlap
     ethr =  1.82E-04,  avg # of iterations =  1.7

     total cpu time spent up to now is       29.2 secs

     total energy              =   -1358.35704120 Ry
     Harris-Foulkes estimate   =   -1358.35662267 Ry
     estimated scf accuracy    <       0.05500013 Ry

     total magnetization       =    -0.00 Bohr mag/cell
     absolute magnetization    =     2.51 Bohr mag/cell

     iteration #  3     ecut=    70.00 Ry     beta= 0.70
     Davidson diagonalization with overlap
     ethr =  7.64E-05,  avg # of iterations =  2.7

     total cpu time spent up to now is       39.4 secs

     total energy              =   -1358.35936076 Ry
     Harris-Foulkes estimate   =   -1358.39275921 Ry
     estimated scf accuracy    <       0.12362600 Ry

     total magnetization       =     0.01 Bohr mag/cell
     absolute magnetization    =     1.89 Bohr mag/cell

     iteration #  4     ecut=    70.00 Ry     beta= 0.70
     Davidson diagonalization with overlap
     ethr =  7.64E-05,  avg # of iterations =  2.6

     total cpu time spent up to now is       48.9 secs

     total energy              =   -1358.38331104 Ry
     Harris-Foulkes estimate   =   -1358.38305217 Ry
     estimated scf accuracy    <       0.00457193 Ry

     total magnetization       =    -0.02 Bohr mag/cell
     absolute magnetization    =     1.25 Bohr mag/cell

     iteration #  5     ecut=    70.00 Ry     beta= 0.70
     Davidson diagonalization with overlap
     ethr =  6.35E-06,  avg # of iterations =  2.7

     total cpu time spent up to now is       58.7 secs

     total energy              =   -1358.37930898 Ry
     Harris-Foulkes estimate   =   -1358.39084696 Ry
     estimated scf accuracy    <       0.13592772 Ry

     total magnetization       =     0.24 Bohr mag/cell
     absolute magnetization    =     0.87 Bohr mag/cell

     iteration #  6     ecut=    70.00 Ry     beta= 0.70
     Davidson diagonalization with overlap
     ethr =  6.35E-06,  avg # of iterations =  2.4

     total cpu time spent up to now is       67.8 secs

     total energy              =   -1358.38547981 Ry
     Harris-Foulkes estimate   =   -1358.38557150 Ry
     estimated scf accuracy    <       0.00184242 Ry

     total magnetization       =    -0.02 Bohr mag/cell
     absolute magnetization    =     0.79 Bohr mag/cell

     iteration #  7     ecut=    70.00 Ry     beta= 0.70
     Davidson diagonalization with overlap
     ethr =  2.56E-06,  avg # of iterations =  2.9

     total cpu time spent up to now is       77.2 secs

     total energy              =   -1358.38380278 Ry
     Harris-Foulkes estimate   =   -1358.38877487 Ry
     estimated scf accuracy    <       0.05954308 Ry

     total magnetization       =    -0.04 Bohr mag/cell
     absolute magnetization    =     0.60 Bohr mag/cell

     iteration #  8     ecut=    70.00 Ry     beta= 0.70
     Davidson diagonalization with overlap
     ethr =  2.56E-06,  avg # of iterations =  2.4

     total cpu time spent up to now is       86.0 secs

     total energy              =   -1358.38648620 Ry
     Harris-Foulkes estimate   =   -1358.38652395 Ry
     estimated scf accuracy    <       0.00018663 Ry

     total magnetization       =    -0.01 Bohr mag/cell
     absolute magnetization    =     0.42 Bohr mag/cell

     iteration #  9     ecut=    70.00 Ry     beta= 0.70
     Davidson diagonalization with overlap
     ethr =  2.59E-07,  avg # of iterations =  2.8

     total cpu time spent up to now is       96.4 secs

     total energy              =   -1358.38677258 Ry
     Harris-Foulkes estimate   =   -1358.38686047 Ry
     estimated scf accuracy    <       0.00005380 Ry

     total magnetization       =    -0.02 Bohr mag/cell
     absolute magnetization    =     0.24 Bohr mag/cell

     iteration # 10     ecut=    70.00 Ry     beta= 0.70
     Davidson diagonalization with overlap
     ethr =  7.47E-08,  avg # of iterations =  3.0

     total cpu time spent up to now is      107.2 secs

     total energy              =   -1358.38693622 Ry
     Harris-Foulkes estimate   =   -1358.38695266 Ry
     estimated scf accuracy    <       0.00001282 Ry

     total magnetization       =    -0.04 Bohr mag/cell
     absolute magnetization    =     0.10 Bohr mag/cell

     iteration # 11     ecut=    70.00 Ry     beta= 0.70
     Davidson diagonalization with overlap
     ethr =  1.78E-08,  avg # of iterations =  3.0

     total cpu time spent up to now is      117.5 secs

     total energy              =   -1358.38696924 Ry
     Harris-Foulkes estimate   =   -1358.38697471 Ry
     estimated scf accuracy    <       0.00001903 Ry

     total magnetization       =    -0.07 Bohr mag/cell
     absolute magnetization    =     0.07 Bohr mag/cell

     iteration # 12     ecut=    70.00 Ry     beta= 0.70
     Davidson diagonalization with overlap
     ethr =  1.78E-08,  avg # of iterations =  1.0

     total cpu time spent up to now is      124.2 secs

     total energy              =   -1358.38696124 Ry
     Harris-Foulkes estimate   =   -1358.38697083 Ry
     estimated scf accuracy    <       0.00001047 Ry

     total magnetization       =    -0.05 Bohr mag/cell
     absolute magnetization    =     0.05 Bohr mag/cell

     iteration # 13     ecut=    70.00 Ry     beta= 0.70
     Davidson diagonalization with overlap
     ethr =  1.45E-08,  avg # of iterations =  1.8

     total cpu time spent up to now is      131.7 secs

     total energy              =   -1358.38696599 Ry
     Harris-Foulkes estimate   =   -1358.38696941 Ry
     estimated scf accuracy    <       0.00000170 Ry

     total magnetization       =    -0.01 Bohr mag/cell
     absolute magnetization    =     0.02 Bohr mag/cell

     iteration # 14     ecut=    70.00 Ry     beta= 0.70
     Davidson diagonalization with overlap
     ethr =  2.36E-09,  avg # of iterations =  2.8

     Magnetic moment per site:
     atom:    1    charge:   16.7063    magn:   -0.0005    constr:    0.0000
     atom:    2    charge:   16.7063    magn:   -0.0001    constr:    0.0000
     atom:    3    charge:   16.7063    magn:   -0.0003    constr:    0.0000
     atom:    4    charge:   16.7063    magn:   -0.0001    constr:    0.0000

     total cpu time spent up to now is      141.8 secs

     End of self-consistent calculation

 ------ SPIN UP ------------


          k = 0.0625 0.0625 0.0625 (  2915 PWs)   bands (ev):

   -85.3141 -85.2714 -85.2713 -85.2711 -45.7740 -45.7740 -45.7737 -45.6554
   -45.6554 -45.6552 -45.6510 -45.6510 -45.6508 -45.5785 -45.5713 -45.5712
     8.9659  13.5004  13.5008  13.5010  14.0931  14.0932  14.0932  15.8478
    15.9253  15.9254  16.9826  16.9828  17.6293  17.6294  17.6295  17.6642
    17.6643  17.6646  17.8894  17.8897  17.8897  20.3711  20.3712  20.3712
    27.6075  27.6078  27.6079

          k = 0.0625 0.0625 0.1875 (  2913 PWs)   bands (ev):

   -85.3108 -85.2744 -85.2713 -85.2712 -45.7651 -45.7649 -45.7602 -45.6659
   -45.6658 -45.6497 -45.6496 -45.6486 -45.6445 -45.5964 -45.5773 -45.5755
     9.3682  13.4781  13.7074  13.7075  14.2180  14.2254  14.2255  15.7120
    16.0263  16.0304  16.8545  16.9253  16.9255  17.0434  17.3172  17.5011
    17.5013  17.5272  17.7772  17.8771  17.8772  18.9620  21.3875  21.3876
    27.7273  27.7273  29.8363

          k = 0.0625 0.0625 0.3125 (  2897 PWs)   bands (ev):

   -85.3045 -85.2804 -85.2712 -85.2711 -45.7489 -45.7487 -45.7339 -45.6826
   -45.6824 -45.6497 -45.6497 -45.6361 -45.6334 -45.6252 -45.5883 -45.5865
    10.1446  13.2122  14.0496  14.0497  14.4520  14.4907  14.4909  15.4506
    16.1336  16.1337  16.2167  16.2367  16.6606  16.6794  17.1566  17.2144
    17.2145  17.2410  17.6297  17.7699  17.8722  17.8723  22.7801  22.7801
    27.6656  27.6656  28.2869

          k = 0.0625 0.0625 0.4375 (  2901 PWs)   bands (ev):

   -85.2968 -85.2883 -85.2712 -85.2711 -45.7282 -45.7280 -45.7033 -45.7031
   -45.6995 -45.6615 -45.6499 -45.6499 -45.6198 -45.6187 -45.6030 -45.6023
    11.2167  12.3834  14.3526  14.3526  14.7661  14.8867  14.8869  15.1165
    15.4459  15.4461  16.2375  16.2547  16.5291  16.7191  16.8810  16.9538
    16.9539  17.1314  17.3050  17.4694  17.8707  17.8709  24.3294  24.3295
    26.0567  26.0567  28.6072

          k = 0.0625 0.1875 0.1875 (  2919 PWs)   bands (ev):

   -85.3077 -85.2744 -85.2742 -85.2714 -45.7567 -45.7555 -45.7555 -45.6798
   -45.6580 -45.6576 -45.6429 -45.6428 -45.6422 -45.6169 -45.5829 -45.5750
     9.7603  13.7026  13.7031  13.8953  14.3315  14.3391  14.3391  15.6389
    16.0760  16.0795  16.5720  16.5859  16.5861  16.8357  17.0557  17.3295
    17.4008  17.4011  17.7554  17.7555  17.7865  19.8908  19.8911  22.1678
    27.3028  28.1760  29.9561

          k = 0.0625 0.1875 0.3125 (  2909 PWs)   bands (ev):

   -85.3022 -85.2797 -85.2737 -85.2718 -45.7465 -45.7421 -45.7363 -45.6951
   -45.6733 -45.6462 -45.6437 -45.6404 -45.6380 -45.6298 -45.5943 -45.5820
    10.5144  13.4664  14.0830  14.2134  14.5287  14.5534  14.5796  15.4368
    15.8625  16.0073  16.1192  16.1343  16.2467  16.7322  17.0936  17.1340
    17.1746  17.2145  17.5597  17.7092  17.7202  18.5371  21.0327  23.3603
    25.5045  28.3499  28.3936

          k = 0.0625 0.1875 0.4375 (  2902 PWs)   bands (ev):

   -85.2948 -85.2870 -85.2731 -85.2724 -45.7348 -45.7287 -45.7097 -45.7049
   -45.6922 -45.6784 -45.6383 -45.6368 -45.6269 -45.6129 -45.6097 -45.5955
    11.5518  12.6741  14.4581  14.5317  14.7546  14.8382  14.8896  15.1499
    15.2993  15.4599  15.9323  16.0531  16.4922  16.7981  16.8522  16.8907
    16.9278  17.2234  17.4545  17.6905  17.6925  17.8018  22.2850  23.6269
    25.0461  26.5924  29.0165

          k = 0.0625 0.3125 0.3125 (  2913 PWs)   bands (ev):

   -85.2976 -85.2786 -85.2783 -85.2730 -45.7384 -45.7383 -45.7337 -45.7035
   -45.6734 -45.6585 -45.6581 -45.6274 -45.6248 -45.6247 -45.6066 -45.5829
    11.2205  13.8992  13.8997  14.4452  14.6353  14.7542  14.7542  15.3587
    15.5930  15.5931  15.7540  16.0551  16.3215  16.6910  16.8984  16.9876
    16.9880  17.4512  17.4513  17.4656  17.5516  19.4376  19.4380  23.2305
    24.6930  28.8437  29.2668

          k = 0.0625 0.3125 0.4375 (  2914 PWs)   bands (ev):

   -85.2914 -85.2846 -85.2767 -85.2748 -45.7377 -45.7339 -45.7228 -45.7002
   -45.6952 -45.6770 -45.6408 -45.6229 -45.6218 -45.6212 -45.6067 -45.5917
    12.1755  13.1870  14.3364  14.5387  14.8396  14.9771  14.9889  15.1938
    15.2457  15.4391  15.6463  15.8880  16.4619  16.7012  16.7406  16.7898
    16.8016  17.1197  17.4097  17.4426  17.8515  18.4245  20.4640  21.7123
    25.9542  27.5077  29.6018

          k = 0.0625 0.4375 0.4375 (  2916 PWs)   bands (ev):

   -85.2866 -85.2815 -85.2813 -85.2779 -45.7366 -45.7328 -45.7327 -45.7197
   -45.6781 -45.6590 -45.6586 -45.6401 -45.6105 -45.6054 -45.6053 -45.5948
    12.9770  13.7679  13.7681  14.2315  15.1592  15.1592  15.1633  15.2086
    15.3551  15.4357  15.4359  15.7171  16.4309  16.5640  16.5644  16.5701
    16.8628  17.1022  17.1024  17.2213  18.3998  19.1938  19.1942  20.2336
    27.2203  28.7398  28.7398

          k = 0.1875 0.1875 0.1875 (  2899 PWs)   bands (ev):

   -85.3048 -85.2743 -85.2742 -85.2740 -45.7530 -45.7530 -45.7528 -45.6661
   -45.6661 -45.6659 -45.6383 -45.6372 -45.6372 -45.6370 -45.5799 -45.5798
    10.1383  13.8884  13.8887  13.8889  14.4411  14.4412  14.4412  15.5951
    16.0919  16.0920  16.2942  16.2943  16.2944  16.9715  16.9717  17.1065
    17.1066  17.1068  17.8171  17.8173  17.8174  20.4980  20.4982  20.4983
    28.0182  28.0182  28.0182

          k = 0.1875 0.1875 0.3125 (  2907 PWs)   bands (ev):

   -85.3000 -85.2792 -85.2741 -85.2740 -45.7495 -45.7493 -45.7424 -45.6743
   -45.6742 -45.6678 -45.6441 -45.6327 -45.6326 -45.6275 -45.5895 -45.5852
    10.8615  13.6468  14.1874  14.1874  14.6300  14.6300  14.6599  15.4523
    15.8415  15.8416  15.9361  16.1118  16.1565  16.8121  16.9062  16.9063
    16.9236  17.1861  17.7492  17.7493  17.7697  18.9080  21.4090  21.4091
    26.0994  26.0994  28.9538

          k = 0.1875 0.1875 0.4375 (  2905 PWs)   bands (ev):

   -85.2931 -85.2859 -85.2742 -85.2741 -45.7466 -45.7465 -45.7236 -45.6974
   -45.6798 -45.6797 -45.6305 -45.6305 -45.6200 -45.6150 -45.6017 -45.5990
    11.8462  12.8972  14.4875  14.4876  14.7552  14.7553  14.9408  15.2200
    15.5242  15.5242  15.8418  15.9947  16.3022  16.5286  16.7429  16.7430
    17.1730  17.4216  17.6292  17.6808  17.6809  17.8147  22.3287  22.3288
    24.6912  24.6912  30.1967

          k = 0.1875 0.3125 0.3125 (  2908 PWs)   bands (ev):

   -85.2957 -85.2785 -85.2783 -85.2748 -45.7536 -45.7501 -45.7501 -45.6955
   -45.6717 -45.6491 -45.6488 -45.6241 -45.6226 -45.6225 -45.5968 -45.5862
    11.5151  13.9088  13.9090  14.2587  14.8063  14.8774  14.8776  15.4444
    15.6840  15.6842  15.7757  16.0549  16.1316  16.6350  16.6353  16.6510
    16.9914  17.3791  17.6924  17.7068  17.7071  19.6082  19.6086  21.8261
    24.4764  26.9917  26.9917

          k = 0.1875 0.3125 0.4375 (  2908 PWs)   bands (ev):

   -85.2901 -85.2839 -85.2772 -85.2760 -45.7565 -45.7555 -45.7406 -45.7215
   -45.6653 -45.6568 -45.6265 -45.6190 -45.6187 -45.6098 -45.6082 -45.5942
    12.3760  13.2579  14.1238  14.2374  15.0077  15.0627  15.1659  15.3603
    15.5989  15.6945  15.7152  15.9078  16.1960  16.3761  16.4993  16.5107
    17.1749  17.5131  17.6017  17.6023  17.7371  18.3688  20.4805  21.4265
    24.3495  25.4147  28.1918

          k = 0.1875 0.4375 0.4375 (  2920 PWs)   bands (ev):

   -85.2860 -85.2815 -85.2813 -85.2786 -45.7594 -45.7537 -45.7537 -45.7417
   -45.6513 -45.6382 -45.6379 -45.6224 -45.6093 -45.6054 -45.6053 -45.5962
    13.0189  13.6277  13.6277  13.9463  15.3087  15.4172  15.4176  15.5113
    15.6525  15.6526  15.7440  15.7872  16.1578  16.2818  16.2822  16.3119
    17.1892  17.4021  17.4024  17.4590  18.2624  19.0935  19.0939  20.0966
    25.2130  26.5269  26.5269

          k = 0.3125 0.3125 0.3125 (  2932 PWs)   bands (ev):

   -85.2925 -85.2785 -85.2784 -85.2782 -45.7634 -45.7634 -45.7634 -45.7231
   -45.6409 -45.6408 -45.6406 -45.6179 -45.6178 -45.6177 -45.5928 -45.5927
    12.0489  13.8836  13.8836  13.8836  15.1271  15.1274  15.1276  15.6079
    15.8174  15.8175  15.8176  16.0236  16.0237  16.3720  16.3721  16.3722
    17.3023  17.3023  17.7715  17.7717  17.7718  19.9339  19.9342  19.9343
    25.1729  25.1729  25.1730

          k = 0.3125 0.3125 0.4375 (  2914 PWs)   bands (ev):

   -85.2878 -85.2828 -85.2784 -85.2783 -45.7713 -45.7713 -45.7605 -45.7463
   -45.6374 -45.6373 -45.6150 -45.6135 -45.6134 -45.6095 -45.6007 -45.5982
    12.7093  13.3538  13.8521  13.8521  15.3202  15.3203  15.5031  15.7260
    15.8591  15.9144  15.9672  15.9672  16.0302  16.1515  16.2375  16.2376
    17.5400  17.5630  17.7031  17.7032  17.7289  18.4274  20.2504  20.2505
    24.0892  24.0893  26.2628

          k = 0.3125 0.4375 0.4375 (  2934 PWs)   bands (ev):

   -85.2848 -85.2816 -85.2814 -85.2798 -45.7783 -45.7745 -45.7744 -45.7655
   -45.6252 -45.6180 -45.6178 -45.6071 -45.6069 -45.6054 -45.6052 -45.5984
    13.0864  13.4661  13.4661  13.6260  15.5596  15.6467  15.6471  15.8544
    15.9559  16.0337  16.0340  16.0635  16.1641  16.1954  16.1957  16.2549
    17.4842  17.6533  17.6536  17.6614  17.9806  18.8479  18.8484  19.5572
    23.9891  24.8210  24.8211

          k = 0.4375 0.4375 0.4375 (  2932 PWs)   bands (ev):

   -85.2832 -85.2816 -85.2815 -85.2813 -45.7863 -45.7863 -45.7862 -45.7816
   -45.6076 -45.6075 -45.6074 -45.6042 -45.6041 -45.6039 -45.6013 -45.6011
    13.1927  13.3677  13.3678  13.3678  15.7697  15.7699  15.7701  15.8678
    15.8678  15.9056  15.9058  15.9059  16.8150  16.8152  16.8154  17.0038
    17.6812  17.6812  17.7434  17.7436  17.7437  18.5053  18.5056  18.5058
    23.8951  23.8952  23.8953

          k = 0.1875 0.0625 0.0625 (  2913 PWs)   bands (ev):

   -85.3108 -85.2744 -85.2713 -85.2711 -45.7651 -45.7651 -45.7600 -45.6659
   -45.6658 -45.6496 -45.6493 -45.6487 -45.6446 -45.5963 -45.5774 -45.5755
     9.3682  13.4782  13.7071  13.7077  14.2179  14.2255  14.2255  15.7119
    16.0264  16.0305  16.8546  16.9254  16.9255  17.0433  17.3172  17.5011
    17.5014  17.5271  17.7772  17.8768  17.8773  18.9621  21.3875  21.3876
    27.7271  27.7275  29.8737

          k = 0.3125 0.0625 0.0625 (  2897 PWs)   bands (ev):

   -85.3045 -85.2804 -85.2713 -85.2711 -45.7489 -45.7489 -45.7337 -45.6826
   -45.6825 -45.6497 -45.6493 -45.6362 -45.6335 -45.6250 -45.5884 -45.5865
    10.1446  13.2123  14.0493  14.0499  14.4519  14.4909  14.4909  15.4504
    16.1337  16.1337  16.2168  16.2368  16.6607  16.6794  17.1564  17.2144
    17.2147  17.2410  17.6296  17.7700  17.8719  17.8724  22.7801  22.7801
    27.6655  27.6657  28.2871

          k = 0.4375 0.0625 0.0625 (  2901 PWs)   bands (ev):

   -85.2968 -85.2883 -85.2713 -85.2710 -45.7282 -45.7282 -45.7034 -45.7033
   -45.6993 -45.6613 -45.6499 -45.6495 -45.6199 -45.6188 -45.6031 -45.6024
    11.2167  12.3834  14.3522  14.3528  14.7659  14.8868  14.8869  15.1163
    15.4460  15.4461  16.2376  16.2548  16.5292  16.7192  16.8810  16.9539
    16.9542  17.1314  17.3049  17.4693  17.8704  17.8709  24.3294  24.3296
    26.0567  26.0568  28.6075

          k = 0.1875 0.1875 0.0625 (  2919 PWs)   bands (ev):

   -85.3077 -85.2743 -85.2743 -85.2714 -45.7569 -45.7555 -45.7553 -45.6797
   -45.6580 -45.6579 -45.6429 -45.6427 -45.6421 -45.6168 -45.5831 -45.5749
     9.7603  13.7028  13.7029  13.8952  14.3316  14.3389  14.3391  15.6389
    16.0761  16.0794  16.5719  16.5860  16.5861  16.8358  17.0556  17.3296
    17.4009  17.4009  17.7554  17.7555  17.7864  19.8909  19.8910  22.1678
    27.3028  28.1760  29.9562

          k = 0.1875 0.3125 0.0625 (  2909 PWs)   bands (ev):

   -85.3022 -85.2797 -85.2737 -85.2718 -45.7463 -45.7423 -45.7363 -45.6950
   -45.6735 -45.6462 -45.6439 -45.6404 -45.6379 -45.6296 -45.5945 -45.5818
    10.5144  13.4664  14.0830  14.2134  14.5288  14.5534  14.5795  15.4368
    15.8626  16.0072  16.1192  16.1344  16.2466  16.7322  17.0937  17.1339
    17.1746  17.2145  17.5596  17.7092  17.7201  18.5372  21.0328  23.3602
    25.5045  28.3499  28.3936

          k = 0.3125 0.0625 0.1875 (  2909 PWs)   bands (ev):

   -85.3022 -85.2797 -85.2737 -85.2718 -45.7464 -45.7423 -45.7361 -45.6951
   -45.6735 -45.6461 -45.6439 -45.6403 -45.6378 -45.6298 -45.5945 -45.5819
    10.5144  13.4664  14.0829  14.2133  14.5288  14.5533  14.5796  15.4367
    15.8626  16.0073  16.1193  16.1344  16.2467  16.7323  17.0937  17.1339
    17.1747  17.2144  17.5596  17.7090  17.7200  18.5372  21.0328  23.3602
    25.5045  28.3499  28.3936

          k = 0.1875 0.4375 0.0625 (  2902 PWs)   bands (ev):

   -85.2948 -85.2870 -85.2731 -85.2724 -45.7347 -45.7288 -45.7097 -45.7049
   -45.6924 -45.6783 -45.6382 -45.6368 -45.6271 -45.6127 -45.6099 -45.5953
    11.5518  12.6741  14.4581  14.5316  14.7547  14.8382  14.8895  15.1498
    15.2994  15.4598  15.9323  16.0531  16.4922  16.7981  16.8522  16.8907
    16.9278  17.2234  17.4544  17.6904  17.6925  17.8018  22.2851  23.6270
    25.0461  26.5924  29.0165

          k = 0.4375 0.0625 0.1875 (  2902 PWs)   bands (ev):

   -85.2948 -85.2870 -85.2731 -85.2724 -45.7348 -45.7288 -45.7096 -45.7050
   -45.6924 -45.6782 -45.6381 -45.6367 -45.6271 -45.6129 -45.6099 -45.5955
    11.5519  12.6741  14.4581  14.5316  14.7547  14.8381  14.8896  15.1497
    15.2994  15.4599  15.9324  16.0532  16.4922  16.7981  16.8522  16.8908
    16.9279  17.2234  17.4544  17.6903  17.6924  17.8018  22.2851  23.6269
    25.0461  26.5924  29.0165

          k = 0.3125 0.3125 0.0625 (  2913 PWs)   bands (ev):

   -85.2976 -85.2785 -85.2784 -85.2730 -45.7383 -45.7382 -45.7338 -45.7035
   -45.6733 -45.6585 -45.6585 -45.6273 -45.6247 -45.6245 -45.6068 -45.5828
    11.2205  13.8994  13.8995  14.4453  14.6353  14.7541  14.7542  15.3586
    15.5931  15.5931  15.7539  16.0552  16.3215  16.6910  16.8985  16.9877
    16.9878  17.4512  17.4512  17.4656  17.5515  19.4378  19.4379  23.2305
    24.6930  28.8437  29.2668

          k = 0.3125 0.4375 0.0625 (  2914 PWs)   bands (ev):

   -85.2914 -85.2846 -85.2767 -85.2748 -45.7375 -45.7339 -45.7228 -45.7001
   -45.6953 -45.6772 -45.6410 -45.6231 -45.6217 -45.6212 -45.6066 -45.5916
    12.1755  13.1870  14.3364  14.5388  14.8395  14.9771  14.9888  15.1937
    15.2457  15.4390  15.6463  15.8880  16.4619  16.7012  16.7407  16.7898
    16.8016  17.1197  17.4097  17.4425  17.8515  18.4246  20.4641  21.7123
    25.9541  27.5076  29.6018

          k = 0.4375 0.0625 0.3125 (  2914 PWs)   bands (ev):

   -85.2914 -85.2846 -85.2767 -85.2748 -45.7376 -45.7339 -45.7227 -45.7001
   -45.6953 -45.6772 -45.6410 -45.6231 -45.6217 -45.6211 -45.6067 -45.5916
    12.1755  13.1870  14.3364  14.5388  14.8395  14.9770  14.9888  15.1937
    15.2457  15.4391  15.6464  15.8881  16.4619  16.7011  16.7407  16.7899
    16.8016  17.1197  17.4096  17.4425  17.8515  18.4246  20.4640  21.7123
    25.9541  27.5076  29.6018

          k = 0.4375 0.4375 0.0625 (  2916 PWs)   bands (ev):

   -85.2866 -85.2814 -85.2814 -85.2779 -45.7365 -45.7327 -45.7326 -45.7196
   -45.6783 -45.6591 -45.6590 -45.6403 -45.6104 -45.6053 -45.6052 -45.5947
    12.9770  13.7680  13.7681  14.2316  15.1591  15.1592  15.1632  15.2085
    15.3551  15.4357  15.4358  15.7171  16.4310  16.5643  16.5643  16.5702
    16.8628  17.1022  17.1023  17.2212  18.3998  19.1940  19.1941  20.2336
    27.2203  28.7398  28.7398

          k = 0.3125 0.1875 0.1875 (  2907 PWs)   bands (ev):

   -85.3000 -85.2792 -85.2742 -85.2740 -45.7495 -45.7494 -45.7423 -45.6744
   -45.6743 -45.6678 -45.6441 -45.6327 -45.6324 -45.6276 -45.5896 -45.5851
    10.8615  13.6468  14.1872  14.1875  14.6299  14.6301  14.6598  15.4523
    15.8415  15.8416  15.9361  16.1118  16.1565  16.8121  16.9061  16.9064
    16.9237  17.1860  17.7490  17.7494  17.7696  18.9081  21.4089  21.4092
    26.0994  26.0994  28.9538

          k = 0.4375 0.1875 0.1875 (  2905 PWs)   bands (ev):

   -85.2931 -85.2859 -85.2743 -85.2740 -45.7466 -45.7466 -45.7235 -45.6974
   -45.6799 -45.6798 -45.6305 -45.6302 -45.6200 -45.6151 -45.6018 -45.5989
    11.8462  12.8972  14.4875  14.4876  14.7550  14.7554  14.9407  15.2199
    15.5241  15.5243  15.8419  15.9947  16.3022  16.5286  16.7429  16.7432
    17.1731  17.4216  17.6292  17.6806  17.6810  17.8148  22.3285  22.3290
    24.6910  24.6913  30.1967

          k = 0.3125 0.3125 0.1875 (  2908 PWs)   bands (ev):

   -85.2957 -85.2784 -85.2784 -85.2748 -45.7537 -45.7501 -45.7500 -45.6954
   -45.6718 -45.6491 -45.6490 -45.6240 -45.6225 -45.6224 -45.5970 -45.5861
    11.5151  13.9089  13.9089  14.2587  14.8063  14.8775  14.8775  15.4444
    15.6841  15.6842  15.7757  16.0549  16.1316  16.6351  16.6352  16.6510
    16.9914  17.3791  17.6923  17.7069  17.7070  19.6084  19.6084  21.8260
    24.4764  26.9917  26.9917

          k = 0.3125 0.4375 0.1875 (  2908 PWs)   bands (ev):

   -85.2901 -85.2839 -85.2772 -85.2760 -45.7565 -45.7554 -45.7406 -45.7215
   -45.6653 -45.6568 -45.6267 -45.6189 -45.6186 -45.6099 -45.6081 -45.5941
    12.3760  13.2580  14.1238  14.2375  15.0076  15.0627  15.1659  15.3603
    15.5989  15.6945  15.7152  15.9078  16.1960  16.3761  16.4993  16.5106
    17.1749  17.5130  17.6017  17.6023  17.7372  18.3688  20.4805  21.4265
    24.3494  25.4147  28.1918

          k = 0.4375 0.1875 0.3125 (  2908 PWs)   bands (ev):

   -85.2901 -85.2839 -85.2772 -85.2760 -45.7566 -45.7554 -45.7405 -45.7214
   -45.6654 -45.6569 -45.6267 -45.6189 -45.6185 -45.6099 -45.6082 -45.5941
    12.3760  13.2580  14.1238  14.2375  15.0076  15.0626  15.1659  15.3603
    15.5990  15.6946  15.7153  15.9078  16.1960  16.3761  16.4993  16.5107
    17.1749  17.5130  17.6017  17.6023  17.7372  18.3688  20.4805  21.4265
    24.3495  25.4147  28.1918

          k = 0.4375 0.4375 0.1875 (  2920 PWs)   bands (ev):

   -85.2860 -85.2814 -85.2814 -85.2786 -45.7594 -45.7537 -45.7537 -45.7416
   -45.6514 -45.6383 -45.6382 -45.6226 -45.6092 -45.6053 -45.6052 -45.5961
    13.0189  13.6277  13.6277  13.9463  15.3086  15.4173  15.4174  15.5112
    15.6525  15.6525  15.7440  15.7872  16.1579  16.2820  16.2821  16.3119
    17.1892  17.4022  17.4022  17.4590  18.2624  19.0937  19.0937  20.0967
    25.2130  26.5269  26.5269

          k = 0.4375 0.3125 0.3125 (  2914 PWs)   bands (ev):

   -85.2878 -85.2828 -85.2785 -85.2782 -45.7714 -45.7713 -45.7604 -45.7463
   -45.6376 -45.6374 -45.6149 -45.6134 -45.6132 -45.6096 -45.6008 -45.5981
    12.7093  13.3538  13.8521  13.8522  15.3199  15.3205  15.5032  15.7260
    15.8590  15.9144  15.9671  15.9674  16.0302  16.1514  16.2375  16.2377
    17.5401  17.5630  17.7029  17.7032  17.7289  18.4274  20.2501  20.2507
    24.0891  24.0894  26.2628

          k = 0.4375 0.4375 0.3125 (  2934 PWs)   bands (ev):

   -85.2848 -85.2815 -85.2814 -85.2798 -45.7783 -45.7745 -45.7744 -45.7655
   -45.6253 -45.6181 -45.6180 -45.6070 -45.6070 -45.6053 -45.6051 -45.5983
    13.0865  13.4661  13.4661  13.6260  15.5595  15.6469  15.6469  15.8543
    15.9559  16.0338  16.0338  16.0635  16.1641  16.1954  16.1955  16.2549
    17.4842  17.6534  17.6535  17.6614  17.9806  18.8481  18.8482  19.5572
    23.9891  24.8210  24.8210

 ------ SPIN DOWN ----------


          k = 0.0625 0.0625 0.0625 (  2915 PWs)   bands (ev):

   -85.3143 -85.2716 -85.2714 -85.2713 -45.7741 -45.7741 -45.7739 -45.6557
   -45.6556 -45.6553 -45.6512 -45.6512 -45.6509 -45.5787 -45.5715 -45.5714
     8.9659  13.5003  13.5007  13.5010  14.0930  14.0931  14.0931  15.8477
    15.9251  15.9252  16.9824  16.9826  17.6291  17.6293  17.6293  17.6640
    17.6641  17.6645  17.8893  17.8894  17.8895  20.3712  20.3712  20.3712
    27.6075  27.6077  27.6079

          k = 0.0625 0.0625 0.1875 (  2913 PWs)   bands (ev):

   -85.3110 -85.2746 -85.2714 -85.2713 -45.7653 -45.7651 -45.7604 -45.6661
   -45.6659 -45.6498 -45.6498 -45.6488 -45.6447 -45.5965 -45.5775 -45.5757
     9.3683  13.4781  13.7073  13.7074  14.2179  14.2253  14.2254  15.7119
    16.0262  16.0303  16.8543  16.9252  16.9253  17.0433  17.3171  17.5010
    17.5011  17.5270  17.7770  17.8769  17.8771  18.9620  21.3875  21.3876
    27.7273  27.7273  29.8362

          k = 0.0625 0.0625 0.3125 (  2897 PWs)   bands (ev):

   -85.3047 -85.2806 -85.2714 -85.2713 -45.7491 -45.7489 -45.7341 -45.6828
   -45.6826 -45.6499 -45.6498 -45.6363 -45.6335 -45.6253 -45.5885 -45.5867
    10.1447  13.2122  14.0496  14.0496  14.4519  14.4906  14.4908  15.4504
    16.1335  16.1336  16.2166  16.2366  16.6605  16.6793  17.1564  17.2143
    17.2144  17.2408  17.6295  17.7698  17.8720  17.8722  22.7801  22.7802
    27.6656  27.6656  28.2869

          k = 0.0625 0.0625 0.4375 (  2901 PWs)   bands (ev):

   -85.2970 -85.2884 -85.2714 -85.2713 -45.7284 -45.7282 -45.7035 -45.7033
   -45.6997 -45.6617 -45.6501 -45.6501 -45.6200 -45.6189 -45.6032 -45.6025
    11.2168  12.3835  14.3525  14.3525  14.7660  14.8866  14.8868  15.1164
    15.4458  15.4459  16.2374  16.2546  16.5290  16.7190  16.8808  16.9537
    16.9538  17.1312  17.3048  17.4692  17.8705  17.8707  24.3295  24.3295
    26.0567  26.0568  28.6072

          k = 0.0625 0.1875 0.1875 (  2919 PWs)   bands (ev):

   -85.3079 -85.2746 -85.2743 -85.2716 -45.7569 -45.7557 -45.7557 -45.6800
   -45.6583 -45.6577 -45.6431 -45.6430 -45.6424 -45.6171 -45.5831 -45.5752
     9.7604  13.7025  13.7031  13.8952  14.3314  14.3390  14.3390  15.6388
    16.0758  16.0793  16.5719  16.5858  16.5859  16.8355  17.0555  17.3294
    17.4006  17.4010  17.7552  17.7554  17.7863  19.8908  19.8911  22.1679
    27.3028  28.1760  29.9561

          k = 0.0625 0.1875 0.3125 (  2909 PWs)   bands (ev):

   -85.3024 -85.2799 -85.2739 -85.2720 -45.7466 -45.7423 -45.7365 -45.6953
   -45.6734 -45.6464 -45.6439 -45.6406 -45.6381 -45.6300 -45.5945 -45.5821
    10.5145  13.4664  14.0829  14.2133  14.5286  14.5533  14.5795  15.4367
    15.8624  16.0072  16.1191  16.1342  16.2465  16.7320  17.0934  17.1338
    17.1745  17.2144  17.5595  17.7090  17.7200  18.5371  21.0327  23.3603
    25.5045  28.3499  28.3936

          k = 0.0625 0.1875 0.4375 (  2902 PWs)   bands (ev):

   -85.2950 -85.2872 -85.2733 -85.2725 -45.7350 -45.7289 -45.7099 -45.7051
   -45.6924 -45.6785 -45.6384 -45.6370 -45.6271 -45.6131 -45.6099 -45.5957
    11.5519  12.6742  14.4581  14.5316  14.7545  14.8381  14.8895  15.1497
    15.2992  15.4598  15.9321  16.0529  16.4921  16.7980  16.8520  16.8906
    16.9277  17.2233  17.4543  17.6903  17.6923  17.8017  22.2850  23.6269
    25.0462  26.5925  29.0165

          k = 0.0625 0.3125 0.3125 (  2913 PWs)   bands (ev):

   -85.2977 -85.2788 -85.2785 -85.2732 -45.7385 -45.7385 -45.7338 -45.7037
   -45.6736 -45.6588 -45.6581 -45.6276 -45.6249 -45.6249 -45.6068 -45.5831
    11.2206  13.8992  13.8997  14.4451  14.6353  14.7540  14.7541  15.3586
    15.5929  15.5930  15.7539  16.0550  16.3214  16.6908  16.8982  16.9874
    16.9879  17.4510  17.4512  17.4655  17.5514  19.4375  19.4379  23.2305
    24.6930  28.8437  29.2669

          k = 0.0625 0.3125 0.4375 (  2914 PWs)   bands (ev):

   -85.2915 -85.2848 -85.2769 -85.2749 -45.7379 -45.7341 -45.7230 -45.7004
   -45.6954 -45.6771 -45.6410 -45.6230 -45.6220 -45.6214 -45.6069 -45.5919
    12.1756  13.1870  14.3364  14.5386  14.8395  14.9770  14.9888  15.1936
    15.2456  15.4390  15.6462  15.8879  16.4618  16.7010  16.7405  16.7897
    16.8015  17.1196  17.4095  17.4424  17.8513  18.4244  20.4640  21.7122
    25.9542  27.5077  29.6018

          k = 0.0625 0.4375 0.4375 (  2916 PWs)   bands (ev):

   -85.2868 -85.2817 -85.2814 -85.2781 -45.7368 -45.7329 -45.7329 -45.7199
   -45.6783 -45.6593 -45.6587 -45.6402 -45.6107 -45.6055 -45.6055 -45.5950
    12.9770  13.7679  13.7681  14.2315  15.1591  15.1591  15.1632  15.2085
    15.3550  15.4355  15.4358  15.7170  16.4307  16.5638  16.5644  16.5699
    16.8627  17.1020  17.1023  17.2211  18.3996  19.1937  19.1941  20.2335
    27.2204  28.7398  28.7398

          k = 0.1875 0.1875 0.1875 (  2899 PWs)   bands (ev):

   -85.3050 -85.2745 -85.2743 -85.2742 -45.7532 -45.7532 -45.7530 -45.6664
   -45.6662 -45.6660 -45.6385 -45.6374 -45.6374 -45.6371 -45.5801 -45.5800
    10.1384  13.8882  13.8886  13.8888  14.4410  14.4411  14.4411  15.5950
    16.0918  16.0919  16.2941  16.2943  16.2943  16.9714  16.9715  17.1063
    17.1064  17.1067  17.8170  17.8171  17.8173  20.4980  20.4982  20.4982
    28.0182  28.0182  28.0183

          k = 0.1875 0.1875 0.3125 (  2907 PWs)   bands (ev):

   -85.3001 -85.2794 -85.2743 -85.2742 -45.7496 -45.7495 -45.7426 -45.6745
   -45.6744 -45.6680 -45.6443 -45.6329 -45.6328 -45.6277 -45.5896 -45.5854
    10.8616  13.6468  14.1873  14.1873  14.6299  14.6299  14.6598  15.4522
    15.8414  15.8415  15.9360  16.1116  16.1563  16.8120  16.9060  16.9061
    16.9234  17.1859  17.7490  17.7491  17.7695  18.9079  21.4090  21.4091
    26.0994  26.0994  28.9538

          k = 0.1875 0.1875 0.4375 (  2905 PWs)   bands (ev):

   -85.2933 -85.2861 -85.2744 -85.2743 -45.7468 -45.7467 -45.7238 -45.6976
   -45.6800 -45.6799 -45.6307 -45.6307 -45.6202 -45.6152 -45.6019 -45.5992
    11.8463  12.8972  14.4874  14.4875  14.7552  14.7552  14.9407  15.2198
    15.5241  15.5241  15.8417  15.9945  16.3020  16.5284  16.7428  16.7429
    17.1729  17.4215  17.6291  17.6807  17.6808  17.8146  22.3287  22.3288
    24.6912  24.6912  30.1967

          k = 0.1875 0.3125 0.3125 (  2908 PWs)   bands (ev):

   -85.2958 -85.2787 -85.2784 -85.2750 -45.7538 -45.7503 -45.7503 -45.6956
   -45.6719 -45.6494 -45.6489 -45.6243 -45.6228 -45.6226 -45.5970 -45.5864
    11.5152  13.9088  13.9090  14.2586  14.8063  14.8773  14.8776  15.4443
    15.6839  15.6841  15.7756  16.0548  16.1315  16.6348  16.6352  16.6508
    16.9912  17.3790  17.6922  17.7066  17.7069  19.6081  19.6085  21.8261
    24.4764  26.9917  26.9917

          k = 0.1875 0.3125 0.4375 (  2908 PWs)   bands (ev):

   -85.2903 -85.2841 -85.2774 -85.2762 -45.7567 -45.7556 -45.7408 -45.7217
   -45.6654 -45.6569 -45.6267 -45.6191 -45.6189 -45.6100 -45.6084 -45.5944
    12.3761  13.2580  14.1238  14.2374  15.0076  15.0626  15.1659  15.3602
    15.5988  15.6944  15.7151  15.9077  16.1958  16.3760  16.4991  16.5105
    17.1747  17.5129  17.6016  17.6021  17.7370  18.3686  20.4804  21.4265
    24.3495  25.4147  28.1919

          k = 0.1875 0.4375 0.4375 (  2920 PWs)   bands (ev):

   -85.2862 -85.2817 -85.2814 -85.2788 -45.7596 -45.7540 -45.7539 -45.7418
   -45.6515 -45.6385 -45.6380 -45.6226 -45.6095 -45.6055 -45.6055 -45.5964
    13.0189  13.6277  13.6277  13.9462  15.3086  15.4171  15.4175  15.5112
    15.6524  15.6524  15.7439  15.7870  16.1577  16.2816  16.2821  16.3117
    17.1891  17.4019  17.4022  17.4589  18.2623  19.0933  19.0938  20.0966
    25.2130  26.5268  26.5269

          k = 0.3125 0.3125 0.3125 (  2932 PWs)   bands (ev):

   -85.2927 -85.2787 -85.2785 -85.2784 -45.7637 -45.7635 -45.7635 -45.7233
   -45.6411 -45.6409 -45.6408 -45.6181 -45.6180 -45.6178 -45.5930 -45.5929
    12.0490  13.8835  13.8835  13.8836  15.1270  15.1273  15.1275  15.6078
    15.8173  15.8174  15.8175  16.0235  16.0235  16.3718  16.3719  16.3721
    17.3021  17.3022  17.7713  17.7715  17.7717  19.9338  19.9341  19.9343
    25.1728  25.1729  25.1730

          k = 0.3125 0.3125 0.4375 (  2914 PWs)   bands (ev):

   -85.2880 -85.2830 -85.2786 -85.2785 -45.7715 -45.7715 -45.7607 -45.7465
   -45.6376 -45.6375 -45.6151 -45.6136 -45.6136 -45.6096 -45.6009 -45.5983
    12.7094  13.3538  13.8520  13.8521  15.3201  15.3202  15.5030  15.7260
    15.8590  15.9142  15.9671  15.9671  16.0300  16.1513  16.2374  16.2375
    17.5399  17.5628  17.7029  17.7030  17.7287  18.4273  20.2504  20.2504
    24.0892  24.0892  26.2628

          k = 0.3125 0.4375 0.4375 (  2934 PWs)   bands (ev):

   -85.2850 -85.2818 -85.2815 -85.2800 -45.7784 -45.7747 -45.7746 -45.7657
   -45.6254 -45.6183 -45.6179 -45.6073 -45.6071 -45.6055 -45.6054 -45.5986
    13.0864  13.4660  13.4661  13.6259  15.5595  15.6466  15.6470  15.8542
    15.9558  16.0335  16.0339  16.0633  16.1641  16.1953  16.1956  16.2548
    17.4840  17.6531  17.6535  17.6612  17.9804  18.8478  18.8484  19.5571
    23.9891  24.8209  24.8211

          k = 0.4375 0.4375 0.4375 (  2932 PWs)   bands (ev):

   -85.2834 -85.2818 -85.2816 -85.2814 -45.7866 -45.7864 -45.7864 -45.7818
   -45.6078 -45.6076 -45.6076 -45.6044 -45.6043 -45.6040 -45.6014 -45.6013
    13.1927  13.3676  13.3677  13.3678  15.7695  15.7698  15.7700  15.8676
    15.8677  15.9055  15.9056  15.9058  16.8149  16.8152  16.8155  17.0039
    17.6810  17.6810  17.7433  17.7434  17.7436  18.5052  18.5055  18.5058
    23.8950  23.8952  23.8954

          k = 0.1875 0.0625 0.0625 (  2913 PWs)   bands (ev):

   -85.3110 -85.2746 -85.2715 -85.2712 -45.7653 -45.7653 -45.7602 -45.6661
   -45.6660 -45.6499 -45.6494 -45.6489 -45.6448 -45.5964 -45.5776 -45.5757
     9.3683  13.4782  13.7070  13.7077  14.2178  14.2254  14.2254  15.7118
    16.0262  16.0304  16.8544  16.9253  16.9253  17.0431  17.3171  17.5009
    17.5013  17.5270  17.7770  17.8767  17.8770  18.9621  21.3875  21.3876
    27.7271  27.7275  29.8739

          k = 0.3125 0.0625 0.0625 (  2897 PWs)   bands (ev):

   -85.3047 -85.2806 -85.2715 -85.2712 -45.7491 -45.7491 -45.7339 -45.6828
   -45.6827 -45.6500 -45.6494 -45.6364 -45.6336 -45.6252 -45.5886 -45.5867
    10.1447  13.2123  14.0492  14.0499  14.4518  14.4908  14.4908  15.4503
    16.1336  16.1336  16.2166  16.2366  16.6606  16.6794  17.1563  17.2142
    17.2147  17.2409  17.6294  17.7699  17.8718  17.8721  22.7801  22.7802
    27.6655  27.6657  28.2871

          k = 0.4375 0.0625 0.0625 (  2901 PWs)   bands (ev):

   -85.2970 -85.2884 -85.2715 -85.2712 -45.7284 -45.7284 -45.7035 -45.7035
   -45.6995 -45.6615 -45.6502 -45.6496 -45.6201 -45.6190 -45.6033 -45.6026
    11.2168  12.3835  14.3520  14.3528  14.7658  14.8867  14.8868  15.1162
    15.4459  15.4460  16.2375  16.2547  16.5290  16.7191  16.8809  16.9536
    16.9541  17.1313  17.3047  17.4691  17.8703  17.8707  24.3294  24.3296
    26.0567  26.0568  28.6069

          k = 0.1875 0.1875 0.0625 (  2919 PWs)   bands (ev):

   -85.3079 -85.2745 -85.2744 -85.2716 -45.7571 -45.7557 -45.7555 -45.6799
   -45.6582 -45.6581 -45.6431 -45.6430 -45.6422 -45.6170 -45.5833 -45.5751
     9.7604  13.7028  13.7029  13.8952  14.3315  14.3388  14.3390  15.6387
    16.0760  16.0793  16.5718  16.5859  16.5860  16.8356  17.0554  17.3295
    17.4007  17.4008  17.7552  17.7553  17.7863  19.8909  19.8910  22.1678
    27.3028  28.1761  29.9562

          k = 0.1875 0.3125 0.0625 (  2909 PWs)   bands (ev):

   -85.3024 -85.2799 -85.2739 -85.2720 -45.7464 -45.7425 -45.7364 -45.6952
   -45.6736 -45.6464 -45.6441 -45.6406 -45.6381 -45.6298 -45.5947 -45.5820
    10.5145  13.4664  14.0829  14.2133  14.5287  14.5533  14.5794  15.4366
    15.8625  16.0071  16.1191  16.1343  16.2465  16.7321  17.0935  17.1338
    17.1744  17.2143  17.5595  17.7090  17.7200  18.5371  21.0328  23.3603
    25.5046  28.3499  28.3936

          k = 0.3125 0.0625 0.1875 (  2909 PWs)   bands (ev):

   -85.3024 -85.2799 -85.2739 -85.2720 -45.7466 -45.7425 -45.7363 -45.6952
   -45.6736 -45.6463 -45.6441 -45.6405 -45.6380 -45.6300 -45.5947 -45.5821
    10.5145  13.4664  14.0829  14.2133  14.5287  14.5531  14.5795  15.4366
    15.8625  16.0072  16.1192  16.1343  16.2465  16.7321  17.0936  17.1338
    17.1745  17.2143  17.5595  17.7089  17.7199  18.5371  21.0327  23.3603
    25.5045  28.3499  28.3936

          k = 0.1875 0.4375 0.0625 (  2902 PWs)   bands (ev):

   -85.2950 -85.2872 -85.2733 -85.2725 -45.7348 -45.7289 -45.7099 -45.7051
   -45.6926 -45.6785 -45.6384 -45.6370 -45.6273 -45.6129 -45.6101 -45.5955
    11.5519  12.6742  14.4581  14.5315  14.7546  14.8381  14.8894  15.1497
    15.2993  15.4597  15.9322  16.0529  16.4920  16.7979  16.8521  16.8906
    16.9277  17.2233  17.4543  17.6903  17.6923  17.8017  22.2851  23.6270
    25.0461  26.5924  29.0165

          k = 0.4375 0.0625 0.1875 (  2902 PWs)   bands (ev):

   -85.2950 -85.2872 -85.2733 -85.2725 -45.7350 -45.7290 -45.7098 -45.7052
   -45.6926 -45.6784 -45.6383 -45.6368 -45.6273 -45.6131 -45.6101 -45.5956
    11.5519  12.6742  14.4580  14.5315  14.7546  14.8380  14.8895  15.1496
    15.2993  15.4598  15.9322  16.0530  16.4921  16.7980  16.8521  16.8907
    16.9278  17.2233  17.4542  17.6901  17.6922  17.8017  22.2851  23.6269
    25.0461  26.5924  29.0165

          k = 0.3125 0.3125 0.0625 (  2913 PWs)   bands (ev):

   -85.2977 -85.2787 -85.2786 -85.2732 -45.7385 -45.7384 -45.7340 -45.7037
   -45.6735 -45.6587 -45.6587 -45.6275 -45.6249 -45.6247 -45.6070 -45.5830
    11.2206  13.8994  13.8995  14.4452  14.6352  14.7540  14.7541  15.3585
    15.5929  15.5930  15.7538  16.0550  16.3213  16.6909  16.8984  16.9876
    16.9877  17.4510  17.4511  17.4655  17.5513  19.4377  19.4378  23.2305
    24.6930  28.8437  29.2668

          k = 0.3125 0.4375 0.0625 (  2914 PWs)   bands (ev):

   -85.2915 -85.2848 -85.2769 -85.2749 -45.7377 -45.7340 -45.7230 -45.7003
   -45.6955 -45.6773 -45.6412 -45.6233 -45.6219 -45.6214 -45.6067 -45.5918
    12.1756  13.1870  14.3364  14.5387  14.8395  14.9770  14.9887  15.1936
    15.2456  15.4389  15.6462  15.8879  16.4618  16.7010  16.7405  16.7897
    16.8015  17.1195  17.4095  17.4424  17.8513  18.4244  20.4640  21.7123
    25.9542  27.5077  29.6018

          k = 0.4375 0.0625 0.3125 (  2914 PWs)   bands (ev):

   -85.2915 -85.2848 -85.2769 -85.2749 -45.7378 -45.7341 -45.7229 -45.7003
   -45.6955 -45.6773 -45.6412 -45.6233 -45.6219 -45.6212 -45.6068 -45.5918
    12.1756  13.1871  14.3364  14.5387  14.8394  14.9769  14.9887  15.1936
    15.2456  15.4390  15.6463  15.8879  16.4618  16.7010  16.7406  16.7898
    16.8015  17.1196  17.4094  17.4423  17.8513  18.4245  20.4640  21.7122
    25.9542  27.5077  29.6018

          k = 0.4375 0.4375 0.0625 (  2916 PWs)   bands (ev):

   -85.2868 -85.2816 -85.2815 -85.2781 -45.7367 -45.7329 -45.7328 -45.7198
   -45.6785 -45.6592 -45.6592 -45.6404 -45.6106 -45.6054 -45.6053 -45.5949
    12.9770  13.7681  13.7681  14.2315  15.1590  15.1590  15.1631  15.2084
    15.3550  15.4356  15.4357  15.7170  16.4308  16.5641  16.5642  16.5700
    16.8626  17.1021  17.1021  17.2210  18.3996  19.1939  19.1940  20.2335
    27.2203  28.7398  28.7398

          k = 0.3125 0.1875 0.1875 (  2907 PWs)   bands (ev):

   -85.3001 -85.2794 -85.2744 -85.2741 -45.7497 -45.7496 -45.7424 -45.6746
   -45.6744 -45.6679 -45.6443 -45.6329 -45.6325 -45.6278 -45.5897 -45.5853
    10.8616  13.6468  14.1871  14.1875  14.6298  14.6300  14.6597  15.4521
    15.8414  15.8416  15.9360  16.1117  16.1564  16.8119  16.9059  16.9063
    16.9235  17.1858  17.7489  17.7492  17.7695  18.9080  21.4088  21.4092
    26.0994  26.0995  28.9538

          k = 0.4375 0.1875 0.1875 (  2905 PWs)   bands (ev):

   -85.2933 -85.2861 -85.2745 -85.2742 -45.7468 -45.7468 -45.7237 -45.6975
   -45.6801 -45.6800 -45.6308 -45.6303 -45.6202 -45.6153 -45.6020 -45.5991
    11.8463  12.8972  14.4875  14.4875  14.7549  14.7554  14.9406  15.2197
    15.5240  15.5243  15.8417  15.9946  16.3020  16.5284  16.7427  16.7431
    17.1730  17.4214  17.6290  17.6805  17.6808  17.8146  22.3284  22.3291
    24.6910  24.6914  30.1967

          k = 0.3125 0.3125 0.1875 (  2908 PWs)   bands (ev):

   -85.2958 -85.2786 -85.2785 -85.2750 -45.7539 -45.7503 -45.7502 -45.6956
   -45.6720 -45.6493 -45.6492 -45.6242 -45.6227 -45.6225 -45.5971 -45.5863
    11.5152  13.9089  13.9089  14.2587  14.8062  14.8774  14.8774  15.4443
    15.6840  15.6841  15.7756  16.0548  16.1315  16.6350  16.6350  16.6509
    16.9913  17.3789  17.6922  17.7067  17.7068  19.6083  19.6084  21.8260
    24.4764  26.9917  26.9917

          k = 0.3125 0.4375 0.1875 (  2908 PWs)   bands (ev):

   -85.2903 -85.2841 -85.2774 -85.2762 -45.7567 -45.7556 -45.7408 -45.7216
   -45.6655 -45.6570 -45.6269 -45.6191 -45.6188 -45.6101 -45.6083 -45.5942
    12.3761  13.2580  14.1238  14.2374  15.0076  15.0626  15.1658  15.3602
    15.5988  15.6944  15.7151  15.9076  16.1958  16.3760  16.4992  16.5105
    17.1747  17.5129  17.6016  17.6021  17.7370  18.3687  20.4805  21.4265
    24.3494  25.4147  28.1919

          k = 0.4375 0.1875 0.3125 (  2908 PWs)   bands (ev):

   -85.2903 -85.2841 -85.2774 -85.2761 -45.7567 -45.7556 -45.7407 -45.7216
   -45.6656 -45.6571 -45.6268 -45.6191 -45.6186 -45.6101 -45.6084 -45.5943
    12.3761  13.2580  14.1238  14.2374  15.0075  15.0625  15.1658  15.3602
    15.5989  15.6945  15.7151  15.9077  16.1958  16.3759  16.4992  16.5106
    17.1747  17.5129  17.6015  17.6021  17.7370  18.3687  20.4805  21.4265
    24.3494  25.4147  28.1919

          k = 0.4375 0.4375 0.1875 (  2920 PWs)   bands (ev):

   -85.2862 -85.2816 -85.2815 -85.2788 -45.7596 -45.7539 -45.7538 -45.7418
   -45.6516 -45.6384 -45.6384 -45.6228 -45.6094 -45.6055 -45.6053 -45.5963
    13.0189  13.6277  13.6277  13.9463  15.3085  15.4172  15.4173  15.5111
    15.6524  15.6524  15.7439  15.7870  16.1577  16.2819  16.2819  16.3118
    17.1891  17.4020  17.4020  17.4589  18.2623  19.0936  19.0937  20.0966
    25.2130  26.5269  26.5269

          k = 0.4375 0.3125 0.3125 (  2914 PWs)   bands (ev):

   -85.2880 -85.2830 -85.2787 -85.2784 -45.7716 -45.7714 -45.7606 -45.7465
   -45.6377 -45.6376 -45.6151 -45.6137 -45.6133 -45.6097 -45.6010 -45.5983
    12.7094  13.3538  13.8520  13.8522  15.3198  15.3204  15.5031  15.7259
    15.8589  15.9142  15.9670  15.9674  16.0300  16.1513  16.2373  16.2376
    17.5399  17.5628  17.7028  17.7031  17.7287  18.4273  20.2501  20.2507
    24.0890  24.0894  26.2628

          k = 0.4375 0.4375 0.3125 (  2934 PWs)   bands (ev):

   -85.2850 -85.2817 -85.2816 -85.2800 -45.7784 -45.7746 -45.7746 -45.7657
   -45.6255 -45.6182 -45.6182 -45.6072 -45.6072 -45.6054 -45.6053 -45.5985
    13.0864  13.4661  13.4661  13.6259  15.5594  15.6467  15.6468  15.8542
    15.9558  16.0337  16.0337  16.0634  16.1641  16.1954  16.1955  16.2548
    17.4840  17.6533  17.6533  17.6612  17.9804  18.8481  18.8481  19.5571
    23.9891  24.8210  24.8210

     the Fermi energy is    17.7664 ev

!    total energy              =   -1358.38696982 Ry
     Harris-Foulkes estimate   =   -1358.38696997 Ry
     estimated scf accuracy    <       0.00000023 Ry

     The total energy is the sum of the following terms:

     one-electron contribution =    -747.09957357 Ry
     hartree contribution      =     419.29883239 Ry
     xc contribution           =    -137.29066461 Ry
     ewald contribution        =    -893.28438930 Ry
     smearing contrib. (-TS)   =      -0.01117473 Ry

     total magnetization       =    -0.00 Bohr mag/cell
     absolute magnetization    =     0.00 Bohr mag/cell

     convergence has been achieved in  14 iterations

     Writing output data file ni-70.save/

     init_run     :      2.70s CPU      2.78s WALL (       1 calls)
     electrons    :    134.60s CPU    137.66s WALL (       1 calls)

     Called by init_run:
     wfcinit      :      2.45s CPU      2.51s WALL (       1 calls)
     potinit      :      0.02s CPU      0.03s WALL (       1 calls)
     hinit0       :      0.18s CPU      0.18s WALL (       1 calls)

     Called by electrons:
     c_bands      :    120.20s CPU    122.72s WALL (      15 calls)
     sum_band     :     13.70s CPU     14.23s WALL (      15 calls)
     v_of_rho     :      0.21s CPU      0.21s WALL (      15 calls)
     newd         :      0.49s CPU      0.50s WALL (      15 calls)
     mix_rho      :      0.05s CPU      0.05s WALL (      15 calls)

     Called by c_bands:
     init_us_2    :      0.79s CPU      0.79s WALL (    2480 calls)
     cegterg      :    116.12s CPU    118.62s WALL (    1200 calls)

     Called by sum_band:
     sum_band:bec :      0.11s CPU      0.11s WALL (    1200 calls)
     addusdens    :      0.59s CPU      0.63s WALL (      15 calls)

     Called by *egterg:
     h_psi        :     59.52s CPU     61.87s WALL (    4258 calls)
     s_psi        :      6.85s CPU      6.88s WALL (    4258 calls)
     g_psi        :      0.29s CPU      0.29s WALL (    2978 calls)
     cdiaghg      :     16.86s CPU     16.90s WALL (    4098 calls)

     Called by h_psi:
     h_psi:pot    :     59.32s CPU     61.67s WALL (    4258 calls)
     h_psi:calbec :      9.84s CPU     10.24s WALL (    4258 calls)
     vloc_psi     :     42.43s CPU     44.31s WALL (    4258 calls)
     add_vuspsi   :      7.04s CPU      7.11s WALL (    4258 calls)

     General routines
     calbec       :     13.59s CPU     14.14s WALL (    5458 calls)
     fft          :      0.11s CPU      0.11s WALL (     315 calls)
     ffts         :      0.01s CPU      0.01s WALL (      30 calls)
     fftw         :     47.46s CPU     49.56s WALL (  310496 calls)

     Parallel routines
     fft_scatt_xy :      2.82s CPU      2.94s WALL (  310841 calls)
     fft_scatt_yz :     22.49s CPU     23.54s WALL (  310841 calls)

     PWSCF        :   2m18.87s CPU   2m22.09s WALL


   This run was terminated on:  15:30:57  23Mar2022            

=------------------------------------------------------------------------------=
   JOB DONE.
=------------------------------------------------------------------------------=
