
     Program PWSCF v.6.4.1 starts on 20Jul2022 at 19: 1:12 

     This program is part of the open-source Quantum ESPRESSO suite
     for quantum simulation of materials; please cite
         "P. Giannozzi et al., J. Phys.:Condens. Matter 21 395502 (2009);
         "P. Giannozzi et al., J. Phys.:Condens. Matter 29 465901 (2017);
          URL http://www.quantum-espresso.org", 
     in publications or presentations arising from this work. More details at
     http://www.quantum-espresso.org/quote

     Parallel version (MPI), running on     6 processors

     MPI processes distributed on     1 nodes
     R & G space division:  proc/nbgrp/npool/nimage =       6
     Reading input from distance-2.4.in

     Current dimensions of program PWSCF are:
     Max number of different atomic species (ntypx) = 10
     Max number of k-points (npk) =  40000
     Max angular momentum in pseudopotentials (lmaxx) =  3

     IMPORTANT: XC functional enforced from input :
     Exchange-correlation      = RVV10 ( 1  4 13  4 3 0)
     Any further DFT definition will be discarded
     Please, verify this is what you really want

               file H.pbe-rrkjus.UPF: wavefunction(s)  1S renormalized
               file Cr.pbe-spn-rrkjus_psl.1.0.0.UPF: wavefunction(s)  3P renormalized

     Subspace diagonalization in iterative solution of the eigenvalue problem:
     a serial algorithm will be used


     Parallelization info
     --------------------
     sticks:   dense  smooth     PW     G-vecs:    dense   smooth      PW
     Min        3051    1746    432               270999   117096   14629
     Max        3053    1747    437               271001   117099   14630
     Sum       18313   10477   2611              1626001   702581   87777



     bravais-lattice index     =            4
     lattice parameter (alat)  =      23.2937  a.u.
     unit-cell volume          =    8879.8548 (a.u.)^3
     number of atoms/cell      =           52
     number of atomic types    =            3
     number of electrons       =       212.00
     number of Kohn-Sham states=          127
     kinetic-energy cutoff     =      70.0000  Ry
     charge density cutoff     =     490.0000  Ry
     convergence threshold     =      1.0E-06
     mixing beta               =       0.7000
     number of iterations used =            8  plain     mixing
     Exchange-correlation      = RVV10 ( 1  4 13  4 3 0)

     celldm(1)=  23.293684  celldm(2)=   0.000000  celldm(3)=   0.811261
     celldm(4)=   0.000000  celldm(5)=   0.000000  celldm(6)=   0.000000

     crystal axes: (cart. coord. in units of alat)
               a(1) = (   1.000000   0.000000   0.000000 )  
               a(2) = (  -0.500000   0.866025   0.000000 )  
               a(3) = (   0.000000   0.000000   0.811261 )  

     reciprocal axes: (cart. coord. in units 2 pi/alat)
               b(1) = (  1.000000  0.577350 -0.000000 )  
               b(2) = (  0.000000  1.154701  0.000000 )  
               b(3) = (  0.000000 -0.000000  1.232649 )  


     PseudoPot. # 1 for H  read from file:
     /home/cristian/Escritorio/Proyecto_Grafeno/pseudopotenciales/H.pbe-rrkjus.UPF
     MD5 check sum: 7cc9d459525c9a0585f487a71c3c9563
     Pseudo is Ultrasoft, Zval =  1.0
     Generated by new atomic code, or converted to UPF format
     Using radial grid of 1061 points,  2 beta functions with: 
                l(1) =   0
                l(2) =   0
     Q(r) pseudized with 0 coefficients 


     PseudoPot. # 2 for C  read from file:
     /home/cristian/Escritorio/Proyecto_Grafeno/pseudopotenciales/C.pbe-n-rrkjus_psl.1.0.0.UPF
     MD5 check sum: 1fdd950c42eb37d8afe3dd2f8d12311e
     Pseudo is Ultrasoft + core correction, Zval =  4.0
     Generated using "atomic" code by A. Dal Corso v.6.3MaX
     Using radial grid of 1073 points,  4 beta functions with: 
                l(1) =   0
                l(2) =   0
                l(3) =   1
                l(4) =   1
     Q(r) pseudized with 0 coefficients 


     PseudoPot. # 3 for Cr read from file:
     /home/cristian/Escritorio/Proyecto_Grafeno/pseudopotenciales/Cr.pbe-spn-rrkjus_psl.1.0.0.UPF
     MD5 check sum: 793d051e4f89dd1e3290b85340a92c0a
     Pseudo is Ultrasoft + core correction, Zval = 14.0
     Generated using "atomic" code by A. Dal Corso v.6.2.2
     Using radial grid of 1183 points,  6 beta functions with: 
                l(1) =   0
                l(2) =   0
                l(3) =   1
                l(4) =   1
                l(5) =   2
                l(6) =   2
     Q(r) pseudized with 0 coefficients 


     vdW kernel table read from file rVV10_kernel_table
     MD5 check sum: b8e2538accc0c0b3206b45ba4daaba6c

     atomic species   valence    mass     pseudopotential
        H              1.00     1.00794     H ( 1.00)
        C              4.00    12.01070     C ( 1.00)
        Cr            14.00    51.99610     Cr( 1.00)

     No symmetry found


                                    s                        frac. trans.

      isym =  1     identity                                     

 cryst.   s( 1) = (     1          0          0      )
                  (     0          1          0      )
                  (     0          0          1      )

 cart.    s( 1) = (  1.0000000  0.0000000  0.0000000 )
                  (  0.0000000  1.0000000  0.0000000 )
                  (  0.0000000  0.0000000  1.0000000 )


     point group C_1 (1)    
     there are  1 classes
     the character table:

       E    
A      1.00

     the symmetry operations in each class and the name of the first element:

     E        1
          identity                                               

   Cartesian axes

     site n.     atom                  positions (alat units)
         1           H   tau(   1) = (   0.2666667   0.4618802   0.1947027  )
         2           H   tau(   2) = (   0.2666667   0.4618802   0.2557154  )
         3           C   tau(   3) = (   0.0000000   0.0000000   0.0000000  )
         4           C   tau(   4) = (   0.0000000   0.1154701   0.0000000  )
         5           C   tau(   5) = (  -0.1000000   0.1732051   0.0000000  )
         6           C   tau(   6) = (  -0.1000000   0.2886751   0.0000000  )
         7           C   tau(   7) = (  -0.2000000   0.3464102   0.0000000  )
         8           C   tau(   8) = (  -0.2000000   0.4618802   0.0000000  )
         9           C   tau(   9) = (  -0.3000000   0.5196152   0.0000000  )
        10           C   tau(  10) = (  -0.3000000   0.6350853   0.0000000  )
        11           C   tau(  11) = (  -0.4000000   0.6928203   0.0000000  )
        12           C   tau(  12) = (  -0.4000000   0.8082904   0.0000000  )
        13           C   tau(  13) = (   0.2000000   0.0000000   0.0000000  )
        14           C   tau(  14) = (   0.2000000   0.1154701   0.0000000  )
        15           C   tau(  15) = (   0.1000000   0.1732051   0.0000000  )
        16           C   tau(  16) = (   0.1000000   0.2886751   0.0000000  )
        17           C   tau(  17) = (   0.0000000   0.3464102   0.0000000  )
        18           C   tau(  18) = (   0.0000000   0.4618802   0.0000000  )
        19           C   tau(  19) = (  -0.1000000   0.5196152   0.0000000  )
        20           C   tau(  20) = (  -0.1000000   0.6350853   0.0000000  )
        21           C   tau(  21) = (  -0.2000000   0.6928203   0.0000000  )
        22           C   tau(  22) = (  -0.2000000   0.8082904   0.0000000  )
        23           C   tau(  23) = (   0.4000000   0.0000000   0.0000000  )
        24           C   tau(  24) = (   0.4000000   0.1154701   0.0000000  )
        25           C   tau(  25) = (   0.3000000   0.1732051   0.0000000  )
        26           C   tau(  26) = (   0.3000000   0.2886751   0.0000000  )
        27           C   tau(  27) = (   0.2000000   0.3464102   0.0000000  )
        28           Cr  tau(  28) = (   0.2000000   0.4618802   0.0000000  )
        29           C   tau(  29) = (   0.1000000   0.5196152   0.0000000  )
        30           C   tau(  30) = (   0.1000000   0.6350853   0.0000000  )
        31           C   tau(  31) = (   0.0000000   0.6928203   0.0000000  )
        32           C   tau(  32) = (   0.0000000   0.8082904   0.0000000  )
        33           C   tau(  33) = (   0.6000000   0.0000000   0.0000000  )
        34           C   tau(  34) = (   0.6000000   0.1154701   0.0000000  )
        35           C   tau(  35) = (   0.5000000   0.1732051   0.0000000  )
        36           C   tau(  36) = (   0.5000000   0.2886751   0.0000000  )
        37           C   tau(  37) = (   0.4000000   0.3464102   0.0000000  )
        38           C   tau(  38) = (   0.4000000   0.4618802   0.0000000  )
        39           C   tau(  39) = (   0.3000000   0.5196152   0.0000000  )
        40           C   tau(  40) = (   0.3000000   0.6350853   0.0000000  )
        41           C   tau(  41) = (   0.2000000   0.6928203   0.0000000  )
        42           C   tau(  42) = (   0.2000000   0.8082904   0.0000000  )
        43           C   tau(  43) = (   0.8000000   0.0000000   0.0000000  )
        44           C   tau(  44) = (   0.8000000   0.1154701   0.0000000  )
        45           C   tau(  45) = (   0.7000000   0.1732051   0.0000000  )
        46           C   tau(  46) = (   0.7000000   0.2886751   0.0000000  )
        47           C   tau(  47) = (   0.6000000   0.3464102   0.0000000  )
        48           C   tau(  48) = (   0.6000000   0.4618802   0.0000000  )
        49           C   tau(  49) = (   0.5000000   0.5196152   0.0000000  )
        50           C   tau(  50) = (   0.5000000   0.6350853   0.0000000  )
        51           C   tau(  51) = (   0.4000000   0.6928203   0.0000000  )
        52           C   tau(  52) = (   0.4000000   0.8082904   0.0000000  )

   Crystallographic axes

     site n.     atom                  positions (cryst. coord.)
         1           H   tau(   1) = (  0.5333333  0.5333333  0.2400000  )
         2           H   tau(   2) = (  0.5333333  0.5333333  0.3152072  )
         3           C   tau(   3) = (  0.0000000  0.0000000  0.0000000  )
         4           C   tau(   4) = (  0.0666667  0.1333333  0.0000000  )
         5           C   tau(   5) = (  0.0000000  0.2000000  0.0000000  )
         6           C   tau(   6) = (  0.0666667  0.3333333  0.0000000  )
         7           C   tau(   7) = (  0.0000000  0.4000000  0.0000000  )
         8           C   tau(   8) = (  0.0666667  0.5333333  0.0000000  )
         9           C   tau(   9) = (  0.0000000  0.6000000  0.0000000  )
        10           C   tau(  10) = (  0.0666667  0.7333333  0.0000000  )
        11           C   tau(  11) = (  0.0000000  0.8000000  0.0000000  )
        12           C   tau(  12) = (  0.0666667  0.9333333  0.0000000  )
        13           C   tau(  13) = (  0.2000000  0.0000000  0.0000000  )
        14           C   tau(  14) = (  0.2666667  0.1333333  0.0000000  )
        15           C   tau(  15) = (  0.2000000  0.2000000  0.0000000  )
        16           C   tau(  16) = (  0.2666667  0.3333333  0.0000000  )
        17           C   tau(  17) = (  0.2000000  0.4000000  0.0000000  )
        18           C   tau(  18) = (  0.2666667  0.5333333  0.0000000  )
        19           C   tau(  19) = (  0.2000000  0.6000000  0.0000000  )
        20           C   tau(  20) = (  0.2666667  0.7333333  0.0000000  )
        21           C   tau(  21) = (  0.2000000  0.8000000  0.0000000  )
        22           C   tau(  22) = (  0.2666667  0.9333333  0.0000000  )
        23           C   tau(  23) = (  0.4000000  0.0000000  0.0000000  )
        24           C   tau(  24) = (  0.4666667  0.1333333  0.0000000  )
        25           C   tau(  25) = (  0.4000000  0.2000000  0.0000000  )
        26           C   tau(  26) = (  0.4666667  0.3333333  0.0000000  )
        27           C   tau(  27) = (  0.4000000  0.4000000  0.0000000  )
        28           Cr  tau(  28) = (  0.4666667  0.5333333  0.0000000  )
        29           C   tau(  29) = (  0.4000000  0.6000000  0.0000000  )
        30           C   tau(  30) = (  0.4666667  0.7333333  0.0000000  )
        31           C   tau(  31) = (  0.4000000  0.8000000  0.0000000  )
        32           C   tau(  32) = (  0.4666667  0.9333333  0.0000000  )
        33           C   tau(  33) = (  0.6000000  0.0000000  0.0000000  )
        34           C   tau(  34) = (  0.6666667  0.1333333  0.0000000  )
        35           C   tau(  35) = (  0.6000000  0.2000000  0.0000000  )
        36           C   tau(  36) = (  0.6666667  0.3333333  0.0000000  )
        37           C   tau(  37) = (  0.6000000  0.4000000  0.0000000  )
        38           C   tau(  38) = (  0.6666667  0.5333333  0.0000000  )
        39           C   tau(  39) = (  0.6000000  0.6000000  0.0000000  )
        40           C   tau(  40) = (  0.6666667  0.7333333  0.0000000  )
        41           C   tau(  41) = (  0.6000000  0.8000000  0.0000000  )
        42           C   tau(  42) = (  0.6666667  0.9333333  0.0000000  )
        43           C   tau(  43) = (  0.8000000  0.0000000  0.0000000  )
        44           C   tau(  44) = (  0.8666667  0.1333333  0.0000000  )
        45           C   tau(  45) = (  0.8000000  0.2000000  0.0000000  )
        46           C   tau(  46) = (  0.8666667  0.3333333  0.0000000  )
        47           C   tau(  47) = (  0.8000000  0.4000000  0.0000000  )
        48           C   tau(  48) = (  0.8666667  0.5333333  0.0000000  )
        49           C   tau(  49) = (  0.8000000  0.6000000  0.0000000  )
        50           C   tau(  50) = (  0.8666667  0.7333333  0.0000000  )
        51           C   tau(  51) = (  0.8000000  0.8000000  0.0000000  )
        52           C   tau(  52) = (  0.8666667  0.9333333  0.0000000  )

     number of k points=     1  Marzari-Vanderbilt smearing, width (Ry)=  0.0010
                       cart. coord. in units 2pi/alat
        k(    1) = (   0.0000000   0.0000000   0.0000000), wk =   2.0000000

                       cryst. coord.
        k(    1) = (   0.0000000   0.0000000   0.0000000), wk =   2.0000000

     Dense  grid:  1626001 G-vectors     FFT dimensions: ( 180, 180, 135)

     Smooth grid:   702581 G-vectors     FFT dimensions: ( 125, 125, 108)

     Dynamical RAM for                 wfc:      28.36 MB

     Dynamical RAM for     wfc (w. buffer):      28.36 MB

     Dynamical RAM for           str. fact:      12.41 MB

     Dynamical RAM for           local pot:       0.00 MB

     Dynamical RAM for          nlocal pot:      92.46 MB

     Dynamical RAM for                qrad:      19.73 MB

     Dynamical RAM for          rho,v,vnew:      29.46 MB

     Dynamical RAM for               rhoin:       9.82 MB

     Dynamical RAM for            rho*nmix:      66.16 MB

     Dynamical RAM for           G-vectors:      16.40 MB

     Dynamical RAM for          h,s,v(r/c):      11.81 MB

     Dynamical RAM for          <psi|beta>:       0.80 MB

     Dynamical RAM for                 psi:     113.46 MB

     Dynamical RAM for                hpsi:     113.46 MB

     Dynamical RAM for                spsi:     113.46 MB

     Dynamical RAM for      wfcinit/wfcrot:      93.90 MB

     Dynamical RAM for           addusdens:     971.75 MB

     Estimated static dynamical RAM per process >     319.78 MB

     Estimated max dynamical RAM per process >       1.26 GB

     Estimated total dynamical RAM >       7.57 GB

     Check: negative core charge=   -0.000002

     Initial potential from superposition of free atoms

     starting charge  211.80478, renormalised to  212.00000

     negative rho (up, down):  5.320E-04 0.000E+00


---------------------------------------------------------------------------------
Carrying out rVV10 run using the following parameters:
Nqs =      20    Nr_points =    1024   r_max =   100.000
b_value =  6.30000    beta =  0.00901
     q_mesh =  0.00010000  0.00030000  0.00058939  0.00100810
               0.00161396  0.00249058  0.00375900  0.00559430
               0.00824984  0.01209221  0.01765183  0.02569619
               0.03733578  0.05417739  0.07854596  0.11380545
               0.16482331  0.23864234  0.34545298  0.50000000

Gradients computed in Reciprocal space

---------------------------------------------------------------------------------


     Starting wfcs are  208 randomized atomic wfcs

     total cpu time spent up to now is       50.0 secs

     Self-consistent Calculation

     iteration #  1     ecut=    70.00 Ry     beta= 0.70
     Davidson diagonalization with overlap
     ethr =  1.00E-02,  avg # of iterations =  2.0

     negative rho (up, down):  9.159E-04 0.000E+00

     total cpu time spent up to now is      115.2 secs

     total energy              =    -783.23133654 Ry
     Harris-Foulkes estimate   =    -790.06016251 Ry
     estimated scf accuracy    <       9.71048318 Ry

     iteration #  2     ecut=    70.00 Ry     beta= 0.70
     Davidson diagonalization with overlap
     ethr =  4.58E-03,  avg # of iterations =  7.0

     negative rho (up, down):  1.027E-03 0.000E+00

     total cpu time spent up to now is      180.6 secs

     total energy              =    -776.76961295 Ry
     Harris-Foulkes estimate   =    -798.58317002 Ry
     estimated scf accuracy    <      81.23013006 Ry

     iteration #  3     ecut=    70.00 Ry     beta= 0.70
     Davidson diagonalization with overlap
     ethr =  4.58E-03,  avg # of iterations =  5.0

     negative rho (up, down):  1.170E-03 0.000E+00

     total cpu time spent up to now is      274.2 secs

     total energy              =    -785.68431989 Ry
     Harris-Foulkes estimate   =    -787.83046068 Ry
     estimated scf accuracy    <       8.54580269 Ry

     iteration #  4     ecut=    70.00 Ry     beta= 0.70
     Davidson diagonalization with overlap
     ethr =  4.03E-03,  avg # of iterations =  3.0

     negative rho (up, down):  1.580E-03 0.000E+00

     total cpu time spent up to now is      324.6 secs

     total energy              =    -786.69180183 Ry
     Harris-Foulkes estimate   =    -787.35471022 Ry
     estimated scf accuracy    <       1.90886952 Ry

     iteration #  5     ecut=    70.00 Ry     beta= 0.70
     Davidson diagonalization with overlap
     ethr =  9.00E-04,  avg # of iterations =  4.0

     negative rho (up, down):  1.851E-03 0.000E+00

     total cpu time spent up to now is      377.1 secs

     total energy              =    -786.91747128 Ry
     Harris-Foulkes estimate   =    -787.02999244 Ry
     estimated scf accuracy    <       0.44267355 Ry

     iteration #  6     ecut=    70.00 Ry     beta= 0.70
     Davidson diagonalization with overlap
     ethr =  2.09E-04,  avg # of iterations =  3.0

     negative rho (up, down):  1.939E-03 0.000E+00

     total cpu time spent up to now is      427.2 secs

     total energy              =    -786.93427820 Ry
     Harris-Foulkes estimate   =    -786.97086966 Ry
     estimated scf accuracy    <       0.14850210 Ry

     iteration #  7     ecut=    70.00 Ry     beta= 0.70
     Davidson diagonalization with overlap
     ethr =  7.00E-05,  avg # of iterations = 13.0

     negative rho (up, down):  2.113E-03 0.000E+00

     total cpu time spent up to now is      479.7 secs

     total energy              =    -786.93898459 Ry
     Harris-Foulkes estimate   =    -786.96553013 Ry
     estimated scf accuracy    <       0.12132543 Ry

     iteration #  8     ecut=    70.00 Ry     beta= 0.70
     Davidson diagonalization with overlap
     ethr =  5.72E-05,  avg # of iterations =  3.0

     negative rho (up, down):  2.534E-03 0.000E+00

     total cpu time spent up to now is      529.5 secs

     total energy              =    -786.94038210 Ry
     Harris-Foulkes estimate   =    -786.95344756 Ry
     estimated scf accuracy    <       0.05605130 Ry

     iteration #  9     ecut=    70.00 Ry     beta= 0.70
     Davidson diagonalization with overlap
     ethr =  2.64E-05,  avg # of iterations = 11.0

     negative rho (up, down):  2.791E-03 0.000E+00

     total cpu time spent up to now is      581.6 secs

     total energy              =    -786.94504908 Ry
     Harris-Foulkes estimate   =    -786.96224686 Ry
     estimated scf accuracy    <       0.10721345 Ry

     iteration # 10     ecut=    70.00 Ry     beta= 0.70
     Davidson diagonalization with overlap
     ethr =  2.64E-05,  avg # of iterations =  2.0

     negative rho (up, down):  2.854E-03 0.000E+00

     total cpu time spent up to now is      630.4 secs

     total energy              =    -786.94690571 Ry
     Harris-Foulkes estimate   =    -786.95007008 Ry
     estimated scf accuracy    <       0.04124636 Ry

     iteration # 11     ecut=    70.00 Ry     beta= 0.70
     Davidson diagonalization with overlap
     ethr =  1.95E-05,  avg # of iterations =  1.0

     negative rho (up, down):  2.711E-03 0.000E+00

     total cpu time spent up to now is      678.7 secs

     total energy              =    -786.94779494 Ry
     Harris-Foulkes estimate   =    -786.94975627 Ry
     estimated scf accuracy    <       0.03542140 Ry

     iteration # 12     ecut=    70.00 Ry     beta= 0.70
     Davidson diagonalization with overlap
     ethr =  1.67E-05,  avg # of iterations =  1.0

     negative rho (up, down):  2.760E-03 0.000E+00

     total cpu time spent up to now is      726.8 secs

     total energy              =    -786.94844917 Ry
     Harris-Foulkes estimate   =    -786.94883025 Ry
     estimated scf accuracy    <       0.00433978 Ry

     iteration # 13     ecut=    70.00 Ry     beta= 0.70
     Davidson diagonalization with overlap
     ethr =  2.05E-06,  avg # of iterations =  3.0

     negative rho (up, down):  2.777E-03 0.000E+00

     total cpu time spent up to now is      776.4 secs

     total energy              =    -786.94863502 Ry
     Harris-Foulkes estimate   =    -786.94883874 Ry
     estimated scf accuracy    <       0.00408783 Ry

     iteration # 14     ecut=    70.00 Ry     beta= 0.70
     Davidson diagonalization with overlap
     ethr =  1.93E-06,  avg # of iterations =  1.0

     negative rho (up, down):  2.788E-03 0.000E+00

     total cpu time spent up to now is      824.6 secs

     total energy              =    -786.94874325 Ry
     Harris-Foulkes estimate   =    -786.94876263 Ry
     estimated scf accuracy    <       0.00028591 Ry

     iteration # 15     ecut=    70.00 Ry     beta= 0.70
     Davidson diagonalization with overlap
     ethr =  1.35E-07,  avg # of iterations =  3.0

     negative rho (up, down):  2.797E-03 0.000E+00

     total cpu time spent up to now is      873.9 secs

     total energy              =    -786.94876491 Ry
     Harris-Foulkes estimate   =    -786.94878745 Ry
     estimated scf accuracy    <       0.00093781 Ry

     iteration # 16     ecut=    70.00 Ry     beta= 0.70
     Davidson diagonalization with overlap
     ethr =  1.35E-07,  avg # of iterations =  2.0

     negative rho (up, down):  2.804E-03 0.000E+00

     total cpu time spent up to now is      922.6 secs

     total energy              =    -786.94879149 Ry
     Harris-Foulkes estimate   =    -786.94878628 Ry
     estimated scf accuracy    <       0.00001728 Ry

     iteration # 17     ecut=    70.00 Ry     beta= 0.70
     Davidson diagonalization with overlap
     ethr =  8.15E-09,  avg # of iterations =  4.0

     negative rho (up, down):  2.802E-03 0.000E+00

     total cpu time spent up to now is      977.9 secs

     total energy              =    -786.94880270 Ry
     Harris-Foulkes estimate   =    -786.94879886 Ry
     estimated scf accuracy    <       0.00006707 Ry

     iteration # 18     ecut=    70.00 Ry     beta= 0.70
     Davidson diagonalization with overlap
     ethr =  8.15E-09,  avg # of iterations =  3.0

     negative rho (up, down):  2.805E-03 0.000E+00

     total cpu time spent up to now is     1031.3 secs

     total energy              =    -786.94881158 Ry
     Harris-Foulkes estimate   =    -786.94880871 Ry
     estimated scf accuracy    <       0.00000714 Ry

     iteration # 19     ecut=    70.00 Ry     beta= 0.70
     Davidson diagonalization with overlap
     ethr =  3.37E-09,  avg # of iterations =  4.0

     negative rho (up, down):  2.806E-03 0.000E+00

     total cpu time spent up to now is     1086.4 secs

     total energy              =    -786.94881619 Ry
     Harris-Foulkes estimate   =    -786.94881711 Ry
     estimated scf accuracy    <       0.00000597 Ry

     iteration # 20     ecut=    70.00 Ry     beta= 0.70
     Davidson diagonalization with overlap
     ethr =  2.82E-09,  avg # of iterations =  4.0

     negative rho (up, down):  2.810E-03 0.000E+00

     total cpu time spent up to now is     1142.7 secs

     total energy              =    -786.94882261 Ry
     Harris-Foulkes estimate   =    -786.94882609 Ry
     estimated scf accuracy    <       0.00000772 Ry

     iteration # 21     ecut=    70.00 Ry     beta= 0.70
     Davidson diagonalization with overlap
     ethr =  2.82E-09,  avg # of iterations =  3.0

     negative rho (up, down):  2.813E-03 0.000E+00

     total cpu time spent up to now is     1199.0 secs

     total energy              =    -786.94882990 Ry
     Harris-Foulkes estimate   =    -786.94883111 Ry
     estimated scf accuracy    <       0.00000385 Ry

     iteration # 22     ecut=    70.00 Ry     beta= 0.70
     Davidson diagonalization with overlap
     ethr =  1.82E-09,  avg # of iterations =  3.0

     negative rho (up, down):  2.815E-03 0.000E+00

     total cpu time spent up to now is     1253.4 secs

     total energy              =    -786.94882951 Ry
     Harris-Foulkes estimate   =    -786.94883279 Ry
     estimated scf accuracy    <       0.00000222 Ry

     iteration # 23     ecut=    70.00 Ry     beta= 0.70
     Davidson diagonalization with overlap
     ethr =  1.05E-09,  avg # of iterations =  4.0

     negative rho (up, down):  2.820E-03 0.000E+00

     total cpu time spent up to now is     1309.6 secs

     End of self-consistent calculation

          k = 0.0000 0.0000 0.0000 ( 87777 PWs)   bands (ev):

   -71.8203 -44.1171 -44.1157 -42.9996 -19.6253 -18.7866 -18.7856 -18.6945
   -18.6937 -18.6931 -18.3201 -16.9390 -16.9385 -16.9338 -16.8277 -16.8273
   -16.5272 -16.0853 -16.0849 -15.9859 -15.9042 -15.9031 -15.1902 -13.9478
   -13.9464 -13.9044 -13.8560 -13.8555 -13.1917 -12.9300 -12.9295 -12.9005
   -12.5755 -12.5747 -12.1378 -11.6897 -11.6891 -11.5253 -11.2193 -11.2184
   -10.2541  -9.4684  -9.4677  -9.3092  -9.1772  -9.1770  -9.0852  -9.0538
    -9.0538  -9.0426  -8.5278  -8.5262  -7.9819  -7.9812  -7.8880  -7.8381
    -7.6945  -7.4879  -7.2747  -7.2726  -7.0201  -6.9751  -6.9424  -6.6921
    -6.6919  -6.6800  -6.6785  -6.6498  -6.5851  -6.4235  -6.4225  -6.3950
    -6.3902  -6.3898  -6.3416  -6.2819  -5.3814  -5.3658  -5.3137  -5.3132
    -5.0490  -5.0487  -4.8474  -4.7533  -4.5992  -4.5766  -4.5757  -4.2488
    -4.2331  -4.0273  -4.0265  -3.7103  -3.7098  -3.6287  -3.5294  -3.5292
    -3.4586  -3.4576  -2.9767  -2.4237  -2.4217  -1.7100  -1.6669  -1.6665
    -0.6987  -0.5279  -0.5277  -0.4030   1.0745   1.0935   1.0959   1.7820
     1.8790   1.8804   2.3978   2.9314   2.9349   2.9960   3.3736   3.3894
     3.4902   3.6506   3.6611   3.7079   3.7984   3.8103   3.8641

     occupation numbers 
     1.0000   1.0000   1.0000   1.0000   1.0000   1.0000   1.0000   1.0000
     1.0000   1.0000   1.0000   1.0000   1.0000   1.0000   1.0000   1.0000
     1.0000   1.0000   1.0000   1.0000   1.0000   1.0000   1.0000   1.0000
     1.0000   1.0000   1.0000   1.0000   1.0000   1.0000   1.0000   1.0000
     1.0000   1.0000   1.0000   1.0000   1.0000   1.0000   1.0000   1.0000
     1.0000   1.0000   1.0000   1.0000   1.0000   1.0000   1.0000   1.0000
     1.0000   1.0000   1.0000   1.0000   1.0000   1.0000   1.0000   1.0000
     1.0000   1.0000   1.0000   1.0000   1.0000   1.0000   1.0000   1.0000
     1.0000   1.0000   1.0000   1.0000   1.0000   1.0000   1.0000   1.0000
     1.0000   1.0000   1.0000   1.0000   1.0000   1.0000   1.0000   1.0000
     1.0000   1.0000   1.0000   1.0000   1.0000   1.0000   1.0000   1.0000
     1.0000   1.0000   1.0000   1.0000   1.0000   1.0000   1.0000   1.0000
     1.0000   1.0000   1.0000   1.0000   1.0000   1.0000   1.0000   1.0000
     1.0000   0.5060   0.4940   0.0000   0.0000   0.0000   0.0000   0.0000
     0.0000   0.0000   0.0000   0.0000   0.0000   0.0000   0.0000   0.0000
     0.0000   0.0000   0.0000   0.0000   0.0000   0.0000   0.0000

     the Fermi energy is    -0.5259 ev

!    total energy              =    -786.94883375 Ry
     Harris-Foulkes estimate   =    -786.94883466 Ry
     estimated scf accuracy    <       0.00000058 Ry

     The total energy is the sum of the following terms:

     one-electron contribution =   -2654.06776258 Ry
     hartree contribution      =    1372.75173726 Ry
     xc contribution           =    -254.34748032 Ry
     ewald contribution        =     748.71532816 Ry
     smearing contrib. (-TS)   =      -0.00065627 Ry

     convergence has been achieved in  23 iterations

     Writing output data file gr-12-baricentro.save/

     init_run     :     47.61s CPU     48.82s WALL (       1 calls)
     electrons    :   1222.20s CPU   1259.71s WALL (       1 calls)

     Called by init_run:
     wfcinit      :     20.62s CPU     20.82s WALL (       1 calls)
     wfcinit:atom :      0.03s CPU      0.05s WALL (       1 calls)
     wfcinit:wfcr :     20.44s CPU     20.58s WALL (       1 calls)
     potinit      :     12.13s CPU     12.52s WALL (       1 calls)
     hinit0       :     10.31s CPU     10.34s WALL (       1 calls)

     Called by electrons:
     c_bands      :    754.37s CPU    758.62s WALL (      23 calls)
     sum_band     :    230.76s CPU    243.25s WALL (      23 calls)
     v_of_rho     :    145.15s CPU    154.07s WALL (      24 calls)
     v_h          :      1.64s CPU      1.70s WALL (      24 calls)
     v_xc         :    143.51s CPU    152.37s WALL (      24 calls)
     newd         :     94.82s CPU    107.37s WALL (      24 calls)
     mix_rho      :      4.53s CPU      4.63s WALL (      23 calls)

     Called by c_bands:
     init_us_2    :      1.99s CPU      2.03s WALL (      47 calls)
     cegterg      :    748.94s CPU    753.15s WALL (      23 calls)

     Called by sum_band:
     sum_band:bec :      0.02s CPU      0.02s WALL (      23 calls)
     addusdens    :    143.25s CPU    154.99s WALL (      23 calls)

     Called by *egterg:
     h_psi        :    392.20s CPU    395.28s WALL (     113 calls)
     s_psi        :    132.49s CPU    132.56s WALL (     113 calls)
     g_psi        :      0.43s CPU      0.43s WALL (      89 calls)
     cdiaghg      :      7.78s CPU      7.79s WALL (     112 calls)
     cegterg:over :     91.71s CPU     91.76s WALL (      89 calls)
     cegterg:upda :     58.97s CPU     59.29s WALL (      89 calls)
     cegterg:last :     44.55s CPU     44.56s WALL (      24 calls)

     Called by h_psi:
     h_psi:pot    :    391.73s CPU    394.34s WALL (     113 calls)
     h_psi:calbec :    131.75s CPU    131.83s WALL (     113 calls)
     vloc_psi     :    127.68s CPU    130.16s WALL (     113 calls)
     add_vuspsi   :    132.30s CPU    132.35s WALL (     113 calls)

     General routines
     calbec       :    186.10s CPU    186.21s WALL (     136 calls)
     fft          :     79.82s CPU     83.11s WALL (    1510 calls)
     ffts         :      0.83s CPU      0.87s WALL (      47 calls)
     fftw         :    134.43s CPU    137.24s WALL (   17131 calls)
     interpolate  :      1.98s CPU      2.03s WALL (      24 calls)

     Parallel routines
     fft_scatt_xy :     37.71s CPU     38.28s WALL (   18688 calls)
     fft_scatt_yz :     70.92s CPU     75.28s WALL (   18688 calls)

     PWSCF        :  21m11.02s CPU  21m50.02s WALL


   This run was terminated on:  19:23: 2  20Jul2022            

=------------------------------------------------------------------------------=
   JOB DONE.
=------------------------------------------------------------------------------=
