
     Program PWSCF v.6.4.1 starts on 20Jul2022 at 19:23: 2 

     This program is part of the open-source Quantum ESPRESSO suite
     for quantum simulation of materials; please cite
         "P. Giannozzi et al., J. Phys.:Condens. Matter 21 395502 (2009);
         "P. Giannozzi et al., J. Phys.:Condens. Matter 29 465901 (2017);
          URL http://www.quantum-espresso.org", 
     in publications or presentations arising from this work. More details at
     http://www.quantum-espresso.org/quote

     Parallel version (MPI), running on     6 processors

     MPI processes distributed on     1 nodes
     R & G space division:  proc/nbgrp/npool/nimage =       6
     Reading input from distance-2.2.in

     Current dimensions of program PWSCF are:
     Max number of different atomic species (ntypx) = 10
     Max number of k-points (npk) =  40000
     Max angular momentum in pseudopotentials (lmaxx) =  3

     IMPORTANT: XC functional enforced from input :
     Exchange-correlation      = RVV10 ( 1  4 13  4 3 0)
     Any further DFT definition will be discarded
     Please, verify this is what you really want

               file H.pbe-rrkjus.UPF: wavefunction(s)  1S renormalized
               file Cr.pbe-spn-rrkjus_psl.1.0.0.UPF: wavefunction(s)  3P renormalized

     Subspace diagonalization in iterative solution of the eigenvalue problem:
     a serial algorithm will be used


     Parallelization info
     --------------------
     sticks:   dense  smooth     PW     G-vecs:    dense   smooth      PW
     Min        3051    1746    432               270999   117096   14629
     Max        3053    1747    437               271001   117099   14630
     Sum       18313   10477   2611              1626001   702581   87777



     bravais-lattice index     =            4
     lattice parameter (alat)  =      23.2937  a.u.
     unit-cell volume          =    8879.8548 (a.u.)^3
     number of atoms/cell      =           52
     number of atomic types    =            3
     number of electrons       =       212.00
     number of Kohn-Sham states=          127
     kinetic-energy cutoff     =      70.0000  Ry
     charge density cutoff     =     490.0000  Ry
     convergence threshold     =      1.0E-06
     mixing beta               =       0.7000
     number of iterations used =            8  plain     mixing
     Exchange-correlation      = RVV10 ( 1  4 13  4 3 0)

     celldm(1)=  23.293684  celldm(2)=   0.000000  celldm(3)=   0.811261
     celldm(4)=   0.000000  celldm(5)=   0.000000  celldm(6)=   0.000000

     crystal axes: (cart. coord. in units of alat)
               a(1) = (   1.000000   0.000000   0.000000 )  
               a(2) = (  -0.500000   0.866025   0.000000 )  
               a(3) = (   0.000000   0.000000   0.811261 )  

     reciprocal axes: (cart. coord. in units 2 pi/alat)
               b(1) = (  1.000000  0.577350 -0.000000 )  
               b(2) = (  0.000000  1.154701  0.000000 )  
               b(3) = (  0.000000 -0.000000  1.232649 )  


     PseudoPot. # 1 for H  read from file:
     /home/cristian/Escritorio/Proyecto_Grafeno/pseudopotenciales/H.pbe-rrkjus.UPF
     MD5 check sum: 7cc9d459525c9a0585f487a71c3c9563
     Pseudo is Ultrasoft, Zval =  1.0
     Generated by new atomic code, or converted to UPF format
     Using radial grid of 1061 points,  2 beta functions with: 
                l(1) =   0
                l(2) =   0
     Q(r) pseudized with 0 coefficients 


     PseudoPot. # 2 for C  read from file:
     /home/cristian/Escritorio/Proyecto_Grafeno/pseudopotenciales/C.pbe-n-rrkjus_psl.1.0.0.UPF
     MD5 check sum: 1fdd950c42eb37d8afe3dd2f8d12311e
     Pseudo is Ultrasoft + core correction, Zval =  4.0
     Generated using "atomic" code by A. Dal Corso v.6.3MaX
     Using radial grid of 1073 points,  4 beta functions with: 
                l(1) =   0
                l(2) =   0
                l(3) =   1
                l(4) =   1
     Q(r) pseudized with 0 coefficients 


     PseudoPot. # 3 for Cr read from file:
     /home/cristian/Escritorio/Proyecto_Grafeno/pseudopotenciales/Cr.pbe-spn-rrkjus_psl.1.0.0.UPF
     MD5 check sum: 793d051e4f89dd1e3290b85340a92c0a
     Pseudo is Ultrasoft + core correction, Zval = 14.0
     Generated using "atomic" code by A. Dal Corso v.6.2.2
     Using radial grid of 1183 points,  6 beta functions with: 
                l(1) =   0
                l(2) =   0
                l(3) =   1
                l(4) =   1
                l(5) =   2
                l(6) =   2
     Q(r) pseudized with 0 coefficients 


     vdW kernel table read from file rVV10_kernel_table
     MD5 check sum: b8e2538accc0c0b3206b45ba4daaba6c

     atomic species   valence    mass     pseudopotential
        H              1.00     1.00794     H ( 1.00)
        C              4.00    12.01070     C ( 1.00)
        Cr            14.00    51.99610     Cr( 1.00)

     No symmetry found


                                    s                        frac. trans.

      isym =  1     identity                                     

 cryst.   s( 1) = (     1          0          0      )
                  (     0          1          0      )
                  (     0          0          1      )

 cart.    s( 1) = (  1.0000000  0.0000000  0.0000000 )
                  (  0.0000000  1.0000000  0.0000000 )
                  (  0.0000000  0.0000000  1.0000000 )


     point group C_1 (1)    
     there are  1 classes
     the character table:

       E    
A      1.00

     the symmetry operations in each class and the name of the first element:

     E        1
          identity                                               

   Cartesian axes

     site n.     atom                  positions (alat units)
         1           H   tau(   1) = (   0.2666667   0.4618802   0.1784775  )
         2           H   tau(   2) = (   0.2666667   0.4618802   0.2394901  )
         3           C   tau(   3) = (   0.0000000   0.0000000   0.0000000  )
         4           C   tau(   4) = (   0.0000000   0.1154701   0.0000000  )
         5           C   tau(   5) = (  -0.1000000   0.1732051   0.0000000  )
         6           C   tau(   6) = (  -0.1000000   0.2886751   0.0000000  )
         7           C   tau(   7) = (  -0.2000000   0.3464102   0.0000000  )
         8           C   tau(   8) = (  -0.2000000   0.4618802   0.0000000  )
         9           C   tau(   9) = (  -0.3000000   0.5196152   0.0000000  )
        10           C   tau(  10) = (  -0.3000000   0.6350853   0.0000000  )
        11           C   tau(  11) = (  -0.4000000   0.6928203   0.0000000  )
        12           C   tau(  12) = (  -0.4000000   0.8082904   0.0000000  )
        13           C   tau(  13) = (   0.2000000   0.0000000   0.0000000  )
        14           C   tau(  14) = (   0.2000000   0.1154701   0.0000000  )
        15           C   tau(  15) = (   0.1000000   0.1732051   0.0000000  )
        16           C   tau(  16) = (   0.1000000   0.2886751   0.0000000  )
        17           C   tau(  17) = (   0.0000000   0.3464102   0.0000000  )
        18           C   tau(  18) = (   0.0000000   0.4618802   0.0000000  )
        19           C   tau(  19) = (  -0.1000000   0.5196152   0.0000000  )
        20           C   tau(  20) = (  -0.1000000   0.6350853   0.0000000  )
        21           C   tau(  21) = (  -0.2000000   0.6928203   0.0000000  )
        22           C   tau(  22) = (  -0.2000000   0.8082904   0.0000000  )
        23           C   tau(  23) = (   0.4000000   0.0000000   0.0000000  )
        24           C   tau(  24) = (   0.4000000   0.1154701   0.0000000  )
        25           C   tau(  25) = (   0.3000000   0.1732051   0.0000000  )
        26           C   tau(  26) = (   0.3000000   0.2886751   0.0000000  )
        27           C   tau(  27) = (   0.2000000   0.3464102   0.0000000  )
        28           Cr  tau(  28) = (   0.2000000   0.4618802   0.0000000  )
        29           C   tau(  29) = (   0.1000000   0.5196152   0.0000000  )
        30           C   tau(  30) = (   0.1000000   0.6350853   0.0000000  )
        31           C   tau(  31) = (   0.0000000   0.6928203   0.0000000  )
        32           C   tau(  32) = (   0.0000000   0.8082904   0.0000000  )
        33           C   tau(  33) = (   0.6000000   0.0000000   0.0000000  )
        34           C   tau(  34) = (   0.6000000   0.1154701   0.0000000  )
        35           C   tau(  35) = (   0.5000000   0.1732051   0.0000000  )
        36           C   tau(  36) = (   0.5000000   0.2886751   0.0000000  )
        37           C   tau(  37) = (   0.4000000   0.3464102   0.0000000  )
        38           C   tau(  38) = (   0.4000000   0.4618802   0.0000000  )
        39           C   tau(  39) = (   0.3000000   0.5196152   0.0000000  )
        40           C   tau(  40) = (   0.3000000   0.6350853   0.0000000  )
        41           C   tau(  41) = (   0.2000000   0.6928203   0.0000000  )
        42           C   tau(  42) = (   0.2000000   0.8082904   0.0000000  )
        43           C   tau(  43) = (   0.8000000   0.0000000   0.0000000  )
        44           C   tau(  44) = (   0.8000000   0.1154701   0.0000000  )
        45           C   tau(  45) = (   0.7000000   0.1732051   0.0000000  )
        46           C   tau(  46) = (   0.7000000   0.2886751   0.0000000  )
        47           C   tau(  47) = (   0.6000000   0.3464102   0.0000000  )
        48           C   tau(  48) = (   0.6000000   0.4618802   0.0000000  )
        49           C   tau(  49) = (   0.5000000   0.5196152   0.0000000  )
        50           C   tau(  50) = (   0.5000000   0.6350853   0.0000000  )
        51           C   tau(  51) = (   0.4000000   0.6928203   0.0000000  )
        52           C   tau(  52) = (   0.4000000   0.8082904   0.0000000  )

   Crystallographic axes

     site n.     atom                  positions (cryst. coord.)
         1           H   tau(   1) = (  0.5333333  0.5333333  0.2200000  )
         2           H   tau(   2) = (  0.5333333  0.5333333  0.2952072  )
         3           C   tau(   3) = (  0.0000000  0.0000000  0.0000000  )
         4           C   tau(   4) = (  0.0666667  0.1333333  0.0000000  )
         5           C   tau(   5) = (  0.0000000  0.2000000  0.0000000  )
         6           C   tau(   6) = (  0.0666667  0.3333333  0.0000000  )
         7           C   tau(   7) = (  0.0000000  0.4000000  0.0000000  )
         8           C   tau(   8) = (  0.0666667  0.5333333  0.0000000  )
         9           C   tau(   9) = (  0.0000000  0.6000000  0.0000000  )
        10           C   tau(  10) = (  0.0666667  0.7333333  0.0000000  )
        11           C   tau(  11) = (  0.0000000  0.8000000  0.0000000  )
        12           C   tau(  12) = (  0.0666667  0.9333333  0.0000000  )
        13           C   tau(  13) = (  0.2000000  0.0000000  0.0000000  )
        14           C   tau(  14) = (  0.2666667  0.1333333  0.0000000  )
        15           C   tau(  15) = (  0.2000000  0.2000000  0.0000000  )
        16           C   tau(  16) = (  0.2666667  0.3333333  0.0000000  )
        17           C   tau(  17) = (  0.2000000  0.4000000  0.0000000  )
        18           C   tau(  18) = (  0.2666667  0.5333333  0.0000000  )
        19           C   tau(  19) = (  0.2000000  0.6000000  0.0000000  )
        20           C   tau(  20) = (  0.2666667  0.7333333  0.0000000  )
        21           C   tau(  21) = (  0.2000000  0.8000000  0.0000000  )
        22           C   tau(  22) = (  0.2666667  0.9333333  0.0000000  )
        23           C   tau(  23) = (  0.4000000  0.0000000  0.0000000  )
        24           C   tau(  24) = (  0.4666667  0.1333333  0.0000000  )
        25           C   tau(  25) = (  0.4000000  0.2000000  0.0000000  )
        26           C   tau(  26) = (  0.4666667  0.3333333  0.0000000  )
        27           C   tau(  27) = (  0.4000000  0.4000000  0.0000000  )
        28           Cr  tau(  28) = (  0.4666667  0.5333333  0.0000000  )
        29           C   tau(  29) = (  0.4000000  0.6000000  0.0000000  )
        30           C   tau(  30) = (  0.4666667  0.7333333  0.0000000  )
        31           C   tau(  31) = (  0.4000000  0.8000000  0.0000000  )
        32           C   tau(  32) = (  0.4666667  0.9333333  0.0000000  )
        33           C   tau(  33) = (  0.6000000  0.0000000  0.0000000  )
        34           C   tau(  34) = (  0.6666667  0.1333333  0.0000000  )
        35           C   tau(  35) = (  0.6000000  0.2000000  0.0000000  )
        36           C   tau(  36) = (  0.6666667  0.3333333  0.0000000  )
        37           C   tau(  37) = (  0.6000000  0.4000000  0.0000000  )
        38           C   tau(  38) = (  0.6666667  0.5333333  0.0000000  )
        39           C   tau(  39) = (  0.6000000  0.6000000  0.0000000  )
        40           C   tau(  40) = (  0.6666667  0.7333333  0.0000000  )
        41           C   tau(  41) = (  0.6000000  0.8000000  0.0000000  )
        42           C   tau(  42) = (  0.6666667  0.9333333  0.0000000  )
        43           C   tau(  43) = (  0.8000000  0.0000000  0.0000000  )
        44           C   tau(  44) = (  0.8666667  0.1333333  0.0000000  )
        45           C   tau(  45) = (  0.8000000  0.2000000  0.0000000  )
        46           C   tau(  46) = (  0.8666667  0.3333333  0.0000000  )
        47           C   tau(  47) = (  0.8000000  0.4000000  0.0000000  )
        48           C   tau(  48) = (  0.8666667  0.5333333  0.0000000  )
        49           C   tau(  49) = (  0.8000000  0.6000000  0.0000000  )
        50           C   tau(  50) = (  0.8666667  0.7333333  0.0000000  )
        51           C   tau(  51) = (  0.8000000  0.8000000  0.0000000  )
        52           C   tau(  52) = (  0.8666667  0.9333333  0.0000000  )

     number of k points=     1  Marzari-Vanderbilt smearing, width (Ry)=  0.0010
                       cart. coord. in units 2pi/alat
        k(    1) = (   0.0000000   0.0000000   0.0000000), wk =   2.0000000

                       cryst. coord.
        k(    1) = (   0.0000000   0.0000000   0.0000000), wk =   2.0000000

     Dense  grid:  1626001 G-vectors     FFT dimensions: ( 180, 180, 135)

     Smooth grid:   702581 G-vectors     FFT dimensions: ( 125, 125, 108)

     Dynamical RAM for                 wfc:      28.36 MB

     Dynamical RAM for     wfc (w. buffer):      28.36 MB

     Dynamical RAM for           str. fact:      12.41 MB

     Dynamical RAM for           local pot:       0.00 MB

     Dynamical RAM for          nlocal pot:      92.46 MB

     Dynamical RAM for                qrad:      19.73 MB

     Dynamical RAM for          rho,v,vnew:      29.46 MB

     Dynamical RAM for               rhoin:       9.82 MB

     Dynamical RAM for            rho*nmix:      66.16 MB

     Dynamical RAM for           G-vectors:      16.40 MB

     Dynamical RAM for          h,s,v(r/c):      11.81 MB

     Dynamical RAM for          <psi|beta>:       0.80 MB

     Dynamical RAM for                 psi:     113.46 MB

     Dynamical RAM for                hpsi:     113.46 MB

     Dynamical RAM for                spsi:     113.46 MB

     Dynamical RAM for      wfcinit/wfcrot:      93.90 MB

     Dynamical RAM for           addusdens:     971.75 MB

     Estimated static dynamical RAM per process >     319.78 MB

     Estimated max dynamical RAM per process >       1.26 GB

     Estimated total dynamical RAM >       7.57 GB

     Check: negative core charge=   -0.000002

     Initial potential from superposition of free atoms

     starting charge  211.80478, renormalised to  212.00000

     negative rho (up, down):  5.573E-04 0.000E+00


---------------------------------------------------------------------------------
Carrying out rVV10 run using the following parameters:
Nqs =      20    Nr_points =    1024   r_max =   100.000
b_value =  6.30000    beta =  0.00901
     q_mesh =  0.00010000  0.00030000  0.00058939  0.00100810
               0.00161396  0.00249058  0.00375900  0.00559430
               0.00824984  0.01209221  0.01765183  0.02569619
               0.03733578  0.05417739  0.07854596  0.11380545
               0.16482331  0.23864234  0.34545298  0.50000000

Gradients computed in Reciprocal space

---------------------------------------------------------------------------------


     Starting wfcs are  208 randomized atomic wfcs

     total cpu time spent up to now is       50.3 secs

     Self-consistent Calculation

     iteration #  1     ecut=    70.00 Ry     beta= 0.70
     Davidson diagonalization with overlap
     ethr =  1.00E-02,  avg # of iterations =  2.0

     negative rho (up, down):  9.563E-04 0.000E+00

     total cpu time spent up to now is      115.5 secs

     total energy              =    -782.61009385 Ry
     Harris-Foulkes estimate   =    -790.12104600 Ry
     estimated scf accuracy    <      10.47969943 Ry

     iteration #  2     ecut=    70.00 Ry     beta= 0.70
     Davidson diagonalization with overlap
     ethr =  4.94E-03,  avg # of iterations =  7.0

     negative rho (up, down):  1.082E-03 0.000E+00

     total cpu time spent up to now is      180.5 secs

     total energy              =    -776.50857261 Ry
     Harris-Foulkes estimate   =    -800.56013414 Ry
     estimated scf accuracy    <      88.34847489 Ry

     iteration #  3     ecut=    70.00 Ry     beta= 0.70
     Davidson diagonalization with overlap
     ethr =  4.94E-03,  avg # of iterations =  5.0

     negative rho (up, down):  1.202E-03 0.000E+00

     total cpu time spent up to now is      273.4 secs

     total energy              =    -785.66775959 Ry
     Harris-Foulkes estimate   =    -787.81190949 Ry
     estimated scf accuracy    <       7.18689700 Ry

     iteration #  4     ecut=    70.00 Ry     beta= 0.70
     Davidson diagonalization with overlap
     ethr =  3.39E-03,  avg # of iterations =  4.0

     negative rho (up, down):  1.609E-03 0.000E+00

     total cpu time spent up to now is      326.9 secs

     total energy              =    -786.57027258 Ry
     Harris-Foulkes estimate   =    -787.37216361 Ry
     estimated scf accuracy    <       2.15826561 Ry

     iteration #  5     ecut=    70.00 Ry     beta= 0.70
     Davidson diagonalization with overlap
     ethr =  1.02E-03,  avg # of iterations =  4.0

     negative rho (up, down):  1.833E-03 0.000E+00

     total cpu time spent up to now is      380.3 secs

     total energy              =    -786.91378464 Ry
     Harris-Foulkes estimate   =    -787.04674814 Ry
     estimated scf accuracy    <       0.56114749 Ry

     iteration #  6     ecut=    70.00 Ry     beta= 0.70
     Davidson diagonalization with overlap
     ethr =  2.65E-04,  avg # of iterations =  3.0

     negative rho (up, down):  1.935E-03 0.000E+00

     total cpu time spent up to now is      429.6 secs

     total energy              =    -786.92802821 Ry
     Harris-Foulkes estimate   =    -786.96190854 Ry
     estimated scf accuracy    <       0.11651795 Ry

     iteration #  7     ecut=    70.00 Ry     beta= 0.70
     Davidson diagonalization with overlap
     ethr =  5.50E-05,  avg # of iterations = 12.0

     negative rho (up, down):  2.123E-03 0.000E+00

     total cpu time spent up to now is      484.9 secs

     total energy              =    -786.93739448 Ry
     Harris-Foulkes estimate   =    -786.96790091 Ry
     estimated scf accuracy    <       0.13900004 Ry

     iteration #  8     ecut=    70.00 Ry     beta= 0.70
     Davidson diagonalization with overlap
     ethr =  5.50E-05,  avg # of iterations =  3.0

     negative rho (up, down):  2.285E-03 0.000E+00

     total cpu time spent up to now is      534.2 secs

     total energy              =    -786.93482027 Ry
     Harris-Foulkes estimate   =    -786.96065792 Ry
     estimated scf accuracy    <       0.11148021 Ry

     iteration #  9     ecut=    70.00 Ry     beta= 0.70
     Davidson diagonalization with overlap
     ethr =  5.26E-05,  avg # of iterations =  2.0

     negative rho (up, down):  2.784E-03 0.000E+00

     total cpu time spent up to now is      582.9 secs

     total energy              =    -786.94256882 Ry
     Harris-Foulkes estimate   =    -786.95920918 Ry
     estimated scf accuracy    <       0.10042161 Ry

     iteration # 10     ecut=    70.00 Ry     beta= 0.70
     Davidson diagonalization with overlap
     ethr =  4.74E-05,  avg # of iterations =  2.0

     negative rho (up, down):  2.800E-03 0.000E+00

     total cpu time spent up to now is      631.4 secs

     total energy              =    -786.94672795 Ry
     Harris-Foulkes estimate   =    -786.94856501 Ry
     estimated scf accuracy    <       0.00633957 Ry

     iteration # 11     ecut=    70.00 Ry     beta= 0.70
     Davidson diagonalization with overlap
     ethr =  2.99E-06,  avg # of iterations =  4.0

     negative rho (up, down):  2.766E-03 0.000E+00

     total cpu time spent up to now is      687.0 secs

     total energy              =    -786.94756978 Ry
     Harris-Foulkes estimate   =    -786.94811637 Ry
     estimated scf accuracy    <       0.00506209 Ry

     iteration # 12     ecut=    70.00 Ry     beta= 0.70
     Davidson diagonalization with overlap
     ethr =  2.39E-06,  avg # of iterations =  1.0

     negative rho (up, down):  2.790E-03 0.000E+00

     total cpu time spent up to now is      735.0 secs

     total energy              =    -786.94773240 Ry
     Harris-Foulkes estimate   =    -786.94809932 Ry
     estimated scf accuracy    <       0.00822958 Ry

     iteration # 13     ecut=    70.00 Ry     beta= 0.70
     Davidson diagonalization with overlap
     ethr =  2.39E-06,  avg # of iterations =  1.0

     negative rho (up, down):  2.817E-03 0.000E+00

     total cpu time spent up to now is      783.3 secs

     total energy              =    -786.94788186 Ry
     Harris-Foulkes estimate   =    -786.94796785 Ry
     estimated scf accuracy    <       0.00122308 Ry

     iteration # 14     ecut=    70.00 Ry     beta= 0.70
     Davidson diagonalization with overlap
     ethr =  5.77E-07,  avg # of iterations =  1.0

     negative rho (up, down):  2.821E-03 0.000E+00

     total cpu time spent up to now is      831.4 secs

     total energy              =    -786.94792880 Ry
     Harris-Foulkes estimate   =    -786.94799524 Ry
     estimated scf accuracy    <       0.00204367 Ry

     iteration # 15     ecut=    70.00 Ry     beta= 0.70
     Davidson diagonalization with overlap
     ethr =  5.77E-07,  avg # of iterations =  1.0

     negative rho (up, down):  2.826E-03 0.000E+00

     total cpu time spent up to now is      879.7 secs

     total energy              =    -786.94796457 Ry
     Harris-Foulkes estimate   =    -786.94796824 Ry
     estimated scf accuracy    <       0.00006709 Ry

     iteration # 16     ecut=    70.00 Ry     beta= 0.70
     Davidson diagonalization with overlap
     ethr =  3.16E-08,  avg # of iterations =  4.0

     negative rho (up, down):  2.829E-03 0.000E+00

     total cpu time spent up to now is      929.9 secs

     total energy              =    -786.94797406 Ry
     Harris-Foulkes estimate   =    -786.94797662 Ry
     estimated scf accuracy    <       0.00014453 Ry

     iteration # 17     ecut=    70.00 Ry     beta= 0.70
     Davidson diagonalization with overlap
     ethr =  3.16E-08,  avg # of iterations =  2.0

     negative rho (up, down):  2.832E-03 0.000E+00

     total cpu time spent up to now is      978.7 secs

     total energy              =    -786.94798562 Ry
     Harris-Foulkes estimate   =    -786.94798032 Ry
     estimated scf accuracy    <       0.00002240 Ry

     iteration # 18     ecut=    70.00 Ry     beta= 0.70
     Davidson diagonalization with overlap
     ethr =  1.06E-08,  avg # of iterations =  3.0

     negative rho (up, down):  2.835E-03 0.000E+00

     total cpu time spent up to now is     1030.5 secs

     total energy              =    -786.94799332 Ry
     Harris-Foulkes estimate   =    -786.94798979 Ry
     estimated scf accuracy    <       0.00001460 Ry

     iteration # 19     ecut=    70.00 Ry     beta= 0.70
     Davidson diagonalization with overlap
     ethr =  6.88E-09,  avg # of iterations =  3.0

     negative rho (up, down):  2.840E-03 0.000E+00

     total cpu time spent up to now is     1085.1 secs

     total energy              =    -786.94800394 Ry
     Harris-Foulkes estimate   =    -786.94800365 Ry
     estimated scf accuracy    <       0.00003249 Ry

     iteration # 20     ecut=    70.00 Ry     beta= 0.70
     Davidson diagonalization with overlap
     ethr =  6.88E-09,  avg # of iterations =  3.0

     negative rho (up, down):  2.841E-03 0.000E+00

     total cpu time spent up to now is     1138.0 secs

     total energy              =    -786.94800939 Ry
     Harris-Foulkes estimate   =    -786.94800813 Ry
     estimated scf accuracy    <       0.00000441 Ry

     iteration # 21     ecut=    70.00 Ry     beta= 0.70
     Davidson diagonalization with overlap
     ethr =  2.08E-09,  avg # of iterations =  4.0

     negative rho (up, down):  2.842E-03 0.000E+00

     total cpu time spent up to now is     1192.8 secs

     total energy              =    -786.94800478 Ry
     Harris-Foulkes estimate   =    -786.94801160 Ry
     estimated scf accuracy    <       0.00000292 Ry

     iteration # 22     ecut=    70.00 Ry     beta= 0.70
     Davidson diagonalization with overlap
     ethr =  1.38E-09,  avg # of iterations =  4.0

     negative rho (up, down):  2.847E-03 0.000E+00

     total cpu time spent up to now is     1252.8 secs

     End of self-consistent calculation

          k = 0.0000 0.0000 0.0000 ( 87777 PWs)   bands (ev):

   -71.8026 -44.1029 -44.0998 -42.9794 -19.6218 -18.7832 -18.7811 -18.6920
   -18.6908 -18.6893 -18.3159 -16.9354 -16.9349 -16.9302 -16.8239 -16.8233
   -16.5241 -16.0815 -16.0809 -15.9827 -15.9007 -15.8989 -15.1868 -13.9438
   -13.9411 -13.9003 -13.8530 -13.8522 -13.1888 -12.9265 -12.9257 -12.8970
   -12.5724 -12.5707 -12.1346 -11.6858 -11.6850 -11.5216 -11.2160 -11.2142
   -10.2523  -9.4643  -9.4628  -9.3044  -9.1731  -9.1730  -9.0820  -9.0506
    -9.0506  -9.0396  -8.5268  -8.5223  -7.9936  -7.9771  -7.9674  -7.8739
    -7.6905  -7.6333  -7.2709  -7.2693  -7.0158  -6.9700  -6.9301  -6.6881
    -6.6875  -6.6774  -6.6754  -6.6460  -6.5804  -6.4200  -6.4185  -6.3918
    -6.3871  -6.3865  -6.3385  -6.2483  -5.3765  -5.3471  -5.3098  -5.3089
    -5.0449  -5.0445  -4.8435  -4.7500  -4.5960  -4.5736  -4.5726  -4.2390
    -4.2237  -4.0243  -4.0228  -3.7070  -3.7064  -3.6259  -3.5251  -3.5246
    -3.4492  -3.4470  -2.9620  -2.4204  -2.4171  -1.7066  -1.6642  -1.6635
    -0.6904  -0.5231  -0.5228  -0.3402   1.0777   1.0957   1.0990   1.7849
     1.8827   1.8843   2.3862   2.9332   2.9383   2.9990   3.3722   3.3851
     3.4889   3.6507   3.6611   3.7083   3.7991   3.8142   3.8672

     occupation numbers 
     1.0000   1.0000   1.0000   1.0000   1.0000   1.0000   1.0000   1.0000
     1.0000   1.0000   1.0000   1.0000   1.0000   1.0000   1.0000   1.0000
     1.0000   1.0000   1.0000   1.0000   1.0000   1.0000   1.0000   1.0000
     1.0000   1.0000   1.0000   1.0000   1.0000   1.0000   1.0000   1.0000
     1.0000   1.0000   1.0000   1.0000   1.0000   1.0000   1.0000   1.0000
     1.0000   1.0000   1.0000   1.0000   1.0000   1.0000   1.0000   1.0000
     1.0000   1.0000   1.0000   1.0000   1.0000   1.0000   1.0000   1.0000
     1.0000   1.0000   1.0000   1.0000   1.0000   1.0000   1.0000   1.0000
     1.0000   1.0000   1.0000   1.0000   1.0000   1.0000   1.0000   1.0000
     1.0000   1.0000   1.0000   1.0000   1.0000   1.0000   1.0000   1.0000
     1.0000   1.0000   1.0000   1.0000   1.0000   1.0000   1.0000   1.0000
     1.0000   1.0000   1.0000   1.0000   1.0000   1.0000   1.0000   1.0000
     1.0000   1.0000   1.0000   1.0000   1.0000   1.0000   1.0000   1.0000
     1.0000   0.5087   0.4913   0.0000   0.0000   0.0000   0.0000   0.0000
     0.0000   0.0000   0.0000   0.0000   0.0000   0.0000   0.0000   0.0000
     0.0000   0.0000   0.0000   0.0000   0.0000   0.0000   0.0000

     the Fermi energy is    -0.5210 ev

!    total energy              =    -786.94801914 Ry
     Harris-Foulkes estimate   =    -786.94801943 Ry
     estimated scf accuracy    <       0.00000048 Ry

     The total energy is the sum of the following terms:

     one-electron contribution =   -2658.80778617 Ry
     hartree contribution      =    1375.14177530 Ry
     xc contribution           =    -254.35512246 Ry
     ewald contribution        =     751.07377035 Ry
     smearing contrib. (-TS)   =      -0.00065616 Ry

     convergence has been achieved in  22 iterations

     Writing output data file gr-12-baricentro.save/

     init_run     :     48.06s CPU     49.21s WALL (       1 calls)
     electrons    :   1166.68s CPU   1202.64s WALL (       1 calls)

     Called by init_run:
     wfcinit      :     20.76s CPU     20.87s WALL (       1 calls)
     wfcinit:atom :      0.02s CPU      0.04s WALL (       1 calls)
     wfcinit:wfcr :     20.58s CPU     20.64s WALL (       1 calls)
     potinit      :     12.41s CPU     12.85s WALL (       1 calls)
     hinit0       :     10.35s CPU     10.37s WALL (       1 calls)

     Called by electrons:
     c_bands      :    719.40s CPU    723.68s WALL (      22 calls)
     sum_band     :    220.34s CPU    232.38s WALL (      22 calls)
     v_of_rho     :    139.07s CPU    147.58s WALL (      23 calls)
     v_h          :      1.60s CPU      1.66s WALL (      23 calls)
     v_xc         :    137.46s CPU    145.92s WALL (      23 calls)
     newd         :     91.07s CPU    102.96s WALL (      23 calls)
     mix_rho      :      4.34s CPU      4.40s WALL (      22 calls)

     Called by c_bands:
     init_us_2    :      1.92s CPU      1.95s WALL (      45 calls)
     cegterg      :    714.39s CPU    718.65s WALL (      22 calls)

     Called by sum_band:
     sum_band:bec :      0.02s CPU      0.02s WALL (      22 calls)
     addusdens    :    136.86s CPU    148.25s WALL (      22 calls)

     Called by *egterg:
     h_psi        :    374.72s CPU    377.77s WALL (      98 calls)
     s_psi        :    126.75s CPU    126.84s WALL (      98 calls)
     g_psi        :      0.39s CPU      0.39s WALL (      75 calls)
     cdiaghg      :      6.84s CPU      6.84s WALL (      97 calls)
     cegterg:over :     87.51s CPU     87.55s WALL (      75 calls)
     cegterg:upda :     56.44s CPU     56.79s WALL (      75 calls)
     cegterg:last :     42.98s CPU     43.00s WALL (      23 calls)

     Called by h_psi:
     h_psi:pot    :    374.31s CPU    376.86s WALL (      98 calls)
     h_psi:calbec :    125.87s CPU    125.94s WALL (      98 calls)
     vloc_psi     :    122.22s CPU    124.66s WALL (      98 calls)
     add_vuspsi   :    126.21s CPU    126.25s WALL (      98 calls)

     General routines
     calbec       :    177.79s CPU    177.88s WALL (     120 calls)
     fft          :     75.59s CPU     78.68s WALL (    1447 calls)
     ffts         :      0.79s CPU      0.81s WALL (      45 calls)
     fftw         :    128.73s CPU    131.41s WALL (   16376 calls)
     interpolate  :      1.89s CPU      1.97s WALL (      23 calls)

     Parallel routines
     fft_scatt_xy :     36.49s CPU     37.03s WALL (   17868 calls)
     fft_scatt_yz :     66.40s CPU     70.51s WALL (   17868 calls)

     PWSCF        :  20m15.93s CPU  20m53.30s WALL


   This run was terminated on:  19:43:56  20Jul2022            

=------------------------------------------------------------------------------=
   JOB DONE.
=------------------------------------------------------------------------------=
