
     Program PWSCF v.6.4.1 starts on 20Jan2023 at 12: 4:54 

     This program is part of the open-source Quantum ESPRESSO suite
     for quantum simulation of materials; please cite
         "P. Giannozzi et al., J. Phys.:Condens. Matter 21 395502 (2009);
         "P. Giannozzi et al., J. Phys.:Condens. Matter 29 465901 (2017);
          URL http://www.quantum-espresso.org", 
     in publications or presentations arising from this work. More details at
     http://www.quantum-espresso.org/quote

     Parallel version (MPI), running on     6 processors

     MPI processes distributed on     1 nodes
     R & G space division:  proc/nbgrp/npool/nimage =       6
     Reading input from rotate-45.in

     Current dimensions of program PWSCF are:
     Max number of different atomic species (ntypx) = 10
     Max number of k-points (npk) =  40000
     Max angular momentum in pseudopotentials (lmaxx) =  3

     IMPORTANT: XC functional enforced from input :
     Exchange-correlation      = RVV10 ( 1  4 13  4 3 0)
     Any further DFT definition will be discarded
     Please, verify this is what you really want

               file H.pbe-rrkjus.UPF: wavefunction(s)  1S renormalized

     Subspace diagonalization in iterative solution of the eigenvalue problem:
     a serial algorithm will be used


     Parallelization info
     --------------------
     sticks:   dense  smooth     PW     G-vecs:    dense   smooth      PW
     Min        3051    1746    432               270999   117096   14629
     Max        3053    1747    437               271001   117099   14630
     Sum       18313   10477   2611              1626001   702581   87777



     bravais-lattice index     =            4
     lattice parameter (alat)  =      23.2937  a.u.
     unit-cell volume          =    8879.8548 (a.u.)^3
     number of atoms/cell      =           52
     number of atomic types    =            3
     number of electrons       =       216.00
     number of Kohn-Sham states=          130
     kinetic-energy cutoff     =      70.0000  Ry
     charge density cutoff     =     490.0000  Ry
     convergence threshold     =      1.0E-06
     mixing beta               =       0.7000
     number of iterations used =            8  plain     mixing
     Exchange-correlation      = RVV10 ( 1  4 13  4 3 0)

     celldm(1)=  23.293684  celldm(2)=   0.000000  celldm(3)=   0.811261
     celldm(4)=   0.000000  celldm(5)=   0.000000  celldm(6)=   0.000000

     crystal axes: (cart. coord. in units of alat)
               a(1) = (   1.000000   0.000000   0.000000 )  
               a(2) = (  -0.500000   0.866025   0.000000 )  
               a(3) = (   0.000000   0.000000   0.811261 )  

     reciprocal axes: (cart. coord. in units 2 pi/alat)
               b(1) = (  1.000000  0.577350 -0.000000 )  
               b(2) = (  0.000000  1.154701  0.000000 )  
               b(3) = (  0.000000 -0.000000  1.232649 )  


     PseudoPot. # 1 for H  read from file:
     /home/cristian/Escritorio/Proyecto_Grafeno/pseudopotenciales/H.pbe-rrkjus.UPF
     MD5 check sum: 7cc9d459525c9a0585f487a71c3c9563
     Pseudo is Ultrasoft, Zval =  1.0
     Generated by new atomic code, or converted to UPF format
     Using radial grid of 1061 points,  2 beta functions with: 
                l(1) =   0
                l(2) =   0
     Q(r) pseudized with 0 coefficients 


     PseudoPot. # 2 for C  read from file:
     /home/cristian/Escritorio/Proyecto_Grafeno/pseudopotenciales/C.pbe-n-rrkjus_psl.1.0.0.UPF
     MD5 check sum: 1fdd950c42eb37d8afe3dd2f8d12311e
     Pseudo is Ultrasoft + core correction, Zval =  4.0
     Generated using "atomic" code by A. Dal Corso v.6.3MaX
     Using radial grid of 1073 points,  4 beta functions with: 
                l(1) =   0
                l(2) =   0
                l(3) =   1
                l(4) =   1
     Q(r) pseudized with 0 coefficients 


     PseudoPot. # 3 for Ni read from file:
     /home/cristian/Escritorio/Proyecto_Grafeno/pseudopotenciales/Ni.pbe-spn-rrkjus_psl.1.0.0.UPF
     MD5 check sum: 8b3fc9aac6dafe35f580d41bb18c3945
     Pseudo is Ultrasoft + core correction, Zval = 18.0
     Generated using "atomic" code by A. Dal Corso v.6.3
     Using radial grid of 1195 points,  6 beta functions with: 
                l(1) =   0
                l(2) =   0
                l(3) =   1
                l(4) =   1
                l(5) =   2
                l(6) =   2
     Q(r) pseudized with 0 coefficients 


     vdW kernel table read from file rVV10_kernel_table
     MD5 check sum: b8e2538accc0c0b3206b45ba4daaba6c

     atomic species   valence    mass     pseudopotential
        H              1.00     1.00794     H ( 1.00)
        C              4.00    12.01070     C ( 1.00)
        Ni            18.00    58.69340     Ni( 1.00)

     Starting magnetic structure 
     atomic species   magnetization
        H            0.500
        C            0.300
        Ni           0.800

     No symmetry found


                                    s                        frac. trans.

      isym =  1     identity                                     

 cryst.   s( 1) = (     1          0          0      )
                  (     0          1          0      )
                  (     0          0          1      )

 cart.    s( 1) = (  1.0000000  0.0000000  0.0000000 )
                  (  0.0000000  1.0000000  0.0000000 )
                  (  0.0000000  0.0000000  1.0000000 )


     point group C_1 (1)    
     there are  1 classes
     the character table:

       E    
A      1.00

     the symmetry operations in each class and the name of the first element:

     E        1
          identity                                               

   Cartesian axes

     site n.     atom                  positions (alat units)
         1           H   tau(   1) = (   0.3215712   0.4257164   0.2433783  )
         2           H   tau(   2) = (   0.2784288   0.3825740   0.2433783  )
         3           C   tau(   3) = (   0.0000000   0.0000000   0.0000000  )
         4           C   tau(   4) = (   0.0000000   0.1154701   0.0000000  )
         5           C   tau(   5) = (  -0.1000000   0.1732051   0.0000000  )
         6           C   tau(   6) = (  -0.1000000   0.2886751   0.0000000  )
         7           C   tau(   7) = (  -0.2000000   0.3464102   0.0000000  )
         8           C   tau(   8) = (  -0.2000000   0.4618802   0.0000000  )
         9           C   tau(   9) = (  -0.3000000   0.5196152   0.0000000  )
        10           C   tau(  10) = (  -0.3000000   0.6350853   0.0000000  )
        11           C   tau(  11) = (  -0.4000000   0.6928203   0.0000000  )
        12           C   tau(  12) = (  -0.4000000   0.8082904   0.0000000  )
        13           C   tau(  13) = (   0.2000000   0.0000000   0.0000000  )
        14           C   tau(  14) = (   0.2000000   0.1154701   0.0000000  )
        15           C   tau(  15) = (   0.1000000   0.1732051   0.0000000  )
        16           C   tau(  16) = (   0.1000000   0.2886751   0.0000000  )
        17           C   tau(  17) = (   0.0000000   0.3464102   0.0000000  )
        18           C   tau(  18) = (   0.0000000   0.4618802   0.0000000  )
        19           C   tau(  19) = (  -0.1000000   0.5196152   0.0000000  )
        20           C   tau(  20) = (  -0.1000000   0.6350853   0.0000000  )
        21           C   tau(  21) = (  -0.2000000   0.6928203   0.0000000  )
        22           C   tau(  22) = (  -0.2000000   0.8082904   0.0000000  )
        23           C   tau(  23) = (   0.4000000   0.0000000   0.0000000  )
        24           C   tau(  24) = (   0.4000000   0.1154701   0.0000000  )
        25           C   tau(  25) = (   0.3000000   0.1732051   0.0000000  )
        26           C   tau(  26) = (   0.3000000   0.2886751   0.0000000  )
        27           C   tau(  27) = (   0.2000000   0.3464102   0.0000000  )
        28           Ni  tau(  28) = (   0.2000000   0.4618802   0.0000000  )
        29           C   tau(  29) = (   0.1000000   0.5196152   0.0000000  )
        30           C   tau(  30) = (   0.1000000   0.6350853   0.0000000  )
        31           C   tau(  31) = (   0.0000000   0.6928203   0.0000000  )
        32           C   tau(  32) = (   0.0000000   0.8082904   0.0000000  )
        33           C   tau(  33) = (   0.6000000   0.0000000   0.0000000  )
        34           C   tau(  34) = (   0.6000000   0.1154701   0.0000000  )
        35           C   tau(  35) = (   0.5000000   0.1732051   0.0000000  )
        36           C   tau(  36) = (   0.5000000   0.2886751   0.0000000  )
        37           C   tau(  37) = (   0.4000000   0.3464102   0.0000000  )
        38           C   tau(  38) = (   0.4000000   0.4618802   0.0000000  )
        39           C   tau(  39) = (   0.3000000   0.5196152   0.0000000  )
        40           C   tau(  40) = (   0.3000000   0.6350853   0.0000000  )
        41           C   tau(  41) = (   0.2000000   0.6928203   0.0000000  )
        42           C   tau(  42) = (   0.2000000   0.8082904   0.0000000  )
        43           C   tau(  43) = (   0.8000000   0.0000000   0.0000000  )
        44           C   tau(  44) = (   0.8000000   0.1154701   0.0000000  )
        45           C   tau(  45) = (   0.7000000   0.1732051   0.0000000  )
        46           C   tau(  46) = (   0.7000000   0.2886751   0.0000000  )
        47           C   tau(  47) = (   0.6000000   0.3464102   0.0000000  )
        48           C   tau(  48) = (   0.6000000   0.4618802   0.0000000  )
        49           C   tau(  49) = (   0.5000000   0.5196152   0.0000000  )
        50           C   tau(  50) = (   0.5000000   0.6350853   0.0000000  )
        51           C   tau(  51) = (   0.4000000   0.6928203   0.0000000  )
        52           C   tau(  52) = (   0.4000000   0.8082904   0.0000000  )

   Crystallographic axes

     site n.     atom                  positions (cryst. coord.)
         1           H   tau(   1) = (  0.5673587  0.4915750  0.3000000  )
         2           H   tau(   2) = (  0.4993080  0.4417584  0.3000000  )
         3           C   tau(   3) = (  0.0000000  0.0000000  0.0000000  )
         4           C   tau(   4) = (  0.0666667  0.1333333  0.0000000  )
         5           C   tau(   5) = (  0.0000000  0.2000000  0.0000000  )
         6           C   tau(   6) = (  0.0666667  0.3333333  0.0000000  )
         7           C   tau(   7) = (  0.0000000  0.4000000  0.0000000  )
         8           C   tau(   8) = (  0.0666667  0.5333333  0.0000000  )
         9           C   tau(   9) = (  0.0000000  0.6000000  0.0000000  )
        10           C   tau(  10) = (  0.0666667  0.7333333  0.0000000  )
        11           C   tau(  11) = (  0.0000000  0.8000000  0.0000000  )
        12           C   tau(  12) = (  0.0666667  0.9333333  0.0000000  )
        13           C   tau(  13) = (  0.2000000  0.0000000  0.0000000  )
        14           C   tau(  14) = (  0.2666667  0.1333333  0.0000000  )
        15           C   tau(  15) = (  0.2000000  0.2000000  0.0000000  )
        16           C   tau(  16) = (  0.2666667  0.3333333  0.0000000  )
        17           C   tau(  17) = (  0.2000000  0.4000000  0.0000000  )
        18           C   tau(  18) = (  0.2666667  0.5333333  0.0000000  )
        19           C   tau(  19) = (  0.2000000  0.6000000  0.0000000  )
        20           C   tau(  20) = (  0.2666667  0.7333333  0.0000000  )
        21           C   tau(  21) = (  0.2000000  0.8000000  0.0000000  )
        22           C   tau(  22) = (  0.2666667  0.9333333  0.0000000  )
        23           C   tau(  23) = (  0.4000000  0.0000000  0.0000000  )
        24           C   tau(  24) = (  0.4666667  0.1333333  0.0000000  )
        25           C   tau(  25) = (  0.4000000  0.2000000  0.0000000  )
        26           C   tau(  26) = (  0.4666667  0.3333333  0.0000000  )
        27           C   tau(  27) = (  0.4000000  0.4000000  0.0000000  )
        28           Ni  tau(  28) = (  0.4666667  0.5333333  0.0000000  )
        29           C   tau(  29) = (  0.4000000  0.6000000  0.0000000  )
        30           C   tau(  30) = (  0.4666667  0.7333333  0.0000000  )
        31           C   tau(  31) = (  0.4000000  0.8000000  0.0000000  )
        32           C   tau(  32) = (  0.4666667  0.9333333  0.0000000  )
        33           C   tau(  33) = (  0.6000000  0.0000000  0.0000000  )
        34           C   tau(  34) = (  0.6666667  0.1333333  0.0000000  )
        35           C   tau(  35) = (  0.6000000  0.2000000  0.0000000  )
        36           C   tau(  36) = (  0.6666667  0.3333333  0.0000000  )
        37           C   tau(  37) = (  0.6000000  0.4000000  0.0000000  )
        38           C   tau(  38) = (  0.6666667  0.5333333  0.0000000  )
        39           C   tau(  39) = (  0.6000000  0.6000000  0.0000000  )
        40           C   tau(  40) = (  0.6666667  0.7333333  0.0000000  )
        41           C   tau(  41) = (  0.6000000  0.8000000  0.0000000  )
        42           C   tau(  42) = (  0.6666667  0.9333333  0.0000000  )
        43           C   tau(  43) = (  0.8000000  0.0000000  0.0000000  )
        44           C   tau(  44) = (  0.8666667  0.1333333  0.0000000  )
        45           C   tau(  45) = (  0.8000000  0.2000000  0.0000000  )
        46           C   tau(  46) = (  0.8666667  0.3333333  0.0000000  )
        47           C   tau(  47) = (  0.8000000  0.4000000  0.0000000  )
        48           C   tau(  48) = (  0.8666667  0.5333333  0.0000000  )
        49           C   tau(  49) = (  0.8000000  0.6000000  0.0000000  )
        50           C   tau(  50) = (  0.8666667  0.7333333  0.0000000  )
        51           C   tau(  51) = (  0.8000000  0.8000000  0.0000000  )
        52           C   tau(  52) = (  0.8666667  0.9333333  0.0000000  )

     number of k points=     1  Marzari-Vanderbilt smearing, width (Ry)=  0.0010
                       cart. coord. in units 2pi/alat
        k(    1) = (   0.0000000   0.0000000   0.0000000), wk =   1.0000000

                       cryst. coord.
        k(    1) = (   0.0000000   0.0000000   0.0000000), wk =   1.0000000

     Dense  grid:  1626001 G-vectors     FFT dimensions: ( 180, 180, 135)

     Smooth grid:   702581 G-vectors     FFT dimensions: ( 125, 125, 108)

     Dynamical RAM for                 wfc:      29.03 MB

     Dynamical RAM for     wfc (w. buffer):      87.10 MB

     Dynamical RAM for           str. fact:      12.41 MB

     Dynamical RAM for           local pot:       0.00 MB

     Dynamical RAM for          nlocal pot:      92.46 MB

     Dynamical RAM for                qrad:      19.73 MB

     Dynamical RAM for          rho,v,vnew:      58.92 MB

     Dynamical RAM for               rhoin:      19.64 MB

     Dynamical RAM for            rho*nmix:     132.32 MB

     Dynamical RAM for           G-vectors:      16.40 MB

     Dynamical RAM for          h,s,v(r/c):      12.38 MB

     Dynamical RAM for          <psi|beta>:       0.82 MB

     Dynamical RAM for                 psi:     116.14 MB

     Dynamical RAM for                hpsi:     116.14 MB

     Dynamical RAM for                spsi:     116.14 MB

     Dynamical RAM for      wfcinit/wfcrot:      93.90 MB

     Dynamical RAM for           addusdens:     975.89 MB

     Estimated static dynamical RAM per process >     489.64 MB

     Estimated max dynamical RAM per process >       1.43 GB

     Estimated total dynamical RAM >       8.59 GB
     Generating pointlists ...
     new r_m :   0.0252 (alat units)  0.5862 (a.u.) for type    1
     new r_m :   0.0476 (alat units)  1.1095 (a.u.) for type    2
     new r_m :   0.0476 (alat units)  1.1095 (a.u.) for type    3

     Check: negative core charge=   -0.000002

     Initial potential from superposition of free atoms

     starting charge  215.80530, renormalised to  216.00000

     negative rho (up, down):  1.392E-04 1.476E-02


---------------------------------------------------------------------------------
Carrying out rVV10 run using the following parameters:
Nqs =      20    Nr_points =    1024   r_max =   100.000
b_value =  6.30000    beta =  0.00901
     q_mesh =  0.00010000  0.00030000  0.00058939  0.00100810
               0.00161396  0.00249058  0.00375900  0.00559430
               0.00824984  0.01209221  0.01765183  0.02569619
               0.03733578  0.05417739  0.07854596  0.11380545
               0.16482331  0.23864234  0.34545298  0.50000000

Gradients computed in Reciprocal space

---------------------------------------------------------------------------------


     Starting wfcs are  208 randomized atomic wfcs

     total cpu time spent up to now is       71.6 secs

     Self-consistent Calculation

     iteration #  1     ecut=    70.00 Ry     beta= 0.70
     Davidson diagonalization with overlap
     ethr =  1.00E-02,  avg # of iterations = 10.0

     negative rho (up, down):  2.643E-04 1.292E-02

     total cpu time spent up to now is      191.4 secs

     total energy              =    -946.68787678 Ry
     Harris-Foulkes estimate   =    -949.73405271 Ry
     estimated scf accuracy    <      14.18095718 Ry

     total magnetization       =     6.00 Bohr mag/cell
     absolute magnetization    =     6.77 Bohr mag/cell

     iteration #  2     ecut=    70.00 Ry     beta= 0.70
     Davidson diagonalization with overlap
     ethr =  6.57E-03,  avg # of iterations =  3.5

     negative rho (up, down):  2.797E-03 1.850E-01

     total cpu time spent up to now is      299.3 secs

     total energy              =    -946.80628866 Ry
     Harris-Foulkes estimate   =    -957.21811587 Ry
     estimated scf accuracy    <      32.19118621 Ry

     total magnetization       =     4.00 Bohr mag/cell
     absolute magnetization    =     5.81 Bohr mag/cell

     iteration #  3     ecut=    70.00 Ry     beta= 0.70
     Davidson diagonalization with overlap
     ethr =  6.57E-03,  avg # of iterations =  4.0

     negative rho (up, down):  4.411E-02 4.876E-01

     total cpu time spent up to now is      402.1 secs

     total energy              =    -956.19195203 Ry
     Harris-Foulkes estimate   =    -955.87294353 Ry
     estimated scf accuracy    <     229.94070343 Ry

     total magnetization       =     2.00 Bohr mag/cell
     absolute magnetization    =    23.63 Bohr mag/cell

     iteration #  4     ecut=    70.00 Ry     beta= 0.70
     Davidson diagonalization with overlap
     ethr =  6.57E-03,  avg # of iterations =  1.0

     negative rho (up, down):  1.342E-01 5.494E-01

     total cpu time spent up to now is      483.6 secs

     total energy              =    -947.62251782 Ry
     Harris-Foulkes estimate   =    -956.23618801 Ry
     estimated scf accuracy    <     259.89433321 Ry

     total magnetization       =     0.00 Bohr mag/cell
     absolute magnetization    =    23.75 Bohr mag/cell

     iteration #  5     ecut=    70.00 Ry     beta= 0.70
     Davidson diagonalization with overlap
     ethr =  6.57E-03,  avg # of iterations =  3.5

     negative rho (up, down):  7.160E-02 5.031E-01

     total cpu time spent up to now is      583.3 secs

     total energy              =    -954.06022601 Ry
     Harris-Foulkes estimate   =    -952.57014062 Ry
     estimated scf accuracy    <      26.59663811 Ry

     total magnetization       =     2.00 Bohr mag/cell
     absolute magnetization    =     9.09 Bohr mag/cell

     iteration #  6     ecut=    70.00 Ry     beta= 0.70
     Davidson diagonalization with overlap
     ethr =  6.57E-03,  avg # of iterations =  3.0

     negative rho (up, down):  1.530E-01 5.701E-01

     total cpu time spent up to now is      676.7 secs

     total energy              =    -938.59047552 Ry
     Harris-Foulkes estimate   =    -964.20308832 Ry
     estimated scf accuracy    <     680.90916997 Ry

     total magnetization       =     2.00 Bohr mag/cell
     absolute magnetization    =    40.78 Bohr mag/cell

     iteration #  7     ecut=    70.00 Ry     beta= 0.70
     Davidson diagonalization with overlap
     ethr =  6.57E-03,  avg # of iterations =  3.0

     negative rho (up, down):  7.694E-02 4.456E-01

     total cpu time spent up to now is      778.3 secs

     total energy              =    -951.57761730 Ry
     Harris-Foulkes estimate   =    -951.88124201 Ry
     estimated scf accuracy    <      32.59584142 Ry

     total magnetization       =     2.00 Bohr mag/cell
     absolute magnetization    =    10.54 Bohr mag/cell

     iteration #  8     ecut=    70.00 Ry     beta= 0.70
     Davidson diagonalization with overlap
     ethr =  6.57E-03,  avg # of iterations =  2.5

     negative rho (up, down):  9.527E-02 4.924E-01

     total cpu time spent up to now is      868.9 secs

     total energy              =    -951.05155473 Ry
     Harris-Foulkes estimate   =    -953.80156972 Ry
     estimated scf accuracy    <     139.11275444 Ry

     total magnetization       =     2.00 Bohr mag/cell
     absolute magnetization    =    20.07 Bohr mag/cell

     iteration #  9     ecut=    70.00 Ry     beta= 0.70
     Davidson diagonalization with overlap
     ethr =  6.57E-03,  avg # of iterations =  2.0

     negative rho (up, down):  8.092E-02 4.106E-01

     total cpu time spent up to now is      955.3 secs

     total energy              =    -951.22934933 Ry
     Harris-Foulkes estimate   =    -951.96961500 Ry
     estimated scf accuracy    <      26.24235206 Ry

     total magnetization       =     2.00 Bohr mag/cell
     absolute magnetization    =     9.39 Bohr mag/cell

     iteration # 10     ecut=    70.00 Ry     beta= 0.70
     Davidson diagonalization with overlap
     ethr =  6.57E-03,  avg # of iterations =  2.0

     negative rho (up, down):  3.600E-02 3.224E-01

     total cpu time spent up to now is     1039.6 secs

     total energy              =    -951.69959533 Ry
     Harris-Foulkes estimate   =    -951.79277941 Ry
     estimated scf accuracy    <       4.37246902 Ry

     total magnetization       =    -0.00 Bohr mag/cell
     absolute magnetization    =     3.38 Bohr mag/cell

     iteration # 11     ecut=    70.00 Ry     beta= 0.70
     Davidson diagonalization with overlap
     ethr =  2.02E-03,  avg # of iterations =  2.0

     negative rho (up, down):  3.295E-02 2.206E-01

     total cpu time spent up to now is     1124.1 secs

     total energy              =    -951.73658965 Ry
     Harris-Foulkes estimate   =    -951.88835435 Ry
     estimated scf accuracy    <       3.32164479 Ry

     total magnetization       =     0.00 Bohr mag/cell
     absolute magnetization    =     2.38 Bohr mag/cell

     iteration # 12     ecut=    70.00 Ry     beta= 0.70
     Davidson diagonalization with overlap
     ethr =  1.54E-03,  avg # of iterations =  2.0

     negative rho (up, down):  2.144E-02 1.778E-01

     total cpu time spent up to now is     1209.1 secs

     total energy              =    -951.80391617 Ry
     Harris-Foulkes estimate   =    -951.92747834 Ry
     estimated scf accuracy    <       1.70540782 Ry

     total magnetization       =    -0.00 Bohr mag/cell
     absolute magnetization    =     1.44 Bohr mag/cell

     iteration # 13     ecut=    70.00 Ry     beta= 0.70
     Davidson diagonalization with overlap
     ethr =  7.90E-04,  avg # of iterations =  4.0

     negative rho (up, down):  2.434E-02 2.093E-01

     total cpu time spent up to now is     1297.5 secs

     total energy              =    -951.89980879 Ry
     Harris-Foulkes estimate   =    -951.92069233 Ry
     estimated scf accuracy    <       2.07180132 Ry

     total magnetization       =    -0.00 Bohr mag/cell
     absolute magnetization    =     1.90 Bohr mag/cell

     iteration # 14     ecut=    70.00 Ry     beta= 0.70
     Davidson diagonalization with overlap
     ethr =  7.90E-04,  avg # of iterations =  2.0

     negative rho (up, down):  4.937E-03 4.048E-01

     total cpu time spent up to now is     1385.0 secs

     total energy              =    -952.00727506 Ry
     Harris-Foulkes estimate   =    -952.15169394 Ry
     estimated scf accuracy    <      11.21750183 Ry

     total magnetization       =    -0.00 Bohr mag/cell
     absolute magnetization    =     5.16 Bohr mag/cell

     iteration # 15     ecut=    70.00 Ry     beta= 0.70
     Davidson diagonalization with overlap
     ethr =  7.90E-04,  avg # of iterations =  1.0

     negative rho (up, down):  8.877E-03 4.098E-01

     total cpu time spent up to now is     1467.8 secs

     total energy              =    -951.93913463 Ry
     Harris-Foulkes estimate   =    -952.03524794 Ry
     estimated scf accuracy    <      10.04593926 Ry

     total magnetization       =     0.00 Bohr mag/cell
     absolute magnetization    =     4.86 Bohr mag/cell

     iteration # 16     ecut=    70.00 Ry     beta= 0.70
     Davidson diagonalization with overlap
     ethr =  7.90E-04,  avg # of iterations =  2.0

     negative rho (up, down):  2.574E-02 3.895E-01

     total cpu time spent up to now is     1553.2 secs

     total energy              =    -951.88485946 Ry
     Harris-Foulkes estimate   =    -952.03283628 Ry
     estimated scf accuracy    <      11.11745103 Ry

     total magnetization       =     0.00 Bohr mag/cell
     absolute magnetization    =     5.11 Bohr mag/cell

     iteration # 17     ecut=    70.00 Ry     beta= 0.70
     Davidson diagonalization with overlap
     ethr =  7.90E-04,  avg # of iterations =  2.0

     negative rho (up, down):  2.226E-02 3.722E-01

     total cpu time spent up to now is     1637.6 secs

     total energy              =    -951.81790441 Ry
     Harris-Foulkes estimate   =    -951.96100885 Ry
     estimated scf accuracy    <       5.23100366 Ry

     total magnetization       =    -0.00 Bohr mag/cell
     absolute magnetization    =     3.62 Bohr mag/cell

     iteration # 18     ecut=    70.00 Ry     beta= 0.70
     Davidson diagonalization with overlap
     ethr =  7.90E-04,  avg # of iterations =  2.0

     negative rho (up, down):  6.724E-03 3.621E-01

     total cpu time spent up to now is     1721.3 secs

     total energy              =    -951.84318805 Ry
     Harris-Foulkes estimate   =    -951.89598268 Ry
     estimated scf accuracy    <       1.64107027 Ry

     total magnetization       =     0.00 Bohr mag/cell
     absolute magnetization    =     2.23 Bohr mag/cell

     iteration # 19     ecut=    70.00 Ry     beta= 0.70
     Davidson diagonalization with overlap
     ethr =  7.60E-04,  avg # of iterations =  2.0

     negative rho (up, down):  8.305E-03 3.529E-01

     total cpu time spent up to now is     1806.7 secs

     total energy              =    -951.87904132 Ry
     Harris-Foulkes estimate   =    -951.96374660 Ry
     estimated scf accuracy    <       5.22750756 Ry

     total magnetization       =     0.00 Bohr mag/cell
     absolute magnetization    =     3.72 Bohr mag/cell

     iteration # 20     ecut=    70.00 Ry     beta= 0.70
     Davidson diagonalization with overlap
     ethr =  7.60E-04,  avg # of iterations =  2.0

     negative rho (up, down):  2.140E-02 3.037E-01

     total cpu time spent up to now is     1889.9 secs

     total energy              =    -951.84450368 Ry
     Harris-Foulkes estimate   =    -951.91957242 Ry
     estimated scf accuracy    <       2.51474146 Ry

     total magnetization       =     0.00 Bohr mag/cell
     absolute magnetization    =     2.58 Bohr mag/cell

     iteration # 21     ecut=    70.00 Ry     beta= 0.70
     Davidson diagonalization with overlap
     ethr =  7.60E-04,  avg # of iterations =  2.0

     negative rho (up, down):  2.411E-03 3.309E-01

     total cpu time spent up to now is     1972.9 secs

     total energy              =    -951.85102798 Ry
     Harris-Foulkes estimate   =    -951.88310520 Ry
     estimated scf accuracy    <       0.58712837 Ry

     total magnetization       =     0.00 Bohr mag/cell
     absolute magnetization    =     1.48 Bohr mag/cell

     iteration # 22     ecut=    70.00 Ry     beta= 0.70
     Davidson diagonalization with overlap
     ethr =  2.72E-04,  avg # of iterations =  2.0

     negative rho (up, down):  2.167E-02 1.444E-01

     total cpu time spent up to now is     2059.4 secs

     total energy              =    -951.84879984 Ry
     Harris-Foulkes estimate   =    -951.90511893 Ry
     estimated scf accuracy    <       1.28571442 Ry

     total magnetization       =     0.00 Bohr mag/cell
     absolute magnetization    =     1.40 Bohr mag/cell

     iteration # 23     ecut=    70.00 Ry     beta= 0.70
     Davidson diagonalization with overlap
     ethr =  2.72E-04,  avg # of iterations =  2.0

     negative rho (up, down):  1.992E-02 1.978E-01

     total cpu time spent up to now is     2145.7 secs

     total energy              =    -951.84880173 Ry
     Harris-Foulkes estimate   =    -951.90913289 Ry
     estimated scf accuracy    <       1.22680131 Ry

     total magnetization       =    -0.00 Bohr mag/cell
     absolute magnetization    =     1.43 Bohr mag/cell

     iteration # 24     ecut=    70.00 Ry     beta= 0.70
     Davidson diagonalization with overlap
     ethr =  2.72E-04,  avg # of iterations =  2.0

     negative rho (up, down):  4.648E-03 1.774E-01

     total cpu time spent up to now is     2230.6 secs

     total energy              =    -951.88391438 Ry
     Harris-Foulkes estimate   =    -951.88027987 Ry
     estimated scf accuracy    <       0.03037391 Ry

     total magnetization       =    -0.00 Bohr mag/cell
     absolute magnetization    =     0.52 Bohr mag/cell

     iteration # 25     ecut=    70.00 Ry     beta= 0.70
     Davidson diagonalization with overlap
     ethr =  1.41E-05,  avg # of iterations =  6.5

     negative rho (up, down):  1.624E-03 2.620E-01

     total cpu time spent up to now is     2330.7 secs

     total energy              =    -951.88288095 Ry
     Harris-Foulkes estimate   =    -951.89223496 Ry
     estimated scf accuracy    <       0.17680434 Ry

     total magnetization       =     0.00 Bohr mag/cell
     absolute magnetization    =     0.81 Bohr mag/cell

     iteration # 26     ecut=    70.00 Ry     beta= 0.70
     Davidson diagonalization with overlap
     ethr =  1.41E-05,  avg # of iterations =  3.5

     negative rho (up, down):  1.169E-03 2.176E-01

     total cpu time spent up to now is     2422.6 secs

     total energy              =    -951.88754091 Ry
     Harris-Foulkes estimate   =    -951.88733142 Ry
     estimated scf accuracy    <       0.02258684 Ry

     total magnetization       =     0.00 Bohr mag/cell
     absolute magnetization    =     0.41 Bohr mag/cell

     iteration # 27     ecut=    70.00 Ry     beta= 0.70
     Davidson diagonalization with overlap
     ethr =  1.05E-05,  avg # of iterations =  2.5

     negative rho (up, down):  1.817E-03 2.416E-01

     total cpu time spent up to now is     2514.3 secs

     total energy              =    -951.88767171 Ry
     Harris-Foulkes estimate   =    -951.89077723 Ry
     estimated scf accuracy    <       0.17410008 Ry

     total magnetization       =     0.00 Bohr mag/cell
     absolute magnetization    =     0.77 Bohr mag/cell

     iteration # 28     ecut=    70.00 Ry     beta= 0.70
     Davidson diagonalization with overlap
     ethr =  1.05E-05,  avg # of iterations =  2.5

     negative rho (up, down):  2.444E-03 2.549E-01

     total cpu time spent up to now is     2604.8 secs

     total energy              =    -951.89290753 Ry
     Harris-Foulkes estimate   =    -951.89076064 Ry
     estimated scf accuracy    <       0.18472600 Ry

     total magnetization       =     0.05 Bohr mag/cell
     absolute magnetization    =     0.81 Bohr mag/cell

     iteration # 29     ecut=    70.00 Ry     beta= 0.70
     Davidson diagonalization with overlap
     ethr =  1.05E-05,  avg # of iterations =  2.0

     negative rho (up, down):  3.911E-03 2.916E-01

     total cpu time spent up to now is     2693.0 secs

     total energy              =    -951.88632685 Ry
     Harris-Foulkes estimate   =    -951.89502175 Ry
     estimated scf accuracy    <       0.52102777 Ry

     total magnetization       =     0.00 Bohr mag/cell
     absolute magnetization    =     1.25 Bohr mag/cell

     iteration # 30     ecut=    70.00 Ry     beta= 0.70
     Davidson diagonalization with overlap
     ethr =  1.05E-05,  avg # of iterations =  3.5

     negative rho (up, down):  1.550E-02 2.348E-01

     total cpu time spent up to now is     2793.3 secs

     total energy              =    -951.91487055 Ry
     Harris-Foulkes estimate   =    -951.90108383 Ry
     estimated scf accuracy    <       0.98175894 Ry

     total magnetization       =     0.06 Bohr mag/cell
     absolute magnetization    =     1.41 Bohr mag/cell

     iteration # 31     ecut=    70.00 Ry     beta= 0.70
     Davidson diagonalization with overlap
     ethr =  1.05E-05,  avg # of iterations =  3.5

     negative rho (up, down):  1.918E-02 3.047E-01

     total cpu time spent up to now is     2893.3 secs

     total energy              =    -951.83234905 Ry
     Harris-Foulkes estimate   =    -951.92727487 Ry
     estimated scf accuracy    <       2.97980692 Ry

     total magnetization       =     0.00 Bohr mag/cell
     absolute magnetization    =     2.64 Bohr mag/cell

     iteration # 32     ecut=    70.00 Ry     beta= 0.70
     Davidson diagonalization with overlap
     ethr =  1.05E-05,  avg # of iterations =  3.5

     negative rho (up, down):  8.191E-03 2.312E-01

     total cpu time spent up to now is     3003.4 secs

     total energy              =    -951.87989958 Ry
     Harris-Foulkes estimate   =    -951.87644758 Ry
     estimated scf accuracy    <       0.11096504 Ry

     total magnetization       =    -0.00 Bohr mag/cell
     absolute magnetization    =     0.37 Bohr mag/cell

     iteration # 33     ecut=    70.00 Ry     beta= 0.70
     Davidson diagonalization with overlap
     ethr =  1.05E-05,  avg # of iterations =  3.0

     negative rho (up, down):  6.985E-03 1.970E-01

     total cpu time spent up to now is     3106.0 secs

     total energy              =    -951.88235338 Ry
     Harris-Foulkes estimate   =    -951.88723682 Ry
     estimated scf accuracy    <       0.14877529 Ry

     total magnetization       =     0.01 Bohr mag/cell
     absolute magnetization    =     0.53 Bohr mag/cell

     iteration # 34     ecut=    70.00 Ry     beta= 0.70
     Davidson diagonalization with overlap
     ethr =  1.05E-05,  avg # of iterations =  3.5

     negative rho (up, down):  2.949E-03 1.259E-01

     total cpu time spent up to now is     3204.5 secs

     total energy              =    -951.88580226 Ry
     Harris-Foulkes estimate   =    -951.88794643 Ry
     estimated scf accuracy    <       0.06355626 Ry

     total magnetization       =     0.00 Bohr mag/cell
     absolute magnetization    =     0.37 Bohr mag/cell

     iteration # 35     ecut=    70.00 Ry     beta= 0.70
     Davidson diagonalization with overlap
     ethr =  1.05E-05,  avg # of iterations =  3.5

     negative rho (up, down):  1.720E-03 1.309E-01

     total cpu time spent up to now is     3302.2 secs

     total energy              =    -951.88697172 Ry
     Harris-Foulkes estimate   =    -951.88844948 Ry
     estimated scf accuracy    <       0.01380266 Ry

     total magnetization       =     0.00 Bohr mag/cell
     absolute magnetization    =     0.24 Bohr mag/cell

     iteration # 36     ecut=    70.00 Ry     beta= 0.70
     Davidson diagonalization with overlap
     ethr =  6.39E-06,  avg # of iterations =  3.0

     negative rho (up, down):  1.290E-03 1.368E-01

     total cpu time spent up to now is     3395.9 secs

     total energy              =    -951.89077672 Ry
     Harris-Foulkes estimate   =    -951.88936428 Ry
     estimated scf accuracy    <       0.02849600 Ry

     total magnetization       =    -0.00 Bohr mag/cell
     absolute magnetization    =     0.31 Bohr mag/cell

     iteration # 37     ecut=    70.00 Ry     beta= 0.70
     Davidson diagonalization with overlap
     ethr =  6.39E-06,  avg # of iterations =  3.0

     negative rho (up, down):  3.085E-03 3.170E-01

     total cpu time spent up to now is     3497.1 secs

     total energy              =    -951.86193473 Ry
     Harris-Foulkes estimate   =    -951.90889544 Ry
     estimated scf accuracy    <       1.22818217 Ry

     total magnetization       =     0.00 Bohr mag/cell
     absolute magnetization    =     1.74 Bohr mag/cell

     iteration # 38     ecut=    70.00 Ry     beta= 0.70
     Davidson diagonalization with overlap
     ethr =  6.39E-06,  avg # of iterations =  4.5

     negative rho (up, down):  1.780E-03 2.248E-01

     total cpu time spent up to now is     3606.2 secs

     total energy              =    -951.88760637 Ry
     Harris-Foulkes estimate   =    -951.88260637 Ry
     estimated scf accuracy    <       0.02368983 Ry

     total magnetization       =     0.00 Bohr mag/cell
     absolute magnetization    =     0.29 Bohr mag/cell

     iteration # 39     ecut=    70.00 Ry     beta= 0.70
     Davidson diagonalization with overlap
     ethr =  6.39E-06,  avg # of iterations =  3.0

     negative rho (up, down):  1.612E-03 2.255E-01

     total cpu time spent up to now is     3695.7 secs

     total energy              =    -951.88657038 Ry
     Harris-Foulkes estimate   =    -951.88835417 Ry
     estimated scf accuracy    <       0.07204089 Ry

     total magnetization       =     0.00 Bohr mag/cell
     absolute magnetization    =     0.48 Bohr mag/cell

     iteration # 40     ecut=    70.00 Ry     beta= 0.70
     Davidson diagonalization with overlap
     ethr =  6.39E-06,  avg # of iterations =  3.0

     negative rho (up, down):  2.607E-03 1.546E-01

     total cpu time spent up to now is     3786.7 secs

     total energy              =    -951.88818762 Ry
     Harris-Foulkes estimate   =    -951.88792878 Ry
     estimated scf accuracy    <       0.02825588 Ry

     total magnetization       =    -0.00 Bohr mag/cell
     absolute magnetization    =     0.27 Bohr mag/cell

     iteration # 41     ecut=    70.00 Ry     beta= 0.70
     Davidson diagonalization with overlap
     ethr =  6.39E-06,  avg # of iterations =  2.5

     negative rho (up, down):  2.000E-03 1.929E-01

     total cpu time spent up to now is     3873.6 secs

     total energy              =    -951.88735389 Ry
     Harris-Foulkes estimate   =    -951.88846447 Ry
     estimated scf accuracy    <       0.04292798 Ry

     total magnetization       =     0.00 Bohr mag/cell
     absolute magnetization    =     0.37 Bohr mag/cell

     iteration # 42     ecut=    70.00 Ry     beta= 0.70
     Davidson diagonalization with overlap
     ethr =  6.39E-06,  avg # of iterations =  2.5

     negative rho (up, down):  1.532E-03 1.358E-01

     total cpu time spent up to now is     3961.7 secs

     total energy              =    -951.88822242 Ry
     Harris-Foulkes estimate   =    -951.88789841 Ry
     estimated scf accuracy    <       0.00675407 Ry

     total magnetization       =    -0.00 Bohr mag/cell
     absolute magnetization    =     0.16 Bohr mag/cell

     iteration # 43     ecut=    70.00 Ry     beta= 0.70
     Davidson diagonalization with overlap
     ethr =  3.13E-06,  avg # of iterations =  3.0

     negative rho (up, down):  3.083E-03 1.345E-01

     total cpu time spent up to now is     4054.6 secs

     total energy              =    -951.88696568 Ry
     Harris-Foulkes estimate   =    -951.88903197 Ry
     estimated scf accuracy    <       0.03875437 Ry

     total magnetization       =    -0.00 Bohr mag/cell
     absolute magnetization    =     0.27 Bohr mag/cell

     iteration # 44     ecut=    70.00 Ry     beta= 0.70
     Davidson diagonalization with overlap
     ethr =  3.13E-06,  avg # of iterations =  3.0

     negative rho (up, down):  1.986E-03 7.339E-02

     total cpu time spent up to now is     4147.4 secs

     total energy              =    -951.88768365 Ry
     Harris-Foulkes estimate   =    -951.88825158 Ry
     estimated scf accuracy    <       0.01422019 Ry

     total magnetization       =    -0.00 Bohr mag/cell
     absolute magnetization    =     0.15 Bohr mag/cell

     iteration # 45     ecut=    70.00 Ry     beta= 0.70
     Davidson diagonalization with overlap
     ethr =  3.13E-06,  avg # of iterations =  3.5

     negative rho (up, down):  1.363E-03 1.217E-01

     total cpu time spent up to now is     4243.6 secs

     total energy              =    -951.88773142 Ry
     Harris-Foulkes estimate   =    -951.88884091 Ry
     estimated scf accuracy    <       0.01054956 Ry

     total magnetization       =     0.00 Bohr mag/cell
     absolute magnetization    =     0.18 Bohr mag/cell

     iteration # 46     ecut=    70.00 Ry     beta= 0.70
     Davidson diagonalization with overlap
     ethr =  3.13E-06,  avg # of iterations =  3.0

     negative rho (up, down):  1.216E-03 1.706E-02

     total cpu time spent up to now is     4333.7 secs

     total energy              =    -951.88859784 Ry
     Harris-Foulkes estimate   =    -951.88866336 Ry
     estimated scf accuracy    <       0.00369486 Ry

     total magnetization       =    -0.00 Bohr mag/cell
     absolute magnetization    =     0.11 Bohr mag/cell

     iteration # 47     ecut=    70.00 Ry     beta= 0.70
     Davidson diagonalization with overlap
     ethr =  1.71E-06,  avg # of iterations =  3.0

     negative rho (up, down):  1.197E-03 1.550E-01

     total cpu time spent up to now is     4427.8 secs

     total energy              =    -951.88793597 Ry
     Harris-Foulkes estimate   =    -951.88909453 Ry
     estimated scf accuracy    <       0.02458748 Ry

     total magnetization       =    -0.00 Bohr mag/cell
     absolute magnetization    =     0.28 Bohr mag/cell

     iteration # 48     ecut=    70.00 Ry     beta= 0.70
     Davidson diagonalization with overlap
     ethr =  1.71E-06,  avg # of iterations =  3.5

     negative rho (up, down):  1.228E-03 9.872E-02

     total cpu time spent up to now is     4525.4 secs

     total energy              =    -951.88878141 Ry
     Harris-Foulkes estimate   =    -951.88840213 Ry
     estimated scf accuracy    <       0.00433551 Ry

     total magnetization       =     0.00 Bohr mag/cell
     absolute magnetization    =     0.13 Bohr mag/cell

     iteration # 49     ecut=    70.00 Ry     beta= 0.70
     Davidson diagonalization with overlap
     ethr =  1.71E-06,  avg # of iterations =  2.0

     negative rho (up, down):  1.410E-03 2.025E-01

     total cpu time spent up to now is     4621.8 secs

     total energy              =    -951.88743145 Ry
     Harris-Foulkes estimate   =    -951.88932918 Ry
     estimated scf accuracy    <       0.04865985 Ry

     total magnetization       =     0.00 Bohr mag/cell
     absolute magnetization    =     0.37 Bohr mag/cell

     iteration # 50     ecut=    70.00 Ry     beta= 0.70
     Davidson diagonalization with overlap
     ethr =  1.71E-06,  avg # of iterations =  4.0

     negative rho (up, down):  2.729E-03 1.437E-01

     total cpu time spent up to now is     4721.6 secs

     total energy              =    -951.88900298 Ry
     Harris-Foulkes estimate   =    -951.88848614 Ry
     estimated scf accuracy    <       0.03382933 Ry

     total magnetization       =     0.00 Bohr mag/cell
     absolute magnetization    =     0.25 Bohr mag/cell

     iteration # 51     ecut=    70.00 Ry     beta= 0.70
     Davidson diagonalization with overlap
     ethr =  1.71E-06,  avg # of iterations =  4.0

     negative rho (up, down):  2.750E-03 2.271E-01

     total cpu time spent up to now is     4819.6 secs

     total energy              =    -951.88537018 Ry
     Harris-Foulkes estimate   =    -951.88984365 Ry
     estimated scf accuracy    <       0.12740788 Ry

     total magnetization       =    -0.00 Bohr mag/cell
     absolute magnetization    =     0.55 Bohr mag/cell

     iteration # 52     ecut=    70.00 Ry     beta= 0.70
     Davidson diagonalization with overlap
     ethr =  1.71E-06,  avg # of iterations =  3.5

     negative rho (up, down):  1.525E-03 1.533E-01

     total cpu time spent up to now is     4924.5 secs

     total energy              =    -951.88801190 Ry
     Harris-Foulkes estimate   =    -951.88725702 Ry
     estimated scf accuracy    <       0.00537222 Ry

     total magnetization       =    -0.00 Bohr mag/cell
     absolute magnetization    =     0.09 Bohr mag/cell

     iteration # 53     ecut=    70.00 Ry     beta= 0.70
     Davidson diagonalization with overlap
     ethr =  1.71E-06,  avg # of iterations =  3.5

     negative rho (up, down):  2.060E-03 1.241E-01

     total cpu time spent up to now is     5022.9 secs

     total energy              =    -951.88777292 Ry
     Harris-Foulkes estimate   =    -951.88854251 Ry
     estimated scf accuracy    <       0.01541566 Ry

     total magnetization       =    -0.00 Bohr mag/cell
     absolute magnetization    =     0.16 Bohr mag/cell

     iteration # 54     ecut=    70.00 Ry     beta= 0.70
     Davidson diagonalization with overlap
     ethr =  1.71E-06,  avg # of iterations =  3.5

     negative rho (up, down):  1.512E-03 6.120E-02

     total cpu time spent up to now is     5118.1 secs

     total energy              =    -951.88826403 Ry
     Harris-Foulkes estimate   =    -951.88836386 Ry
     estimated scf accuracy    <       0.00765910 Ry

     total magnetization       =     0.00 Bohr mag/cell
     absolute magnetization    =     0.11 Bohr mag/cell

     iteration # 55     ecut=    70.00 Ry     beta= 0.70
     Davidson diagonalization with overlap
     ethr =  1.71E-06,  avg # of iterations =  3.5

     negative rho (up, down):  1.242E-03 5.982E-02

     total cpu time spent up to now is     5214.2 secs

     total energy              =    -951.88845341 Ry
     Harris-Foulkes estimate   =    -951.88865031 Ry
     estimated scf accuracy    <       0.00222141 Ry

     total magnetization       =    -0.00 Bohr mag/cell
     absolute magnetization    =     0.08 Bohr mag/cell

     iteration # 56     ecut=    70.00 Ry     beta= 0.70
     Davidson diagonalization with overlap
     ethr =  1.03E-06,  avg # of iterations =  2.0

     negative rho (up, down):  1.170E-03 3.574E-02

     total cpu time spent up to now is     5304.1 secs

     total energy              =    -951.88877334 Ry
     Harris-Foulkes estimate   =    -951.88871774 Ry
     estimated scf accuracy    <       0.00172536 Ry

     total magnetization       =     0.00 Bohr mag/cell
     absolute magnetization    =     0.08 Bohr mag/cell

     iteration # 57     ecut=    70.00 Ry     beta= 0.70
     Davidson diagonalization with overlap
     ethr =  7.99E-07,  avg # of iterations =  2.5

     negative rho (up, down):  1.237E-03 1.801E-01

     total cpu time spent up to now is     5401.3 secs

     total energy              =    -951.88744587 Ry
     Harris-Foulkes estimate   =    -951.88936422 Ry
     estimated scf accuracy    <       0.03941181 Ry

     total magnetization       =    -0.00 Bohr mag/cell
     absolute magnetization    =     0.32 Bohr mag/cell

     iteration # 58     ecut=    70.00 Ry     beta= 0.70
     Davidson diagonalization with overlap
     ethr =  7.99E-07,  avg # of iterations =  3.0

     negative rho (up, down):  1.245E-03 9.337E-02

     total cpu time spent up to now is     5502.4 secs

     total energy              =    -951.88856430 Ry
     Harris-Foulkes estimate   =    -951.88823034 Ry
     estimated scf accuracy    <       0.00355774 Ry

     total magnetization       =    -0.00 Bohr mag/cell
     absolute magnetization    =     0.09 Bohr mag/cell

     iteration # 59     ecut=    70.00 Ry     beta= 0.70
     Davidson diagonalization with overlap
     ethr =  7.99E-07,  avg # of iterations =  2.0

     negative rho (up, down):  1.241E-03 1.410E-01

     total cpu time spent up to now is     5594.2 secs

     total energy              =    -951.88827911 Ry
     Harris-Foulkes estimate   =    -951.88874098 Ry
     estimated scf accuracy    <       0.01170593 Ry

     total magnetization       =    -0.00 Bohr mag/cell
     absolute magnetization    =     0.18 Bohr mag/cell

     iteration # 60     ecut=    70.00 Ry     beta= 0.70
     Davidson diagonalization with overlap
     ethr =  7.99E-07,  avg # of iterations =  2.0

     negative rho (up, down):  1.513E-03 9.716E-02

     total cpu time spent up to now is     5686.9 secs

     total energy              =    -951.88851203 Ry
     Harris-Foulkes estimate   =    -951.88849234 Ry
     estimated scf accuracy    <       0.00577539 Ry

     total magnetization       =    -0.00 Bohr mag/cell
     absolute magnetization    =     0.11 Bohr mag/cell

     iteration # 61     ecut=    70.00 Ry     beta= 0.70
     Davidson diagonalization with overlap
     ethr =  7.99E-07,  avg # of iterations =  2.0

     negative rho (up, down):  1.311E-03 1.266E-01

     total cpu time spent up to now is     5773.7 secs

     total energy              =    -951.88838836 Ry
     Harris-Foulkes estimate   =    -951.88857359 Ry
     estimated scf accuracy    <       0.00710175 Ry

     total magnetization       =     0.00 Bohr mag/cell
     absolute magnetization    =     0.14 Bohr mag/cell

     iteration # 62     ecut=    70.00 Ry     beta= 0.70
     Davidson diagonalization with overlap
     ethr =  7.99E-07,  avg # of iterations =  2.0

     negative rho (up, down):  1.194E-03 7.779E-02

     total cpu time spent up to now is     5861.5 secs

     total energy              =    -951.88863445 Ry
     Harris-Foulkes estimate   =    -951.88847099 Ry
     estimated scf accuracy    <       0.00100084 Ry

     total magnetization       =     0.00 Bohr mag/cell
     absolute magnetization    =     0.06 Bohr mag/cell

     iteration # 63     ecut=    70.00 Ry     beta= 0.70
     Davidson diagonalization with overlap
     ethr =  4.63E-07,  avg # of iterations =  2.0

     negative rho (up, down):  1.394E-03 8.792E-02

     total cpu time spent up to now is     5952.3 secs

     total energy              =    -951.88842094 Ry
     Harris-Foulkes estimate   =    -951.88872318 Ry
     estimated scf accuracy    <       0.00453863 Ry

     total magnetization       =    -0.00 Bohr mag/cell
     absolute magnetization    =     0.09 Bohr mag/cell

     iteration # 64     ecut=    70.00 Ry     beta= 0.70
     Davidson diagonalization with overlap
     ethr =  4.63E-07,  avg # of iterations =  2.0

     negative rho (up, down):  1.406E-03 4.795E-02

     total cpu time spent up to now is     6042.3 secs

     total energy              =    -951.88847470 Ry
     Harris-Foulkes estimate   =    -951.88862132 Ry
     estimated scf accuracy    <       0.00404267 Ry

     total magnetization       =    -0.00 Bohr mag/cell
     absolute magnetization    =     0.07 Bohr mag/cell

     iteration # 65     ecut=    70.00 Ry     beta= 0.70
     Davidson diagonalization with overlap
     ethr =  4.63E-07,  avg # of iterations =  2.0

     negative rho (up, down):  1.208E-03 5.303E-02

     total cpu time spent up to now is     6135.1 secs

     total energy              =    -951.88857356 Ry
     Harris-Foulkes estimate   =    -951.88864530 Ry
     estimated scf accuracy    <       0.00117120 Ry

     total magnetization       =    -0.00 Bohr mag/cell
     absolute magnetization    =     0.06 Bohr mag/cell

     iteration # 66     ecut=    70.00 Ry     beta= 0.70
     Davidson diagonalization with overlap
     ethr =  4.63E-07,  avg # of iterations =  2.0

     negative rho (up, down):  1.164E-03 1.845E-02

     total cpu time spent up to now is     6223.1 secs

     total energy              =    -951.88870837 Ry
     Harris-Foulkes estimate   =    -951.88874025 Ry
     estimated scf accuracy    <       0.00099580 Ry

     total magnetization       =     0.00 Bohr mag/cell
     absolute magnetization    =     0.05 Bohr mag/cell

     iteration # 67     ecut=    70.00 Ry     beta= 0.70
     Davidson diagonalization with overlap
     ethr =  4.61E-07,  avg # of iterations =  2.5

     negative rho (up, down):  1.175E-03 1.022E-01

     total cpu time spent up to now is     6313.6 secs

     total energy              =    -951.88845963 Ry
     Harris-Foulkes estimate   =    -951.88883731 Ry
     estimated scf accuracy    <       0.00690688 Ry

     total magnetization       =    -0.00 Bohr mag/cell
     absolute magnetization    =     0.13 Bohr mag/cell

     iteration # 68     ecut=    70.00 Ry     beta= 0.70
     Davidson diagonalization with overlap
     ethr =  4.61E-07,  avg # of iterations =  3.0

     negative rho (up, down):  1.182E-03 4.790E-02

     total cpu time spent up to now is     6407.1 secs

     total energy              =    -951.88872346 Ry
     Harris-Foulkes estimate   =    -951.88858125 Ry
     estimated scf accuracy    <       0.00072795 Ry

     total magnetization       =     0.00 Bohr mag/cell
     absolute magnetization    =     0.04 Bohr mag/cell

     iteration # 69     ecut=    70.00 Ry     beta= 0.70
     Davidson diagonalization with overlap
     ethr =  3.37E-07,  avg # of iterations =  2.0

     negative rho (up, down):  1.237E-03 1.515E-01

     total cpu time spent up to now is     6503.3 secs

     total energy              =    -951.88813390 Ry
     Harris-Foulkes estimate   =    -951.88894213 Ry
     estimated scf accuracy    <       0.01627467 Ry

     total magnetization       =    -0.00 Bohr mag/cell
     absolute magnetization    =     0.20 Bohr mag/cell

     iteration # 70     ecut=    70.00 Ry     beta= 0.70
     Davidson diagonalization with overlap
     ethr =  3.37E-07,  avg # of iterations =  3.0

     negative rho (up, down):  1.350E-03 8.311E-02

     total cpu time spent up to now is     6598.3 secs

     total energy              =    -951.88871500 Ry
     Harris-Foulkes estimate   =    -951.88839172 Ry
     estimated scf accuracy    <       0.00276910 Ry

     total magnetization       =     0.00 Bohr mag/cell
     absolute magnetization    =     0.07 Bohr mag/cell

     iteration # 71     ecut=    70.00 Ry     beta= 0.70
     Davidson diagonalization with overlap
     ethr =  3.37E-07,  avg # of iterations =  2.5

     negative rho (up, down):  1.381E-03 1.755E-01

     total cpu time spent up to now is     6691.4 secs

     total energy              =    -951.88773453 Ry
     Harris-Foulkes estimate   =    -951.88897709 Ry
     estimated scf accuracy    <       0.02685053 Ry

     total magnetization       =    -0.00 Bohr mag/cell
     absolute magnetization    =     0.25 Bohr mag/cell

     iteration # 72     ecut=    70.00 Ry     beta= 0.70
     Davidson diagonalization with overlap
     ethr =  3.37E-07,  avg # of iterations =  3.0

     negative rho (up, down):  1.199E-03 8.186E-02

     total cpu time spent up to now is     6787.4 secs

     total energy              =    -951.88858140 Ry
     Harris-Foulkes estimate   =    -951.88815970 Ry
     estimated scf accuracy    <       0.00077611 Ry

     total magnetization       =     0.00 Bohr mag/cell
     absolute magnetization    =     0.02 Bohr mag/cell

     iteration # 73     ecut=    70.00 Ry     beta= 0.70
     Davidson diagonalization with overlap
     ethr =  3.37E-07,  avg # of iterations =  3.0

     negative rho (up, down):  1.444E-03 7.165E-02

     total cpu time spent up to now is     6878.1 secs

     total energy              =    -951.88844519 Ry
     Harris-Foulkes estimate   =    -951.88870300 Ry
     estimated scf accuracy    <       0.00374501 Ry

     total magnetization       =    -0.00 Bohr mag/cell
     absolute magnetization    =     0.07 Bohr mag/cell

     iteration # 74     ecut=    70.00 Ry     beta= 0.70
     Davidson diagonalization with overlap
     ethr =  3.37E-07,  avg # of iterations =  2.5

     negative rho (up, down):  1.236E-03 2.640E-02

     total cpu time spent up to now is     6966.0 secs

     total energy              =    -951.88864153 Ry
     Harris-Foulkes estimate   =    -951.88856677 Ry
     estimated scf accuracy    <       0.00116720 Ry

     total magnetization       =     0.00 Bohr mag/cell
     absolute magnetization    =     0.04 Bohr mag/cell

     iteration # 75     ecut=    70.00 Ry     beta= 0.70
     Davidson diagonalization with overlap
     ethr =  3.37E-07,  avg # of iterations =  3.0

     negative rho (up, down):  1.171E-03 2.320E-02

     total cpu time spent up to now is     7055.6 secs

     total energy              =    -951.88867295 Ry
     Harris-Foulkes estimate   =    -951.88872232 Ry
     estimated scf accuracy    <       0.00052851 Ry

     total magnetization       =     0.00 Bohr mag/cell
     absolute magnetization    =     0.03 Bohr mag/cell

     iteration # 76     ecut=    70.00 Ry     beta= 0.70
     Davidson diagonalization with overlap
     ethr =  2.45E-07,  avg # of iterations =  2.0

     negative rho (up, down):  1.158E-03 8.948E-03

     total cpu time spent up to now is     7140.0 secs

     total energy              =    -951.88873067 Ry
     Harris-Foulkes estimate   =    -951.88872432 Ry
     estimated scf accuracy    <       0.00018396 Ry

     total magnetization       =     0.00 Bohr mag/cell
     absolute magnetization    =     0.02 Bohr mag/cell

     iteration # 77     ecut=    70.00 Ry     beta= 0.70
     Davidson diagonalization with overlap
     ethr =  8.52E-08,  avg # of iterations =  2.5

     negative rho (up, down):  1.169E-03 9.087E-02

     total cpu time spent up to now is     7232.5 secs

     total energy              =    -951.88851992 Ry
     Harris-Foulkes estimate   =    -951.88881200 Ry
     estimated scf accuracy    <       0.00513134 Ry

     total magnetization       =    -0.00 Bohr mag/cell
     absolute magnetization    =     0.11 Bohr mag/cell

     iteration # 78     ecut=    70.00 Ry     beta= 0.70
     Davidson diagonalization with overlap
     ethr =  8.52E-08,  avg # of iterations =  3.0

     negative rho (up, down):  1.170E-03 3.741E-02

     total cpu time spent up to now is     7328.9 secs

     total energy              =    -951.88869284 Ry
     Harris-Foulkes estimate   =    -951.88861681 Ry
     estimated scf accuracy    <       0.00038825 Ry

     total magnetization       =     0.00 Bohr mag/cell
     absolute magnetization    =     0.03 Bohr mag/cell

     iteration # 79     ecut=    70.00 Ry     beta= 0.70
     Davidson diagonalization with overlap
     ethr =  8.52E-08,  avg # of iterations =  2.0

     negative rho (up, down):  1.166E-03 4.960E-02

     total cpu time spent up to now is     7416.8 secs

     total energy              =    -951.88869647 Ry
     Harris-Foulkes estimate   =    -951.88871551 Ry
     estimated scf accuracy    <       0.00093983 Ry

     total magnetization       =     0.00 Bohr mag/cell
     absolute magnetization    =     0.05 Bohr mag/cell

     iteration # 80     ecut=    70.00 Ry     beta= 0.70
     Davidson diagonalization with overlap
     ethr =  8.52E-08,  avg # of iterations =  2.0

     negative rho (up, down):  1.215E-03 5.080E-02

     total cpu time spent up to now is     7504.5 secs

     total energy              =    -951.88867019 Ry
     Harris-Foulkes estimate   =    -951.88871567 Ry
     estimated scf accuracy    <       0.00117081 Ry

     total magnetization       =    -0.00 Bohr mag/cell
     absolute magnetization    =     0.05 Bohr mag/cell

     iteration # 81     ecut=    70.00 Ry     beta= 0.70
     Davidson diagonalization with overlap
     ethr =  8.52E-08,  avg # of iterations =  2.0

     negative rho (up, down):  1.174E-03 5.904E-02

     total cpu time spent up to now is     7591.3 secs

     total energy              =    -951.88867321 Ry
     Harris-Foulkes estimate   =    -951.88868451 Ry
     estimated scf accuracy    <       0.00099726 Ry

     total magnetization       =     0.00 Bohr mag/cell
     absolute magnetization    =     0.05 Bohr mag/cell

     iteration # 82     ecut=    70.00 Ry     beta= 0.70
     Davidson diagonalization with overlap
     ethr =  8.52E-08,  avg # of iterations =  2.0

     negative rho (up, down):  1.161E-03 3.766E-02

     total cpu time spent up to now is     7685.9 secs

     total energy              =    -951.88870925 Ry
     Harris-Foulkes estimate   =    -951.88868419 Ry
     estimated scf accuracy    <       0.00023141 Ry

     total magnetization       =    -0.00 Bohr mag/cell
     absolute magnetization    =     0.02 Bohr mag/cell

     iteration # 83     ecut=    70.00 Ry     beta= 0.70
     Davidson diagonalization with overlap
     ethr =  8.52E-08,  avg # of iterations =  2.0

     negative rho (up, down):  1.178E-03 3.538E-02

     total cpu time spent up to now is     7773.1 secs

     total energy              =    -951.88869766 Ry
     Harris-Foulkes estimate   =    -951.88871789 Ry
     estimated scf accuracy    <       0.00042011 Ry

     total magnetization       =    -0.00 Bohr mag/cell
     absolute magnetization    =     0.03 Bohr mag/cell

     iteration # 84     ecut=    70.00 Ry     beta= 0.70
     Davidson diagonalization with overlap
     ethr =  8.52E-08,  avg # of iterations =  2.0

     negative rho (up, down):  1.240E-03 3.293E-02

     total cpu time spent up to now is     7862.4 secs

     total energy              =    -951.88865356 Ry
     Harris-Foulkes estimate   =    -951.88873105 Ry
     estimated scf accuracy    <       0.00127304 Ry

     total magnetization       =    -0.00 Bohr mag/cell
     absolute magnetization    =     0.03 Bohr mag/cell

     iteration # 85     ecut=    70.00 Ry     beta= 0.70
     Davidson diagonalization with overlap
     ethr =  8.52E-08,  avg # of iterations =  2.0

     negative rho (up, down):  1.172E-03 2.244E-02

     total cpu time spent up to now is     7952.9 secs

     total energy              =    -951.88870066 Ry
     Harris-Foulkes estimate   =    -951.88868506 Ry
     estimated scf accuracy    <       0.00013883 Ry

     total magnetization       =    -0.00 Bohr mag/cell
     absolute magnetization    =     0.02 Bohr mag/cell

     iteration # 86     ecut=    70.00 Ry     beta= 0.70
     Davidson diagonalization with overlap
     ethr =  6.43E-08,  avg # of iterations =  2.0

     negative rho (up, down):  1.157E-03 1.421E-02

     total cpu time spent up to now is     8045.0 secs

     total energy              =    -951.88872678 Ry
     Harris-Foulkes estimate   =    -951.88873676 Ry
     estimated scf accuracy    <       0.00025718 Ry

     total magnetization       =     0.00 Bohr mag/cell
     absolute magnetization    =     0.02 Bohr mag/cell

     iteration # 87     ecut=    70.00 Ry     beta= 0.70
     Davidson diagonalization with overlap
     ethr =  6.43E-08,  avg # of iterations =  2.0

     negative rho (up, down):  1.163E-03 4.859E-02

     total cpu time spent up to now is     8136.0 secs

     total energy              =    -951.88868575 Ry
     Harris-Foulkes estimate   =    -951.88874603 Ry
     estimated scf accuracy    <       0.00118501 Ry

     total magnetization       =    -0.00 Bohr mag/cell
     absolute magnetization    =     0.05 Bohr mag/cell

     iteration # 88     ecut=    70.00 Ry     beta= 0.70
     Davidson diagonalization with overlap
     ethr =  6.43E-08,  avg # of iterations =  2.0

     negative rho (up, down):  1.170E-03 3.084E-02

     total cpu time spent up to now is     8230.6 secs

     total energy              =    -951.88874136 Ry
     Harris-Foulkes estimate   =    -951.88870504 Ry
     estimated scf accuracy    <       0.00040346 Ry

     total magnetization       =     0.00 Bohr mag/cell
     absolute magnetization    =     0.03 Bohr mag/cell

     iteration # 89     ecut=    70.00 Ry     beta= 0.70
     Davidson diagonalization with overlap
     ethr =  6.43E-08,  avg # of iterations =  3.0

     negative rho (up, down):  1.213E-03 1.160E-01

     total cpu time spent up to now is     8331.7 secs

     total energy              =    -951.88841153 Ry
     Harris-Foulkes estimate   =    -951.88883183 Ry
     estimated scf accuracy    <       0.00762411 Ry

     total magnetization       =    -0.00 Bohr mag/cell
     absolute magnetization    =     0.13 Bohr mag/cell

     iteration # 90     ecut=    70.00 Ry     beta= 0.70
     Davidson diagonalization with overlap
     ethr =  6.43E-08,  avg # of iterations =  3.0

     negative rho (up, down):  1.186E-03 5.164E-02

     total cpu time spent up to now is     8436.7 secs

     total energy              =    -951.88870048 Ry
     Harris-Foulkes estimate   =    -951.88851080 Ry
     estimated scf accuracy    <       0.00026419 Ry

     total magnetization       =     0.00 Bohr mag/cell
     absolute magnetization    =     0.02 Bohr mag/cell

     iteration # 91     ecut=    70.00 Ry     beta= 0.70
     Davidson diagonalization with overlap
     ethr =  6.43E-08,  avg # of iterations =  3.0

     negative rho (up, down):  1.187E-03 1.208E-01

     total cpu time spent up to now is     8539.6 secs

     total energy              =    -951.88836979 Ry
     Harris-Foulkes estimate   =    -951.88880456 Ry
     estimated scf accuracy    <       0.00824412 Ry

     total magnetization       =     0.00 Bohr mag/cell
     absolute magnetization    =     0.14 Bohr mag/cell

     iteration # 92     ecut=    70.00 Ry     beta= 0.70
     Davidson diagonalization with overlap
     ethr =  6.43E-08,  avg # of iterations =  3.0

     negative rho (up, down):  1.170E-03 4.330E-02

     total cpu time spent up to now is     8644.6 secs

     total energy              =    -951.88868782 Ry
     Harris-Foulkes estimate   =    -951.88849804 Ry
     estimated scf accuracy    <       0.00013420 Ry

     total magnetization       =     0.00 Bohr mag/cell
     absolute magnetization    =     0.01 Bohr mag/cell

     iteration # 93     ecut=    70.00 Ry     beta= 0.70
     Davidson diagonalization with overlap
     ethr =  6.21E-08,  avg # of iterations =  3.0

     negative rho (up, down):  1.300E-03 2.995E-02

     total cpu time spent up to now is     8743.1 secs

     total energy              =    -951.88863296 Ry
     Harris-Foulkes estimate   =    -951.88872289 Ry
     estimated scf accuracy    <       0.00120534 Ry

     total magnetization       =    -0.00 Bohr mag/cell
     absolute magnetization    =     0.02 Bohr mag/cell

     iteration # 94     ecut=    70.00 Ry     beta= 0.70
     Davidson diagonalization with overlap
     ethr =  6.21E-08,  avg # of iterations =  2.5

     negative rho (up, down):  1.175E-03 1.143E-02

     total cpu time spent up to now is     8838.4 secs

     total energy              =    -951.88871260 Ry
     Harris-Foulkes estimate   =    -951.88866209 Ry
     estimated scf accuracy    <       0.00014513 Ry

     total magnetization       =     0.00 Bohr mag/cell
     absolute magnetization    =     0.01 Bohr mag/cell

     iteration # 95     ecut=    70.00 Ry     beta= 0.70
     Davidson diagonalization with overlap
     ethr =  6.21E-08,  avg # of iterations =  2.5

     negative rho (up, down):  1.158E-03 5.472E-03

     total cpu time spent up to now is     8932.5 secs

     total energy              =    -951.88871929 Ry
     Harris-Foulkes estimate   =    -951.88872726 Ry
     estimated scf accuracy    <       0.00011934 Ry

     total magnetization       =    -0.00 Bohr mag/cell
     absolute magnetization    =     0.01 Bohr mag/cell

     iteration # 96     ecut=    70.00 Ry     beta= 0.70
     Davidson diagonalization with overlap
     ethr =  5.53E-08,  avg # of iterations =  2.0

     negative rho (up, down):  1.157E-03 4.941E-03

     total cpu time spent up to now is     9022.3 secs

     total energy              =    -951.88873039 Ry
     Harris-Foulkes estimate   =    -951.88872832 Ry
     estimated scf accuracy    <       0.00002112 Ry

     total magnetization       =     0.00 Bohr mag/cell
     absolute magnetization    =     0.01 Bohr mag/cell

     iteration # 97     ecut=    70.00 Ry     beta= 0.70
     Davidson diagonalization with overlap
     ethr =  9.78E-09,  avg # of iterations =  3.0

     negative rho (up, down):  1.161E-03 5.480E-02

     total cpu time spent up to now is     9124.7 secs

     total energy              =    -951.88866138 Ry
     Harris-Foulkes estimate   =    -951.88875261 Ry
     estimated scf accuracy    <       0.00154368 Ry

     total magnetization       =     0.00 Bohr mag/cell
     absolute magnetization    =     0.06 Bohr mag/cell

     iteration # 98     ecut=    70.00 Ry     beta= 0.70
     Davidson diagonalization with overlap
     ethr =  9.78E-09,  avg # of iterations =  3.0

     negative rho (up, down):  1.159E-03 1.924E-02

     total cpu time spent up to now is     9236.5 secs

     total energy              =    -951.88872140 Ry
     Harris-Foulkes estimate   =    -951.88868493 Ry
     estimated scf accuracy    <       0.00002842 Ry

     total magnetization       =    -0.00 Bohr mag/cell
     absolute magnetization    =     0.01 Bohr mag/cell

     iteration # 99     ecut=    70.00 Ry     beta= 0.70
     Davidson diagonalization with overlap
     ethr =  9.78E-09,  avg # of iterations =  2.0

     negative rho (up, down):  1.158E-03 1.816E-02

     total cpu time spent up to now is     9334.9 secs

     total energy              =    -951.88872487 Ry
     Harris-Foulkes estimate   =    -951.88872396 Ry
     estimated scf accuracy    <       0.00012808 Ry

     total magnetization       =     0.00 Bohr mag/cell
     absolute magnetization    =     0.02 Bohr mag/cell

     iteration #100     ecut=    70.00 Ry     beta= 0.70
     Davidson diagonalization with overlap
     ethr =  9.78E-09,  avg # of iterations =  2.0

     negative rho (up, down):  1.161E-03 1.923E-02

     Magnetic moment per site:
     atom:    1    charge:    0.2108    magn:   -0.0000    constr:    0.0000
     atom:    2    charge:    0.2107    magn:    0.0000    constr:    0.0000
     atom:    3    charge:    1.7155    magn:    0.0000    constr:    0.0000
     atom:    4    charge:    1.7152    magn:   -0.0000    constr:    0.0000
     atom:    5    charge:    1.7168    magn:    0.0000    constr:    0.0000
     atom:    6    charge:    1.7146    magn:   -0.0000    constr:    0.0000
     atom:    7    charge:    1.7168    magn:    0.0000    constr:    0.0000
     atom:    8    charge:    1.7152    magn:   -0.0000    constr:    0.0000
     atom:    9    charge:    1.7155    magn:    0.0000    constr:    0.0000
     atom:   10    charge:    1.7177    magn:   -0.0000    constr:    0.0000
     atom:   11    charge:    1.7156    magn:    0.0000    constr:    0.0000
     atom:   12    charge:    1.7177    magn:   -0.0000    constr:    0.0000
     atom:   13    charge:    1.7156    magn:    0.0000    constr:    0.0000
     atom:   14    charge:    1.7176    magn:   -0.0000    constr:    0.0000
     atom:   15    charge:    1.7118    magn:    0.0000    constr:    0.0000
     atom:   16    charge:    1.7114    magn:   -0.0000    constr:    0.0000
     atom:   17    charge:    1.7207    magn:    0.0000    constr:    0.0000
     atom:   18    charge:    1.7114    magn:   -0.0000    constr:    0.0000
     atom:   19    charge:    1.7118    magn:    0.0000    constr:    0.0000
     atom:   20    charge:    1.7176    magn:   -0.0000    constr:    0.0000
     atom:   21    charge:    1.7156    magn:    0.0000    constr:    0.0000
     atom:   22    charge:    1.7177    magn:   -0.0000    constr:    0.0000
     atom:   23    charge:    1.7155    magn:    0.0000    constr:    0.0000
     atom:   24    charge:    1.7152    magn:   -0.0000    constr:    0.0000
     atom:   25    charge:    1.7117    magn:    0.0000    constr:    0.0000
     atom:   26    charge:    1.7113    magn:   -0.0000    constr:    0.0000
     atom:   27    charge:    1.8183    magn:    0.0000    constr:    0.0000
     atom:   28    charge:   13.4052    magn:    0.0000    constr:    0.0000
     atom:   29    charge:    1.8183    magn:    0.0000    constr:    0.0000
     atom:   30    charge:    1.7114    magn:   -0.0000    constr:    0.0000
     atom:   31    charge:    1.7118    magn:    0.0000    constr:    0.0000
     atom:   32    charge:    1.7152    magn:   -0.0000    constr:    0.0000
     atom:   33    charge:    1.7168    magn:    0.0000    constr:    0.0000
     atom:   34    charge:    1.7154    magn:   -0.0000    constr:    0.0000
     atom:   35    charge:    1.7168    magn:    0.0000    constr:    0.0000
     atom:   36    charge:    1.7146    magn:   -0.0000    constr:    0.0000
     atom:   37    charge:    1.7204    magn:    0.0000    constr:    0.0000
     atom:   38    charge:    1.7113    magn:   -0.0000    constr:    0.0000
     atom:   39    charge:    1.8183    magn:    0.0000    constr:    0.0000
     atom:   40    charge:    1.7114    magn:   -0.0000    constr:    0.0000
     atom:   41    charge:    1.7206    magn:    0.0000    constr:    0.0000
     atom:   42    charge:    1.7146    magn:   -0.0000    constr:    0.0000
     atom:   43    charge:    1.7168    magn:    0.0000    constr:    0.0000
     atom:   44    charge:    1.7154    magn:   -0.0000    constr:    0.0000
     atom:   45    charge:    1.7212    magn:    0.0000    constr:    0.0000
     atom:   46    charge:    1.7154    magn:   -0.0000    constr:    0.0000
     atom:   47    charge:    1.7168    magn:    0.0000    constr:    0.0000
     atom:   48    charge:    1.7152    magn:   -0.0000    constr:    0.0000
     atom:   49    charge:    1.7118    magn:    0.0000    constr:    0.0000
     atom:   50    charge:    1.7176    magn:   -0.0000    constr:    0.0000
     atom:   51    charge:    1.7118    magn:    0.0000    constr:    0.0000
     atom:   52    charge:    1.7152    magn:   -0.0000    constr:    0.0000

     total cpu time spent up to now is     9428.8 secs

     total energy              =    -951.88871989 Ry
     Harris-Foulkes estimate   =    -951.88872653 Ry
     estimated scf accuracy    <       0.00012977 Ry

     total magnetization       =    -0.00 Bohr mag/cell
     absolute magnetization    =     0.02 Bohr mag/cell

     iteration #101     ecut=    70.00 Ry     beta= 0.70
     Davidson diagonalization with overlap
     ethr =  9.78E-09,  avg # of iterations =  2.0

     negative rho (up, down):  1.157E-03 2.443E-02

     total cpu time spent up to now is     9531.6 secs

     total energy              =    -951.88871871 Ry
     Harris-Foulkes estimate   =    -951.88872399 Ry
     estimated scf accuracy    <       0.00020125 Ry

     total magnetization       =    -0.00 Bohr mag/cell
     absolute magnetization    =     0.02 Bohr mag/cell

     iteration #102     ecut=    70.00 Ry     beta= 0.70
     Davidson diagonalization with overlap
     ethr =  9.78E-09,  avg # of iterations =  2.0

     negative rho (up, down):  1.159E-03 1.355E-02

     total cpu time spent up to now is     9632.8 secs

     total energy              =    -951.88872346 Ry
     Harris-Foulkes estimate   =    -951.88872187 Ry
     estimated scf accuracy    <       0.00004808 Ry

     total magnetization       =     0.00 Bohr mag/cell
     absolute magnetization    =     0.01 Bohr mag/cell

     iteration #103     ecut=    70.00 Ry     beta= 0.70
     Davidson diagonalization with overlap
     ethr =  9.78E-09,  avg # of iterations =  2.0

     negative rho (up, down):  1.159E-03 7.262E-03

     total cpu time spent up to now is     9728.6 secs

     total energy              =    -951.88872523 Ry
     Harris-Foulkes estimate   =    -951.88872528 Ry
     estimated scf accuracy    <       0.00002461 Ry

     total magnetization       =    -0.00 Bohr mag/cell
     absolute magnetization    =     0.00 Bohr mag/cell

     iteration #104     ecut=    70.00 Ry     beta= 0.70
     Davidson diagonalization with overlap
     ethr =  9.78E-09,  avg # of iterations =  2.5

     negative rho (up, down):  1.171E-03 1.092E-02

     total cpu time spent up to now is     9826.7 secs

     total energy              =    -951.88871648 Ry
     Harris-Foulkes estimate   =    -951.88873007 Ry
     estimated scf accuracy    <       0.00019592 Ry

     total magnetization       =    -0.00 Bohr mag/cell
     absolute magnetization    =     0.01 Bohr mag/cell

     iteration #105     ecut=    70.00 Ry     beta= 0.70
     Davidson diagonalization with overlap
     ethr =  9.78E-09,  avg # of iterations =  2.5

     negative rho (up, down):  1.158E-03 3.436E-03

     total cpu time spent up to now is     9929.0 secs

     total energy              =    -951.88872635 Ry
     Harris-Foulkes estimate   =    -951.88872071 Ry
     estimated scf accuracy    <       0.00000473 Ry

     total magnetization       =    -0.00 Bohr mag/cell
     absolute magnetization    =     0.00 Bohr mag/cell

     iteration #106     ecut=    70.00 Ry     beta= 0.70
     Davidson diagonalization with overlap
     ethr =  2.19E-09,  avg # of iterations =  3.0

     negative rho (up, down):  1.156E-03 3.903E-03

     total cpu time spent up to now is    10034.2 secs

     total energy              =    -951.88872721 Ry
     Harris-Foulkes estimate   =    -951.88872829 Ry
     estimated scf accuracy    <       0.00001427 Ry

     total magnetization       =     0.00 Bohr mag/cell
     absolute magnetization    =     0.01 Bohr mag/cell

     iteration #107     ecut=    70.00 Ry     beta= 0.70
     Davidson diagonalization with overlap
     ethr =  2.19E-09,  avg # of iterations =  2.0

     negative rho (up, down):  1.156E-03 5.802E-03

     total cpu time spent up to now is    10127.0 secs

     total energy              =    -951.88872771 Ry
     Harris-Foulkes estimate   =    -951.88872790 Ry
     estimated scf accuracy    <       0.00001414 Ry

     total magnetization       =    -0.00 Bohr mag/cell
     absolute magnetization    =     0.01 Bohr mag/cell

     iteration #108     ecut=    70.00 Ry     beta= 0.70
     Davidson diagonalization with overlap
     ethr =  2.19E-09,  avg # of iterations =  2.0

     negative rho (up, down):  1.156E-03 6.111E-03

     total cpu time spent up to now is    10222.1 secs

     total energy              =    -951.88872759 Ry
     Harris-Foulkes estimate   =    -951.88872795 Ry
     estimated scf accuracy    <       0.00001581 Ry

     total magnetization       =     0.00 Bohr mag/cell
     absolute magnetization    =     0.01 Bohr mag/cell

     iteration #109     ecut=    70.00 Ry     beta= 0.70
     Davidson diagonalization with overlap
     ethr =  2.19E-09,  avg # of iterations =  2.0

     negative rho (up, down):  1.156E-03 9.607E-03

     total cpu time spent up to now is    10319.8 secs

     total energy              =    -951.88872649 Ry
     Harris-Foulkes estimate   =    -951.88872796 Ry
     estimated scf accuracy    <       0.00003465 Ry

     total magnetization       =    -0.00 Bohr mag/cell
     absolute magnetization    =     0.01 Bohr mag/cell

     iteration #110     ecut=    70.00 Ry     beta= 0.70
     Davidson diagonalization with overlap
     ethr =  2.19E-09,  avg # of iterations =  2.0

     negative rho (up, down):  1.156E-03 6.085E-03

     total cpu time spent up to now is    10413.0 secs

     total energy              =    -951.88872752 Ry
     Harris-Foulkes estimate   =    -951.88872670 Ry
     estimated scf accuracy    <       0.00000732 Ry

     total magnetization       =    -0.00 Bohr mag/cell
     absolute magnetization    =     0.00 Bohr mag/cell

     iteration #111     ecut=    70.00 Ry     beta= 0.70
     Davidson diagonalization with overlap
     ethr =  2.19E-09,  avg # of iterations =  3.0

     negative rho (up, down):  1.156E-03 2.046E-02

     total cpu time spent up to now is    10516.6 secs

     total energy              =    -951.88871979 Ry
     Harris-Foulkes estimate   =    -951.88873021 Ry
     estimated scf accuracy    <       0.00018350 Ry

     total magnetization       =     0.00 Bohr mag/cell
     absolute magnetization    =     0.02 Bohr mag/cell

     iteration #112     ecut=    70.00 Ry     beta= 0.70
     Davidson diagonalization with overlap
     ethr =  2.19E-09,  avg # of iterations =  3.0

     negative rho (up, down):  1.157E-03 7.633E-03

     total cpu time spent up to now is    10619.1 secs

     total energy              =    -951.88872657 Ry
     Harris-Foulkes estimate   =    -951.88872235 Ry
     estimated scf accuracy    <       0.00000654 Ry

     total magnetization       =     0.00 Bohr mag/cell
     absolute magnetization    =     0.00 Bohr mag/cell

     iteration #113     ecut=    70.00 Ry     beta= 0.70
     Davidson diagonalization with overlap
     ethr =  2.19E-09,  avg # of iterations =  2.5

     negative rho (up, down):  1.160E-03 5.977E-03

     total cpu time spent up to now is    10722.3 secs

     total energy              =    -951.88872512 Ry
     Harris-Foulkes estimate   =    -951.88872769 Ry
     estimated scf accuracy    <       0.00003873 Ry

     total magnetization       =    -0.00 Bohr mag/cell
     absolute magnetization    =     0.01 Bohr mag/cell

     iteration #114     ecut=    70.00 Ry     beta= 0.70
     Davidson diagonalization with overlap
     ethr =  2.19E-09,  avg # of iterations =  2.5

     negative rho (up, down):  1.156E-03 2.396E-03

     total cpu time spent up to now is    10819.8 secs

     total energy              =    -951.88872750 Ry
     Harris-Foulkes estimate   =    -951.88872598 Ry
     estimated scf accuracy    <       0.00000457 Ry

     total magnetization       =    -0.00 Bohr mag/cell
     absolute magnetization    =     0.00 Bohr mag/cell

     iteration #115     ecut=    70.00 Ry     beta= 0.70
     Davidson diagonalization with overlap
     ethr =  2.12E-09,  avg # of iterations =  2.0

     negative rho (up, down):  1.156E-03 3.446E-03

     total cpu time spent up to now is    10915.7 secs

     total energy              =    -951.88872749 Ry
     Harris-Foulkes estimate   =    -951.88872804 Ry
     estimated scf accuracy    <       0.00000898 Ry

     total magnetization       =     0.00 Bohr mag/cell
     absolute magnetization    =     0.00 Bohr mag/cell

     iteration #116     ecut=    70.00 Ry     beta= 0.70
     Davidson diagonalization with overlap
     ethr =  2.12E-09,  avg # of iterations =  2.0

     negative rho (up, down):  1.155E-03 8.368E-05

     Magnetic moment per site:
     atom:    1    charge:    0.2108    magn:   -0.0000    constr:    0.0000
     atom:    2    charge:    0.2108    magn:    0.0000    constr:    0.0000
     atom:    3    charge:    1.7155    magn:    0.0000    constr:    0.0000
     atom:    4    charge:    1.7153    magn:   -0.0000    constr:    0.0000
     atom:    5    charge:    1.7168    magn:    0.0000    constr:    0.0000
     atom:    6    charge:    1.7146    magn:   -0.0000    constr:    0.0000
     atom:    7    charge:    1.7168    magn:    0.0000    constr:    0.0000
     atom:    8    charge:    1.7152    magn:   -0.0000    constr:    0.0000
     atom:    9    charge:    1.7155    magn:    0.0000    constr:    0.0000
     atom:   10    charge:    1.7177    magn:   -0.0000    constr:    0.0000
     atom:   11    charge:    1.7156    magn:    0.0000    constr:    0.0000
     atom:   12    charge:    1.7177    magn:   -0.0000    constr:    0.0000
     atom:   13    charge:    1.7156    magn:    0.0000    constr:    0.0000
     atom:   14    charge:    1.7176    magn:   -0.0000    constr:    0.0000
     atom:   15    charge:    1.7118    magn:    0.0000    constr:    0.0000
     atom:   16    charge:    1.7114    magn:   -0.0000    constr:    0.0000
     atom:   17    charge:    1.7207    magn:    0.0000    constr:    0.0000
     atom:   18    charge:    1.7114    magn:   -0.0000    constr:    0.0000
     atom:   19    charge:    1.7118    magn:    0.0000    constr:    0.0000
     atom:   20    charge:    1.7176    magn:   -0.0000    constr:    0.0000
     atom:   21    charge:    1.7156    magn:    0.0000    constr:    0.0000
     atom:   22    charge:    1.7177    magn:   -0.0000    constr:    0.0000
     atom:   23    charge:    1.7155    magn:    0.0000    constr:    0.0000
     atom:   24    charge:    1.7152    magn:   -0.0000    constr:    0.0000
     atom:   25    charge:    1.7117    magn:    0.0000    constr:    0.0000
     atom:   26    charge:    1.7113    magn:   -0.0000    constr:    0.0000
     atom:   27    charge:    1.8184    magn:    0.0000    constr:    0.0000
     atom:   28    charge:   13.4050    magn:    0.0000    constr:    0.0000
     atom:   29    charge:    1.8183    magn:    0.0000    constr:    0.0000
     atom:   30    charge:    1.7114    magn:   -0.0000    constr:    0.0000
     atom:   31    charge:    1.7118    magn:    0.0000    constr:    0.0000
     atom:   32    charge:    1.7152    magn:   -0.0000    constr:    0.0000
     atom:   33    charge:    1.7168    magn:    0.0000    constr:    0.0000
     atom:   34    charge:    1.7154    magn:   -0.0000    constr:    0.0000
     atom:   35    charge:    1.7168    magn:    0.0000    constr:    0.0000
     atom:   36    charge:    1.7146    magn:   -0.0000    constr:    0.0000
     atom:   37    charge:    1.7204    magn:    0.0000    constr:    0.0000
     atom:   38    charge:    1.7113    magn:   -0.0000    constr:    0.0000
     atom:   39    charge:    1.8183    magn:    0.0000    constr:    0.0000
     atom:   40    charge:    1.7113    magn:   -0.0000    constr:    0.0000
     atom:   41    charge:    1.7206    magn:    0.0000    constr:    0.0000
     atom:   42    charge:    1.7146    magn:   -0.0000    constr:    0.0000
     atom:   43    charge:    1.7168    magn:    0.0000    constr:    0.0000
     atom:   44    charge:    1.7154    magn:   -0.0000    constr:    0.0000
     atom:   45    charge:    1.7212    magn:    0.0000    constr:    0.0000
     atom:   46    charge:    1.7154    magn:   -0.0000    constr:    0.0000
     atom:   47    charge:    1.7168    magn:    0.0000    constr:    0.0000
     atom:   48    charge:    1.7152    magn:   -0.0000    constr:    0.0000
     atom:   49    charge:    1.7118    magn:    0.0000    constr:    0.0000
     atom:   50    charge:    1.7176    magn:   -0.0000    constr:    0.0000
     atom:   51    charge:    1.7118    magn:    0.0000    constr:    0.0000
     atom:   52    charge:    1.7152    magn:   -0.0000    constr:    0.0000

     total cpu time spent up to now is    11006.6 secs

     End of self-consistent calculation

 ------ SPIN UP ------------


          k = 0.0000 0.0000 0.0000 ( 87777 PWs)   bands (ev):

  -107.8947 -69.0648 -69.0635 -66.9767 -19.8173 -18.9980 -18.9968 -18.8802
   -18.8799 -18.7956 -18.7249 -17.1537 -17.1532 -17.1197 -17.0700 -17.0694
   -16.7445 -16.3030 -16.3027 -16.1568 -16.1565 -16.1435 -15.6597 -14.3000
   -14.2995 -14.1403 -14.0081 -14.0078 -13.5044 -13.1196 -13.1194 -13.0680
   -12.8914 -12.8911 -12.4911 -12.0650 -12.0646 -11.7030 -11.5587 -11.5586
   -10.9237 -10.4189 -10.4184  -9.5663  -9.3564  -9.3562  -9.2182  -9.2031
    -9.2029  -9.1883  -8.9427  -8.9426  -8.5826  -8.5822  -8.4455  -7.9459
    -7.8922  -7.8407  -7.8292  -7.6532  -7.5320  -7.5318  -7.4388  -7.4386
    -6.8521  -6.8361  -6.8139  -6.7980  -6.7372  -6.6098  -6.6094  -6.5469
    -6.5422  -6.5418  -6.5079  -6.4511  -6.4145  -6.3940  -6.3409  -6.2782
    -6.2781  -5.5377  -5.5374  -5.0214  -4.9408  -4.8331  -4.8328  -4.7503
    -4.7085  -4.7038  -4.4157  -4.3902  -4.3868  -3.8286  -3.8268  -3.7565
    -3.7501  -3.7499  -3.6908  -3.4109  -3.4056  -3.3370  -1.8836  -1.7986
    -1.7983  -1.5826  -1.5796  -1.1464   0.1233   0.1266   0.9121   0.9706
     0.9710   1.2212   1.2225   1.5606   2.5032   2.8111   2.8115   2.8618
     3.0493   3.0504   3.4048   3.4804   3.6371   3.7311   3.7367   3.7628
     3.9339   4.2677

     occupation numbers 
     1.0000   1.0000   1.0000   1.0000   1.0000   1.0000   1.0000   1.0000
     1.0000   1.0000   1.0000   1.0000   1.0000   1.0000   1.0000   1.0000
     1.0000   1.0000   1.0000   1.0000   1.0000   1.0000   1.0000   1.0000
     1.0000   1.0000   1.0000   1.0000   1.0000   1.0000   1.0000   1.0000
     1.0000   1.0000   1.0000   1.0000   1.0000   1.0000   1.0000   1.0000
     1.0000   1.0000   1.0000   1.0000   1.0000   1.0000   1.0000   1.0000
     1.0000   1.0000   1.0000   1.0000   1.0000   1.0000   1.0000   1.0000
     1.0000   1.0000   1.0000   1.0000   1.0000   1.0000   1.0000   1.0000
     1.0000   1.0000   1.0000   1.0000   1.0000   1.0000   1.0000   1.0000
     1.0000   1.0000   1.0000   1.0000   1.0000   1.0000   1.0000   1.0000
     1.0000   1.0000   1.0000   1.0000   1.0000   1.0000   1.0000   1.0000
     1.0000   1.0000   1.0000   1.0000   1.0000   1.0000   1.0000   1.0000
     1.0000   1.0000   1.0000   1.0000   1.0000   1.0000   1.0000   1.0000
     1.0000   1.0000   1.0000   1.0000   0.0000   0.0000   0.0000   0.0000
     0.0000   0.0000   0.0000   0.0000   0.0000   0.0000   0.0000   0.0000
     0.0000   0.0000   0.0000   0.0000   0.0000   0.0000   0.0000   0.0000
     0.0000   0.0000

 ------ SPIN DOWN ----------


          k = 0.0000 0.0000 0.0000 ( 87777 PWs)   bands (ev):

  -107.8947 -69.0648 -69.0635 -66.9767 -19.8173 -18.9980 -18.9968 -18.8802
   -18.8799 -18.7956 -18.7249 -17.1537 -17.1531 -17.1197 -17.0700 -17.0694
   -16.7445 -16.3030 -16.3027 -16.1568 -16.1565 -16.1435 -15.6597 -14.3000
   -14.2995 -14.1403 -14.0081 -14.0078 -13.5044 -13.1196 -13.1194 -13.0680
   -12.8914 -12.8911 -12.4911 -12.0650 -12.0646 -11.7030 -11.5587 -11.5586
   -10.9237 -10.4189 -10.4184  -9.5663  -9.3564  -9.3562  -9.2182  -9.2031
    -9.2029  -9.1883  -8.9427  -8.9426  -8.5826  -8.5822  -8.4455  -7.9459
    -7.8922  -7.8407  -7.8292  -7.6532  -7.5320  -7.5318  -7.4388  -7.4386
    -6.8521  -6.8361  -6.8139  -6.7980  -6.7372  -6.6098  -6.6094  -6.5469
    -6.5422  -6.5418  -6.5079  -6.4511  -6.4145  -6.3940  -6.3409  -6.2783
    -6.2781  -5.5377  -5.5374  -5.0214  -4.9408  -4.8331  -4.8328  -4.7503
    -4.7085  -4.7038  -4.4157  -4.3902  -4.3868  -3.8286  -3.8268  -3.7565
    -3.7501  -3.7499  -3.6908  -3.4109  -3.4056  -3.3369  -1.8836  -1.7986
    -1.7983  -1.5826  -1.5796  -1.1464   0.1235   0.1264   0.9121   0.9706
     0.9710   1.2212   1.2225   1.5606   2.5032   2.8111   2.8115   2.8618
     3.0493   3.0504   3.4048   3.4804   3.6370   3.7311   3.7369   3.7629
     3.9339   4.2678

     occupation numbers 
     1.0000   1.0000   1.0000   1.0000   1.0000   1.0000   1.0000   1.0000
     1.0000   1.0000   1.0000   1.0000   1.0000   1.0000   1.0000   1.0000
     1.0000   1.0000   1.0000   1.0000   1.0000   1.0000   1.0000   1.0000
     1.0000   1.0000   1.0000   1.0000   1.0000   1.0000   1.0000   1.0000
     1.0000   1.0000   1.0000   1.0000   1.0000   1.0000   1.0000   1.0000
     1.0000   1.0000   1.0000   1.0000   1.0000   1.0000   1.0000   1.0000
     1.0000   1.0000   1.0000   1.0000   1.0000   1.0000   1.0000   1.0000
     1.0000   1.0000   1.0000   1.0000   1.0000   1.0000   1.0000   1.0000
     1.0000   1.0000   1.0000   1.0000   1.0000   1.0000   1.0000   1.0000
     1.0000   1.0000   1.0000   1.0000   1.0000   1.0000   1.0000   1.0000
     1.0000   1.0000   1.0000   1.0000   1.0000   1.0000   1.0000   1.0000
     1.0000   1.0000   1.0000   1.0000   1.0000   1.0000   1.0000   1.0000
     1.0000   1.0000   1.0000   1.0000   1.0000   1.0000   1.0000   1.0000
     1.0000   1.0000   1.0000   1.0000   0.0000   0.0000   0.0000   0.0000
     0.0000   0.0000   0.0000   0.0000   0.0000   0.0000   0.0000   0.0000
     0.0000   0.0000   0.0000   0.0000   0.0000   0.0000   0.0000   0.0000
     0.0000   0.0000

     the Fermi energy is    -0.9651 ev

!    total energy              =    -951.88872807 Ry
     Harris-Foulkes estimate   =    -951.88872785 Ry
     estimated scf accuracy    <       0.00000091 Ry

     The total energy is the sum of the following terms:

     one-electron contribution =   -2979.20033291 Ry
     hartree contribution      =    1532.32210750 Ry
     xc contribution           =    -265.72363814 Ry
     ewald contribution        =     760.71313548 Ry
     smearing contrib. (-TS)   =       0.00000000 Ry

     total magnetization       =     0.00 Bohr mag/cell
     absolute magnetization    =     0.00 Bohr mag/cell

     convergence has been achieved in 116 iterations

     Writing output data file rotate-45.save/

     init_run     :     69.33s CPU     70.52s WALL (       1 calls)
     electrons    :  10738.77s CPU  10935.11s WALL (       1 calls)

     Called by init_run:
     wfcinit      :     35.46s CPU     35.70s WALL (       1 calls)
     wfcinit:atom :      0.05s CPU      0.08s WALL (       2 calls)
     wfcinit:wfcr :     35.06s CPU     35.22s WALL (       2 calls)
     potinit      :     14.11s CPU     14.52s WALL (       1 calls)
     hinit0       :     12.30s CPU     12.34s WALL (       1 calls)

     Called by electrons:
     c_bands      :   6802.63s CPU   6841.22s WALL (     116 calls)
     sum_band     :   2247.85s CPU   2312.98s WALL (     116 calls)
     v_of_rho     :    802.02s CPU    838.44s WALL (     117 calls)
     v_h          :      8.30s CPU      8.50s WALL (     117 calls)
     v_xc         :    793.71s CPU    829.94s WALL (     117 calls)
     newd         :    822.41s CPU    878.16s WALL (     117 calls)
     mix_rho      :     51.84s CPU     52.57s WALL (     116 calls)

     Called by c_bands:
     init_us_2    :     20.28s CPU     20.34s WALL (     466 calls)
     cegterg      :   6751.69s CPU   6790.05s WALL (     232 calls)

     Called by sum_band:
     sum_band:bec :      0.19s CPU      0.19s WALL (     232 calls)
     addusdens    :   1415.95s CPU   1476.02s WALL (     116 calls)

     Called by *egterg:
     h_psi        :   3415.78s CPU   3441.51s WALL (     854 calls)
     s_psi        :   1120.69s CPU   1121.33s WALL (     854 calls)
     g_psi        :      4.21s CPU      4.22s WALL (     620 calls)
     cdiaghg      :     57.55s CPU     57.57s WALL (     852 calls)
     cegterg:over :    879.59s CPU    880.07s WALL (     620 calls)
     cegterg:upda :    548.48s CPU    551.89s WALL (     620 calls)
     cegterg:last :    395.69s CPU    395.82s WALL (     232 calls)

     Called by h_psi:
     h_psi:pot    :   3411.62s CPU   3432.65s WALL (     854 calls)
     h_psi:calbec :   1110.47s CPU   1111.10s WALL (     854 calls)
     vloc_psi     :   1181.62s CPU   1201.56s WALL (     854 calls)
     add_vuspsi   :   1119.51s CPU   1119.99s WALL (     854 calls)

     General routines
     calbec       :   1597.62s CPU   1598.49s WALL (    1086 calls)
     fft          :    457.25s CPU    471.14s WALL (    8769 calls)
     ffts         :      7.97s CPU      8.25s WALL (     466 calls)
     fftw         :   1276.31s CPU   1298.16s WALL (  167574 calls)
     interpolate  :     18.47s CPU     18.94s WALL (     234 calls)

     Parallel routines
     fft_scatt_xy :    315.81s CPU    320.03s WALL (  176809 calls)
     fft_scatt_yz :    572.57s CPU    598.29s WALL (  176809 calls)

     PWSCF        :      3h 0m CPU      3h 3m WALL


   This run was terminated on:  15: 8:21  20Jan2023            

=------------------------------------------------------------------------------=
   JOB DONE.
=------------------------------------------------------------------------------=
