
     Program PWSCF v.6.4.1 starts on 19Jan2023 at 15: 4:47 

     This program is part of the open-source Quantum ESPRESSO suite
     for quantum simulation of materials; please cite
         "P. Giannozzi et al., J. Phys.:Condens. Matter 21 395502 (2009);
         "P. Giannozzi et al., J. Phys.:Condens. Matter 29 465901 (2017);
          URL http://www.quantum-espresso.org", 
     in publications or presentations arising from this work. More details at
     http://www.quantum-espresso.org/quote

     Parallel version (MPI), running on     6 processors

     MPI processes distributed on     1 nodes
     R & G space division:  proc/nbgrp/npool/nimage =       6
     Reading input from rotate-0.in

     Current dimensions of program PWSCF are:
     Max number of different atomic species (ntypx) = 10
     Max number of k-points (npk) =  40000
     Max angular momentum in pseudopotentials (lmaxx) =  3

     IMPORTANT: XC functional enforced from input :
     Exchange-correlation      = RVV10 ( 1  4 13  4 3 0)
     Any further DFT definition will be discarded
     Please, verify this is what you really want

               file H.pbe-rrkjus.UPF: wavefunction(s)  1S renormalized

     Subspace diagonalization in iterative solution of the eigenvalue problem:
     a serial algorithm will be used


     Parallelization info
     --------------------
     sticks:   dense  smooth     PW     G-vecs:    dense   smooth      PW
     Min        3051    1746    432               270999   117096   14629
     Max        3053    1747    437               271001   117099   14630
     Sum       18313   10477   2611              1626001   702581   87777



     bravais-lattice index     =            4
     lattice parameter (alat)  =      23.2937  a.u.
     unit-cell volume          =    8879.8548 (a.u.)^3
     number of atoms/cell      =           52
     number of atomic types    =            3
     number of electrons       =       216.00
     number of Kohn-Sham states=          130
     kinetic-energy cutoff     =      70.0000  Ry
     charge density cutoff     =     490.0000  Ry
     convergence threshold     =      1.0E-06
     mixing beta               =       0.7000
     number of iterations used =            8  plain     mixing
     Exchange-correlation      = RVV10 ( 1  4 13  4 3 0)

     celldm(1)=  23.293684  celldm(2)=   0.000000  celldm(3)=   0.811261
     celldm(4)=   0.000000  celldm(5)=   0.000000  celldm(6)=   0.000000

     crystal axes: (cart. coord. in units of alat)
               a(1) = (   1.000000   0.000000   0.000000 )  
               a(2) = (  -0.500000   0.866025   0.000000 )  
               a(3) = (   0.000000   0.000000   0.811261 )  

     reciprocal axes: (cart. coord. in units 2 pi/alat)
               b(1) = (  1.000000  0.577350 -0.000000 )  
               b(2) = (  0.000000  1.154701  0.000000 )  
               b(3) = (  0.000000 -0.000000  1.232649 )  


     PseudoPot. # 1 for H  read from file:
     /home/cristian/Escritorio/Proyecto_Grafeno/pseudopotenciales/H.pbe-rrkjus.UPF
     MD5 check sum: 7cc9d459525c9a0585f487a71c3c9563
     Pseudo is Ultrasoft, Zval =  1.0
     Generated by new atomic code, or converted to UPF format
     Using radial grid of 1061 points,  2 beta functions with: 
                l(1) =   0
                l(2) =   0
     Q(r) pseudized with 0 coefficients 


     PseudoPot. # 2 for C  read from file:
     /home/cristian/Escritorio/Proyecto_Grafeno/pseudopotenciales/C.pbe-n-rrkjus_psl.1.0.0.UPF
     MD5 check sum: 1fdd950c42eb37d8afe3dd2f8d12311e
     Pseudo is Ultrasoft + core correction, Zval =  4.0
     Generated using "atomic" code by A. Dal Corso v.6.3MaX
     Using radial grid of 1073 points,  4 beta functions with: 
                l(1) =   0
                l(2) =   0
                l(3) =   1
                l(4) =   1
     Q(r) pseudized with 0 coefficients 


     PseudoPot. # 3 for Ni read from file:
     /home/cristian/Escritorio/Proyecto_Grafeno/pseudopotenciales/Ni.pbe-spn-rrkjus_psl.1.0.0.UPF
     MD5 check sum: 8b3fc9aac6dafe35f580d41bb18c3945
     Pseudo is Ultrasoft + core correction, Zval = 18.0
     Generated using "atomic" code by A. Dal Corso v.6.3
     Using radial grid of 1195 points,  6 beta functions with: 
                l(1) =   0
                l(2) =   0
                l(3) =   1
                l(4) =   1
                l(5) =   2
                l(6) =   2
     Q(r) pseudized with 0 coefficients 


     vdW kernel table read from file rVV10_kernel_table
     MD5 check sum: b8e2538accc0c0b3206b45ba4daaba6c

     atomic species   valence    mass     pseudopotential
        H              1.00     1.00794     H ( 1.00)
        C              4.00    12.01070     C ( 1.00)
        Ni            18.00    58.69340     Ni( 1.00)

     Starting magnetic structure 
     atomic species   magnetization
        H            0.500
        C            0.300
        Ni           0.800

     No symmetry found


                                    s                        frac. trans.

      isym =  1     identity                                     

 cryst.   s( 1) = (     1          0          0      )
                  (     0          1          0      )
                  (     0          0          1      )

 cart.    s( 1) = (  1.0000000  0.0000000  0.0000000 )
                  (  0.0000000  1.0000000  0.0000000 )
                  (  0.0000000  0.0000000  1.0000000 )


     point group C_1 (1)    
     there are  1 classes
     the character table:

       E    
A      1.00

     the symmetry operations in each class and the name of the first element:

     E        1
          identity                                               

   Cartesian axes

     site n.     atom                  positions (alat units)
         1           H   tau(   1) = (   0.3305063   0.4041452   0.2433783  )
         2           H   tau(   2) = (   0.2694937   0.4041452   0.2433783  )
         3           C   tau(   3) = (   0.0000000   0.0000000   0.0000000  )
         4           C   tau(   4) = (   0.0000000   0.1154701   0.0000000  )
         5           C   tau(   5) = (  -0.1000000   0.1732051   0.0000000  )
         6           C   tau(   6) = (  -0.1000000   0.2886751   0.0000000  )
         7           C   tau(   7) = (  -0.2000000   0.3464102   0.0000000  )
         8           C   tau(   8) = (  -0.2000000   0.4618802   0.0000000  )
         9           C   tau(   9) = (  -0.3000000   0.5196152   0.0000000  )
        10           C   tau(  10) = (  -0.3000000   0.6350853   0.0000000  )
        11           C   tau(  11) = (  -0.4000000   0.6928203   0.0000000  )
        12           C   tau(  12) = (  -0.4000000   0.8082904   0.0000000  )
        13           C   tau(  13) = (   0.2000000   0.0000000   0.0000000  )
        14           C   tau(  14) = (   0.2000000   0.1154701   0.0000000  )
        15           C   tau(  15) = (   0.1000000   0.1732051   0.0000000  )
        16           C   tau(  16) = (   0.1000000   0.2886751   0.0000000  )
        17           C   tau(  17) = (   0.0000000   0.3464102   0.0000000  )
        18           C   tau(  18) = (   0.0000000   0.4618802   0.0000000  )
        19           C   tau(  19) = (  -0.1000000   0.5196152   0.0000000  )
        20           C   tau(  20) = (  -0.1000000   0.6350853   0.0000000  )
        21           C   tau(  21) = (  -0.2000000   0.6928203   0.0000000  )
        22           C   tau(  22) = (  -0.2000000   0.8082904   0.0000000  )
        23           C   tau(  23) = (   0.4000000   0.0000000   0.0000000  )
        24           C   tau(  24) = (   0.4000000   0.1154701   0.0000000  )
        25           C   tau(  25) = (   0.3000000   0.1732051   0.0000000  )
        26           C   tau(  26) = (   0.3000000   0.2886751   0.0000000  )
        27           C   tau(  27) = (   0.2000000   0.3464102   0.0000000  )
        28           Ni  tau(  28) = (   0.2000000   0.4618802   0.0000000  )
        29           C   tau(  29) = (   0.1000000   0.5196152   0.0000000  )
        30           C   tau(  30) = (   0.1000000   0.6350853   0.0000000  )
        31           C   tau(  31) = (   0.0000000   0.6928203   0.0000000  )
        32           C   tau(  32) = (   0.0000000   0.8082904   0.0000000  )
        33           C   tau(  33) = (   0.6000000   0.0000000   0.0000000  )
        34           C   tau(  34) = (   0.6000000   0.1154701   0.0000000  )
        35           C   tau(  35) = (   0.5000000   0.1732051   0.0000000  )
        36           C   tau(  36) = (   0.5000000   0.2886751   0.0000000  )
        37           C   tau(  37) = (   0.4000000   0.3464102   0.0000000  )
        38           C   tau(  38) = (   0.4000000   0.4618802   0.0000000  )
        39           C   tau(  39) = (   0.3000000   0.5196152   0.0000000  )
        40           C   tau(  40) = (   0.3000000   0.6350853   0.0000000  )
        41           C   tau(  41) = (   0.2000000   0.6928203   0.0000000  )
        42           C   tau(  42) = (   0.2000000   0.8082904   0.0000000  )
        43           C   tau(  43) = (   0.8000000   0.0000000   0.0000000  )
        44           C   tau(  44) = (   0.8000000   0.1154701   0.0000000  )
        45           C   tau(  45) = (   0.7000000   0.1732051   0.0000000  )
        46           C   tau(  46) = (   0.7000000   0.2886751   0.0000000  )
        47           C   tau(  47) = (   0.6000000   0.3464102   0.0000000  )
        48           C   tau(  48) = (   0.6000000   0.4618802   0.0000000  )
        49           C   tau(  49) = (   0.5000000   0.5196152   0.0000000  )
        50           C   tau(  50) = (   0.5000000   0.6350853   0.0000000  )
        51           C   tau(  51) = (   0.4000000   0.6928203   0.0000000  )
        52           C   tau(  52) = (   0.4000000   0.8082904   0.0000000  )

   Crystallographic axes

     site n.     atom                  positions (cryst. coord.)
         1           H   tau(   1) = (  0.5638397  0.4666667  0.3000000  )
         2           H   tau(   2) = (  0.5028270  0.4666667  0.3000000  )
         3           C   tau(   3) = (  0.0000000  0.0000000  0.0000000  )
         4           C   tau(   4) = (  0.0666667  0.1333333  0.0000000  )
         5           C   tau(   5) = (  0.0000000  0.2000000  0.0000000  )
         6           C   tau(   6) = (  0.0666667  0.3333333  0.0000000  )
         7           C   tau(   7) = (  0.0000000  0.4000000  0.0000000  )
         8           C   tau(   8) = (  0.0666667  0.5333333  0.0000000  )
         9           C   tau(   9) = (  0.0000000  0.6000000  0.0000000  )
        10           C   tau(  10) = (  0.0666667  0.7333333  0.0000000  )
        11           C   tau(  11) = (  0.0000000  0.8000000  0.0000000  )
        12           C   tau(  12) = (  0.0666667  0.9333333  0.0000000  )
        13           C   tau(  13) = (  0.2000000  0.0000000  0.0000000  )
        14           C   tau(  14) = (  0.2666667  0.1333333  0.0000000  )
        15           C   tau(  15) = (  0.2000000  0.2000000  0.0000000  )
        16           C   tau(  16) = (  0.2666667  0.3333333  0.0000000  )
        17           C   tau(  17) = (  0.2000000  0.4000000  0.0000000  )
        18           C   tau(  18) = (  0.2666667  0.5333333  0.0000000  )
        19           C   tau(  19) = (  0.2000000  0.6000000  0.0000000  )
        20           C   tau(  20) = (  0.2666667  0.7333333  0.0000000  )
        21           C   tau(  21) = (  0.2000000  0.8000000  0.0000000  )
        22           C   tau(  22) = (  0.2666667  0.9333333  0.0000000  )
        23           C   tau(  23) = (  0.4000000  0.0000000  0.0000000  )
        24           C   tau(  24) = (  0.4666667  0.1333333  0.0000000  )
        25           C   tau(  25) = (  0.4000000  0.2000000  0.0000000  )
        26           C   tau(  26) = (  0.4666667  0.3333333  0.0000000  )
        27           C   tau(  27) = (  0.4000000  0.4000000  0.0000000  )
        28           Ni  tau(  28) = (  0.4666667  0.5333333  0.0000000  )
        29           C   tau(  29) = (  0.4000000  0.6000000  0.0000000  )
        30           C   tau(  30) = (  0.4666667  0.7333333  0.0000000  )
        31           C   tau(  31) = (  0.4000000  0.8000000  0.0000000  )
        32           C   tau(  32) = (  0.4666667  0.9333333  0.0000000  )
        33           C   tau(  33) = (  0.6000000  0.0000000  0.0000000  )
        34           C   tau(  34) = (  0.6666667  0.1333333  0.0000000  )
        35           C   tau(  35) = (  0.6000000  0.2000000  0.0000000  )
        36           C   tau(  36) = (  0.6666667  0.3333333  0.0000000  )
        37           C   tau(  37) = (  0.6000000  0.4000000  0.0000000  )
        38           C   tau(  38) = (  0.6666667  0.5333333  0.0000000  )
        39           C   tau(  39) = (  0.6000000  0.6000000  0.0000000  )
        40           C   tau(  40) = (  0.6666667  0.7333333  0.0000000  )
        41           C   tau(  41) = (  0.6000000  0.8000000  0.0000000  )
        42           C   tau(  42) = (  0.6666667  0.9333333  0.0000000  )
        43           C   tau(  43) = (  0.8000000  0.0000000  0.0000000  )
        44           C   tau(  44) = (  0.8666667  0.1333333  0.0000000  )
        45           C   tau(  45) = (  0.8000000  0.2000000  0.0000000  )
        46           C   tau(  46) = (  0.8666667  0.3333333  0.0000000  )
        47           C   tau(  47) = (  0.8000000  0.4000000  0.0000000  )
        48           C   tau(  48) = (  0.8666667  0.5333333  0.0000000  )
        49           C   tau(  49) = (  0.8000000  0.6000000  0.0000000  )
        50           C   tau(  50) = (  0.8666667  0.7333333  0.0000000  )
        51           C   tau(  51) = (  0.8000000  0.8000000  0.0000000  )
        52           C   tau(  52) = (  0.8666667  0.9333333  0.0000000  )

     number of k points=     1  Marzari-Vanderbilt smearing, width (Ry)=  0.0010
                       cart. coord. in units 2pi/alat
        k(    1) = (   0.0000000   0.0000000   0.0000000), wk =   1.0000000

                       cryst. coord.
        k(    1) = (   0.0000000   0.0000000   0.0000000), wk =   1.0000000

     Dense  grid:  1626001 G-vectors     FFT dimensions: ( 180, 180, 135)

     Smooth grid:   702581 G-vectors     FFT dimensions: ( 125, 125, 108)

     Dynamical RAM for                 wfc:      29.03 MB

     Dynamical RAM for     wfc (w. buffer):      87.10 MB

     Dynamical RAM for           str. fact:      12.41 MB

     Dynamical RAM for           local pot:       0.00 MB

     Dynamical RAM for          nlocal pot:      92.46 MB

     Dynamical RAM for                qrad:      19.73 MB

     Dynamical RAM for          rho,v,vnew:      58.92 MB

     Dynamical RAM for               rhoin:      19.64 MB

     Dynamical RAM for            rho*nmix:     132.32 MB

     Dynamical RAM for           G-vectors:      16.40 MB

     Dynamical RAM for          h,s,v(r/c):      12.38 MB

     Dynamical RAM for          <psi|beta>:       0.82 MB

     Dynamical RAM for                 psi:     116.14 MB

     Dynamical RAM for                hpsi:     116.14 MB

     Dynamical RAM for                spsi:     116.14 MB

     Dynamical RAM for      wfcinit/wfcrot:      93.90 MB

     Dynamical RAM for           addusdens:     975.89 MB

     Estimated static dynamical RAM per process >     489.64 MB

     Estimated max dynamical RAM per process >       1.43 GB

     Estimated total dynamical RAM >       8.59 GB
     Generating pointlists ...
     new r_m :   0.0252 (alat units)  0.5862 (a.u.) for type    1
     new r_m :   0.0476 (alat units)  1.1095 (a.u.) for type    2
     new r_m :   0.0476 (alat units)  1.1095 (a.u.) for type    3

     Check: negative core charge=   -0.000002

     Initial potential from superposition of free atoms

     starting charge  215.80530, renormalised to  216.00000

     negative rho (up, down):  1.393E-04 1.481E-02


---------------------------------------------------------------------------------
Carrying out rVV10 run using the following parameters:
Nqs =      20    Nr_points =    1024   r_max =   100.000
b_value =  6.30000    beta =  0.00901
     q_mesh =  0.00010000  0.00030000  0.00058939  0.00100810
               0.00161396  0.00249058  0.00375900  0.00559430
               0.00824984  0.01209221  0.01765183  0.02569619
               0.03733578  0.05417739  0.07854596  0.11380545
               0.16482331  0.23864234  0.34545298  0.50000000

Gradients computed in Reciprocal space

---------------------------------------------------------------------------------


     Starting wfcs are  208 randomized atomic wfcs

     total cpu time spent up to now is       84.2 secs

     Self-consistent Calculation

     iteration #  1     ecut=    70.00 Ry     beta= 0.70
     Davidson diagonalization with overlap
     ethr =  1.00E-02,  avg # of iterations =  7.0

     negative rho (up, down):  2.662E-04 1.300E-02

     total cpu time spent up to now is      249.8 secs

     total energy              =    -946.69163909 Ry
     Harris-Foulkes estimate   =    -949.73251644 Ry
     estimated scf accuracy    <      14.17634221 Ry

     total magnetization       =     6.00 Bohr mag/cell
     absolute magnetization    =     6.77 Bohr mag/cell

     iteration #  2     ecut=    70.00 Ry     beta= 0.70
     Davidson diagonalization with overlap
     ethr =  6.56E-03,  avg # of iterations =  3.5

     negative rho (up, down):  3.174E-03 1.915E-01

     total cpu time spent up to now is      395.7 secs

     total energy              =    -946.89092260 Ry
     Harris-Foulkes estimate   =    -957.21127976 Ry
     estimated scf accuracy    <      32.44215766 Ry

     total magnetization       =     4.00 Bohr mag/cell
     absolute magnetization    =     5.93 Bohr mag/cell

     iteration #  3     ecut=    70.00 Ry     beta= 0.70
     Davidson diagonalization with overlap
     ethr =  6.56E-03,  avg # of iterations =  4.0

     negative rho (up, down):  2.248E-02 4.886E-01

     total cpu time spent up to now is      538.3 secs

     total energy              =    -956.08467621 Ry
     Harris-Foulkes estimate   =    -955.85319234 Ry
     estimated scf accuracy    <     230.43880903 Ry

     total magnetization       =     2.00 Bohr mag/cell
     absolute magnetization    =    23.64 Bohr mag/cell

     iteration #  4     ecut=    70.00 Ry     beta= 0.70
     Davidson diagonalization with overlap
     ethr =  6.56E-03,  avg # of iterations =  1.5

     negative rho (up, down):  1.002E-01 5.361E-01

     total cpu time spent up to now is      651.2 secs

     total energy              =    -950.54198248 Ry
     Harris-Foulkes estimate   =    -956.12668165 Ry
     estimated scf accuracy    <     254.65234170 Ry

     total magnetization       =     0.00 Bohr mag/cell
     absolute magnetization    =    23.48 Bohr mag/cell

     iteration #  5     ecut=    70.00 Ry     beta= 0.70
     Davidson diagonalization with overlap
     ethr =  6.56E-03,  avg # of iterations =  2.5

     negative rho (up, down):  1.708E-01 4.925E-01

     total cpu time spent up to now is      783.8 secs

     total energy              =    -955.96557404 Ry
     Harris-Foulkes estimate   =    -953.72642820 Ry
     estimated scf accuracy    <     131.20700842 Ry

     total magnetization       =    -0.00 Bohr mag/cell
     absolute magnetization    =    17.40 Bohr mag/cell

     iteration #  6     ecut=    70.00 Ry     beta= 0.70
     Davidson diagonalization with overlap
     ethr =  6.56E-03,  avg # of iterations =  2.5

     negative rho (up, down):  2.579E-01 5.051E-01

     total cpu time spent up to now is      903.5 secs

     total energy              =    -946.36886076 Ry
     Harris-Foulkes estimate   =    -956.85331756 Ry
     estimated scf accuracy    <     322.82165283 Ry

     total magnetization       =    -0.00 Bohr mag/cell
     absolute magnetization    =    26.93 Bohr mag/cell

     iteration #  7     ecut=    70.00 Ry     beta= 0.70
     Davidson diagonalization with overlap
     ethr =  6.56E-03,  avg # of iterations =  3.0

     negative rho (up, down):  1.125E-01 4.525E-01

     total cpu time spent up to now is     1044.3 secs

     total energy              =    -954.34549032 Ry
     Harris-Foulkes estimate   =    -952.49561972 Ry
     estimated scf accuracy    <      60.93038838 Ry

     total magnetization       =     2.00 Bohr mag/cell
     absolute magnetization    =    13.73 Bohr mag/cell

     iteration #  8     ecut=    70.00 Ry     beta= 0.70
     Davidson diagonalization with overlap
     ethr =  6.56E-03,  avg # of iterations =  2.5

     negative rho (up, down):  1.259E-01 5.058E-01

     total cpu time spent up to now is     1161.7 secs

     total energy              =    -948.42828357 Ry
     Harris-Foulkes estimate   =    -955.51244184 Ry
     estimated scf accuracy    <     236.05067925 Ry

     total magnetization       =     2.00 Bohr mag/cell
     absolute magnetization    =    25.19 Bohr mag/cell

     iteration #  9     ecut=    70.00 Ry     beta= 0.70
     Davidson diagonalization with overlap
     ethr =  6.56E-03,  avg # of iterations =  2.5

     negative rho (up, down):  8.027E-02 4.686E-01

     total cpu time spent up to now is     1279.0 secs

     total energy              =    -951.51851706 Ry
     Harris-Foulkes estimate   =    -951.81171797 Ry
     estimated scf accuracy    <      24.36490919 Ry

     total magnetization       =     2.00 Bohr mag/cell
     absolute magnetization    =     9.60 Bohr mag/cell

     iteration # 10     ecut=    70.00 Ry     beta= 0.70
     Davidson diagonalization with overlap
     ethr =  6.56E-03,  avg # of iterations =  1.5

     negative rho (up, down):  1.347E-01 3.876E-01

     total cpu time spent up to now is     1383.2 secs

     total energy              =    -951.76595853 Ry
     Harris-Foulkes estimate   =    -951.89462408 Ry
     estimated scf accuracy    <      12.37662498 Ry

     total magnetization       =     0.00 Bohr mag/cell
     absolute magnetization    =     6.32 Bohr mag/cell

     iteration # 11     ecut=    70.00 Ry     beta= 0.70
     Davidson diagonalization with overlap
     ethr =  5.73E-03,  avg # of iterations =  1.5

     negative rho (up, down):  5.896E-02 4.082E-01

     total cpu time spent up to now is     1484.8 secs

     total energy              =    -951.78207616 Ry
     Harris-Foulkes estimate   =    -951.92024411 Ry
     estimated scf accuracy    <       3.19614292 Ry

     total magnetization       =    -0.00 Bohr mag/cell
     absolute magnetization    =     4.19 Bohr mag/cell

     iteration # 12     ecut=    70.00 Ry     beta= 0.70
     Davidson diagonalization with overlap
     ethr =  1.48E-03,  avg # of iterations =  1.5

     negative rho (up, down):  4.556E-02 3.018E-01

     total cpu time spent up to now is     1585.9 secs

     total energy              =    -951.72950727 Ry
     Harris-Foulkes estimate   =    -951.86054066 Ry
     estimated scf accuracy    <       1.75994567 Ry

     total magnetization       =     0.00 Bohr mag/cell
     absolute magnetization    =     2.92 Bohr mag/cell

     iteration # 13     ecut=    70.00 Ry     beta= 0.70
     Davidson diagonalization with overlap
     ethr =  8.15E-04,  avg # of iterations =  3.5

     negative rho (up, down):  3.088E-02 3.510E-01

     total cpu time spent up to now is     1697.7 secs

     total energy              =    -951.67538775 Ry
     Harris-Foulkes estimate   =    -952.01013788 Ry
     estimated scf accuracy    <       7.90081813 Ry

     total magnetization       =    -0.00 Bohr mag/cell
     absolute magnetization    =     5.12 Bohr mag/cell

     iteration # 14     ecut=    70.00 Ry     beta= 0.70
     Davidson diagonalization with overlap
     ethr =  8.15E-04,  avg # of iterations =  3.0

     negative rho (up, down):  1.853E-02 2.659E-01

     total cpu time spent up to now is     1821.9 secs

     total energy              =    -951.83584357 Ry
     Harris-Foulkes estimate   =    -951.85878961 Ry
     estimated scf accuracy    <       0.35827599 Ry

     total magnetization       =     0.00 Bohr mag/cell
     absolute magnetization    =     1.53 Bohr mag/cell

     iteration # 15     ecut=    70.00 Ry     beta= 0.70
     Davidson diagonalization with overlap
     ethr =  1.66E-04,  avg # of iterations =  2.5

     negative rho (up, down):  1.297E-02 9.906E-02

     total cpu time spent up to now is     1939.3 secs

     total energy              =    -951.86310496 Ry
     Harris-Foulkes estimate   =    -951.87307987 Ry
     estimated scf accuracy    <       0.25671844 Ry

     total magnetization       =     0.00 Bohr mag/cell
     absolute magnetization    =     1.20 Bohr mag/cell

     iteration # 16     ecut=    70.00 Ry     beta= 0.70
     Davidson diagonalization with overlap
     ethr =  1.19E-04,  avg # of iterations =  3.5

     negative rho (up, down):  1.843E-02 2.961E-01

     total cpu time spent up to now is     2065.5 secs

     total energy              =    -951.88131780 Ry
     Harris-Foulkes estimate   =    -951.90702858 Ry
     estimated scf accuracy    <       1.59652760 Ry

     total magnetization       =     0.00 Bohr mag/cell
     absolute magnetization    =     2.22 Bohr mag/cell

     iteration # 17     ecut=    70.00 Ry     beta= 0.70
     Davidson diagonalization with overlap
     ethr =  1.19E-04,  avg # of iterations =  5.5

     negative rho (up, down):  1.550E-02 3.334E-01

     total cpu time spent up to now is     2199.1 secs

     total energy              =    -951.89191568 Ry
     Harris-Foulkes estimate   =    -951.90345141 Ry
     estimated scf accuracy    <       2.12473957 Ry

     total magnetization       =     0.00 Bohr mag/cell
     absolute magnetization    =     2.65 Bohr mag/cell

     iteration # 18     ecut=    70.00 Ry     beta= 0.70
     Davidson diagonalization with overlap
     ethr =  1.19E-04,  avg # of iterations =  1.0

     negative rho (up, down):  1.497E-02 3.418E-01

     total cpu time spent up to now is     2319.5 secs

     total energy              =    -951.87740106 Ry
     Harris-Foulkes estimate   =    -951.89407374 Ry
     estimated scf accuracy    <       1.90275635 Ry

     total magnetization       =     0.00 Bohr mag/cell
     absolute magnetization    =     2.53 Bohr mag/cell

     iteration # 19     ecut=    70.00 Ry     beta= 0.70
     Davidson diagonalization with overlap
     ethr =  1.19E-04,  avg # of iterations =  2.0

     negative rho (up, down):  1.554E-02 3.474E-01

     total cpu time spent up to now is     2444.1 secs

     total energy              =    -951.89222801 Ry
     Harris-Foulkes estimate   =    -951.89448630 Ry
     estimated scf accuracy    <       1.64419966 Ry

     total magnetization       =    -0.00 Bohr mag/cell
     absolute magnetization    =     2.36 Bohr mag/cell

     iteration # 20     ecut=    70.00 Ry     beta= 0.70
     Davidson diagonalization with overlap
     ethr =  1.19E-04,  avg # of iterations =  1.0

     negative rho (up, down):  1.455E-02 3.326E-01

     total cpu time spent up to now is     2559.4 secs

     total energy              =    -951.85219773 Ry
     Harris-Foulkes estimate   =    -951.89678332 Ry
     estimated scf accuracy    <       1.50305988 Ry

     total magnetization       =    -0.00 Bohr mag/cell
     absolute magnetization    =     2.27 Bohr mag/cell

     iteration # 21     ecut=    70.00 Ry     beta= 0.70
     Davidson diagonalization with overlap
     ethr =  1.19E-04,  avg # of iterations =  2.0

     negative rho (up, down):  1.145E-02 3.023E-01

     total cpu time spent up to now is     2675.3 secs

     total energy              =    -951.86651003 Ry
     Harris-Foulkes estimate   =    -951.87670534 Ry
     estimated scf accuracy    <       0.51373144 Ry

     total magnetization       =    -0.00 Bohr mag/cell
     absolute magnetization    =     1.49 Bohr mag/cell

     iteration # 22     ecut=    70.00 Ry     beta= 0.70
     Davidson diagonalization with overlap
     ethr =  1.19E-04,  avg # of iterations =  4.0

     negative rho (up, down):  8.719E-03 2.780E-01

     total cpu time spent up to now is     2778.4 secs

     total energy              =    -951.85554681 Ry
     Harris-Foulkes estimate   =    -951.87662750 Ry
     estimated scf accuracy    <       0.33350842 Ry

     total magnetization       =    -0.00 Bohr mag/cell
     absolute magnetization    =     1.31 Bohr mag/cell

     iteration # 23     ecut=    70.00 Ry     beta= 0.70
     Davidson diagonalization with overlap
     ethr =  1.19E-04,  avg # of iterations =  2.0

     negative rho (up, down):  1.032E-02 1.773E-01

     total cpu time spent up to now is     2881.0 secs

     total energy              =    -951.87568754 Ry
     Harris-Foulkes estimate   =    -951.87467729 Ry
     estimated scf accuracy    <       0.27804358 Ry

     total magnetization       =    -0.00 Bohr mag/cell
     absolute magnetization    =     1.08 Bohr mag/cell

     iteration # 24     ecut=    70.00 Ry     beta= 0.70
     Davidson diagonalization with overlap
     ethr =  1.19E-04,  avg # of iterations =  1.0

     negative rho (up, down):  1.114E-02 1.625E-01

     total cpu time spent up to now is     2982.0 secs

     total energy              =    -951.87234550 Ry
     Harris-Foulkes estimate   =    -951.87681816 Ry
     estimated scf accuracy    <       0.25849632 Ry

     total magnetization       =    -0.00 Bohr mag/cell
     absolute magnetization    =     1.06 Bohr mag/cell

     iteration # 25     ecut=    70.00 Ry     beta= 0.70
     Davidson diagonalization with overlap
     ethr =  1.19E-04,  avg # of iterations =  1.0

     negative rho (up, down):  9.181E-03 1.170E-01

     total cpu time spent up to now is     3082.9 secs

     total energy              =    -951.88459307 Ry
     Harris-Foulkes estimate   =    -951.87435825 Ry
     estimated scf accuracy    <       0.16786941 Ry

     total magnetization       =    -0.00 Bohr mag/cell
     absolute magnetization    =     0.75 Bohr mag/cell

     iteration # 26     ecut=    70.00 Ry     beta= 0.70
     Davidson diagonalization with overlap
     ethr =  7.77E-05,  avg # of iterations =  3.0

     negative rho (up, down):  4.777E-03 3.114E-01

     total cpu time spent up to now is     3197.2 secs

     total energy              =    -951.91123362 Ry
     Harris-Foulkes estimate   =    -951.91077144 Ry
     estimated scf accuracy    <       1.50395643 Ry

     total magnetization       =     0.00 Bohr mag/cell
     absolute magnetization    =     2.09 Bohr mag/cell

     iteration # 27     ecut=    70.00 Ry     beta= 0.70
     Davidson diagonalization with overlap
     ethr =  7.77E-05,  avg # of iterations =  2.0

     negative rho (up, down):  3.574E-03 3.426E-01

     total cpu time spent up to now is     3313.9 secs

     total energy              =    -951.90869298 Ry
     Harris-Foulkes estimate   =    -951.91371860 Ry
     estimated scf accuracy    <       1.86158687 Ry

     total magnetization       =     0.00 Bohr mag/cell
     absolute magnetization    =     2.26 Bohr mag/cell

     iteration # 28     ecut=    70.00 Ry     beta= 0.70
     Davidson diagonalization with overlap
     ethr =  7.77E-05,  avg # of iterations =  1.0

     negative rho (up, down):  3.890E-03 3.440E-01

     total cpu time spent up to now is     3429.9 secs

     total energy              =    -951.91144837 Ry
     Harris-Foulkes estimate   =    -951.90963731 Ry
     estimated scf accuracy    <       1.84077682 Ry

     total magnetization       =    -0.00 Bohr mag/cell
     absolute magnetization    =     2.21 Bohr mag/cell

     iteration # 29     ecut=    70.00 Ry     beta= 0.70
     Davidson diagonalization with overlap
     ethr =  7.77E-05,  avg # of iterations =  2.0

     negative rho (up, down):  4.492E-03 3.542E-01

     total cpu time spent up to now is     3545.2 secs

     total energy              =    -951.89440835 Ry
     Harris-Foulkes estimate   =    -951.91360520 Ry
     estimated scf accuracy    <       2.17764570 Ry

     total magnetization       =     0.00 Bohr mag/cell
     absolute magnetization    =     2.40 Bohr mag/cell

     iteration # 30     ecut=    70.00 Ry     beta= 0.70
     Davidson diagonalization with overlap
     ethr =  7.77E-05,  avg # of iterations =  2.0

     negative rho (up, down):  3.566E-03 3.492E-01

     total cpu time spent up to now is     3653.9 secs

     total energy              =    -951.89326598 Ry
     Harris-Foulkes estimate   =    -951.90079366 Ry
     estimated scf accuracy    <       1.51334196 Ry

     total magnetization       =    -0.00 Bohr mag/cell
     absolute magnetization    =     2.01 Bohr mag/cell

     iteration # 31     ecut=    70.00 Ry     beta= 0.70
     Davidson diagonalization with overlap
     ethr =  7.77E-05,  avg # of iterations =  2.0

     negative rho (up, down):  3.428E-03 3.532E-01

     total cpu time spent up to now is     3771.7 secs

     total energy              =    -951.88668007 Ry
     Harris-Foulkes estimate   =    -951.90043944 Ry
     estimated scf accuracy    <       1.54212995 Ry

     total magnetization       =    -0.00 Bohr mag/cell
     absolute magnetization    =     2.04 Bohr mag/cell

     iteration # 32     ecut=    70.00 Ry     beta= 0.70
     Davidson diagonalization with overlap
     ethr =  7.77E-05,  avg # of iterations =  2.0

     negative rho (up, down):  2.012E-03 3.407E-01

     total cpu time spent up to now is     3881.0 secs

     total energy              =    -951.83259097 Ry
     Harris-Foulkes estimate   =    -951.89392161 Ry
     estimated scf accuracy    <       0.91056821 Ry

     total magnetization       =    -0.00 Bohr mag/cell
     absolute magnetization    =     1.54 Bohr mag/cell

     iteration # 33     ecut=    70.00 Ry     beta= 0.70
     Davidson diagonalization with overlap
     ethr =  7.77E-05,  avg # of iterations =  4.0

     negative rho (up, down):  3.633E-03 2.770E-01

     total cpu time spent up to now is     4015.4 secs

     total energy              =    -951.85292909 Ry
     Harris-Foulkes estimate   =    -951.88560811 Ry
     estimated scf accuracy    <       0.29892371 Ry

     total magnetization       =     0.00 Bohr mag/cell
     absolute magnetization    =     0.86 Bohr mag/cell

     iteration # 34     ecut=    70.00 Ry     beta= 0.70
     Davidson diagonalization with overlap
     ethr =  7.77E-05,  avg # of iterations =  3.0

     negative rho (up, down):  3.057E-03 2.778E-01

     total cpu time spent up to now is     4140.5 secs

     total energy              =    -951.85935903 Ry
     Harris-Foulkes estimate   =    -951.89307560 Ry
     estimated scf accuracy    <       0.33776991 Ry

     total magnetization       =     0.00 Bohr mag/cell
     absolute magnetization    =     0.94 Bohr mag/cell

     iteration # 35     ecut=    70.00 Ry     beta= 0.70
     Davidson diagonalization with overlap
     ethr =  7.77E-05,  avg # of iterations =  2.0

     negative rho (up, down):  1.180E-02 7.523E-02

     total cpu time spent up to now is     4261.3 secs

     total energy              =    -951.88324359 Ry
     Harris-Foulkes estimate   =    -951.88096782 Ry
     estimated scf accuracy    <       0.24474529 Ry

     total magnetization       =    -0.00 Bohr mag/cell
     absolute magnetization    =     0.56 Bohr mag/cell

     iteration # 36     ecut=    70.00 Ry     beta= 0.70
     Davidson diagonalization with overlap
     ethr =  7.77E-05,  avg # of iterations =  1.5

     negative rho (up, down):  2.215E-02 6.034E-02

     total cpu time spent up to now is     4375.6 secs

     total energy              =    -951.87186015 Ry
     Harris-Foulkes estimate   =    -951.88778981 Ry
     estimated scf accuracy    <       0.53462720 Ry

     total magnetization       =     0.12 Bohr mag/cell
     absolute magnetization    =     0.85 Bohr mag/cell

     iteration # 37     ecut=    70.00 Ry     beta= 0.70
     Davidson diagonalization with overlap
     ethr =  7.77E-05,  avg # of iterations =  2.5

     negative rho (up, down):  2.013E-02 7.124E-02

     total cpu time spent up to now is     4497.2 secs

     total energy              =    -951.89732719 Ry
     Harris-Foulkes estimate   =    -951.89037650 Ry
     estimated scf accuracy    <       0.49219520 Ry

     total magnetization       =     0.00 Bohr mag/cell
     absolute magnetization    =     0.87 Bohr mag/cell

     iteration # 38     ecut=    70.00 Ry     beta= 0.70
     Davidson diagonalization with overlap
     ethr =  7.77E-05,  avg # of iterations =  2.5

     negative rho (up, down):  1.853E-02 3.314E-01

     total cpu time spent up to now is     4616.1 secs

     total energy              =    -951.79602439 Ry
     Harris-Foulkes estimate   =    -951.94198810 Ry
     estimated scf accuracy    <       4.50842349 Ry

     total magnetization       =    -0.02 Bohr mag/cell
     absolute magnetization    =     3.30 Bohr mag/cell

     iteration # 39     ecut=    70.00 Ry     beta= 0.70
     Davidson diagonalization with overlap
     ethr =  7.77E-05,  avg # of iterations =  3.0

     negative rho (up, down):  1.327E-02 2.228E-01

     total cpu time spent up to now is     4747.9 secs

     total energy              =    -951.91851502 Ry
     Harris-Foulkes estimate   =    -951.86931735 Ry
     estimated scf accuracy    <       0.47125217 Ry

     total magnetization       =    -0.00 Bohr mag/cell
     absolute magnetization    =     1.01 Bohr mag/cell

     iteration # 40     ecut=    70.00 Ry     beta= 0.70
     Davidson diagonalization with overlap
     ethr =  7.77E-05,  avg # of iterations =  2.0

     negative rho (up, down):  2.707E-02 2.861E-01

     total cpu time spent up to now is     4876.8 secs

     total energy              =    -951.71722472 Ry
     Harris-Foulkes estimate   =    -951.96268242 Ry
     estimated scf accuracy    <       5.06445040 Ry

     total magnetization       =     0.14 Bohr mag/cell
     absolute magnetization    =     3.41 Bohr mag/cell

     iteration # 41     ecut=    70.00 Ry     beta= 0.70
     Davidson diagonalization with overlap
     ethr =  7.77E-05,  avg # of iterations =  4.0

     negative rho (up, down):  2.005E-02 3.226E-01

     total cpu time spent up to now is     5029.9 secs

     total energy              =    -951.84609776 Ry
     Harris-Foulkes estimate   =    -951.94552827 Ry
     estimated scf accuracy    <       4.60794156 Ry

     total magnetization       =    -0.00 Bohr mag/cell
     absolute magnetization    =     3.26 Bohr mag/cell

     iteration # 42     ecut=    70.00 Ry     beta= 0.70
     Davidson diagonalization with overlap
     ethr =  7.77E-05,  avg # of iterations =  2.5

     negative rho (up, down):  1.079E-02 2.750E-01

     total cpu time spent up to now is     5156.0 secs

     total energy              =    -951.85275959 Ry
     Harris-Foulkes estimate   =    -951.88757076 Ry
     estimated scf accuracy    <       0.61282918 Ry

     total magnetization       =    -0.09 Bohr mag/cell
     absolute magnetization    =     1.19 Bohr mag/cell

     iteration # 43     ecut=    70.00 Ry     beta= 0.70
     Davidson diagonalization with overlap
     ethr =  7.77E-05,  avg # of iterations =  2.5

     negative rho (up, down):  6.424E-03 2.149E-01

     total cpu time spent up to now is     5269.8 secs

     total energy              =    -951.86506388 Ry
     Harris-Foulkes estimate   =    -951.87621095 Ry
     estimated scf accuracy    <       0.16977789 Ry

     total magnetization       =    -0.13 Bohr mag/cell
     absolute magnetization    =     0.65 Bohr mag/cell

     iteration # 44     ecut=    70.00 Ry     beta= 0.70
     Davidson diagonalization with overlap
     ethr =  7.77E-05,  avg # of iterations =  2.0

     negative rho (up, down):  4.991E-03 1.207E-01

     total cpu time spent up to now is     5382.1 secs

     total energy              =    -951.86904210 Ry
     Harris-Foulkes estimate   =    -951.88224040 Ry
     estimated scf accuracy    <       0.08500961 Ry

     total magnetization       =     0.00 Bohr mag/cell
     absolute magnetization    =     0.21 Bohr mag/cell

     iteration # 45     ecut=    70.00 Ry     beta= 0.70
     Davidson diagonalization with overlap
     ethr =  3.94E-05,  avg # of iterations =  3.5

     negative rho (up, down):  1.691E-03 1.018E-01

     total cpu time spent up to now is     5495.6 secs

     total energy              =    -951.86964373 Ry
     Harris-Foulkes estimate   =    -951.87812550 Ry
     estimated scf accuracy    <       0.02776868 Ry

     total magnetization       =     0.00 Bohr mag/cell
     absolute magnetization    =     0.14 Bohr mag/cell

     iteration # 46     ecut=    70.00 Ry     beta= 0.70
     Davidson diagonalization with overlap
     ethr =  1.29E-05,  avg # of iterations =  4.0

     negative rho (up, down):  1.289E-02 2.407E-01

     total cpu time spent up to now is     5642.0 secs

     total energy              =    -951.85630260 Ry
     Harris-Foulkes estimate   =    -951.90327563 Ry
     estimated scf accuracy    <       1.22681215 Ry

     total magnetization       =    -0.00 Bohr mag/cell
     absolute magnetization    =     1.56 Bohr mag/cell

     iteration # 47     ecut=    70.00 Ry     beta= 0.70
     Davidson diagonalization with overlap
     ethr =  1.29E-05,  avg # of iterations =  3.0

     negative rho (up, down):  6.064E-03 1.743E-01

     total cpu time spent up to now is     5773.9 secs

     total energy              =    -951.87986649 Ry
     Harris-Foulkes estimate   =    -951.87436141 Ry
     estimated scf accuracy    <       0.06853249 Ry

     total magnetization       =     0.00 Bohr mag/cell
     absolute magnetization    =     0.34 Bohr mag/cell

     iteration # 48     ecut=    70.00 Ry     beta= 0.70
     Davidson diagonalization with overlap
     ethr =  1.29E-05,  avg # of iterations =  3.0

     negative rho (up, down):  4.986E-03 3.778E-01

     total cpu time spent up to now is     5912.1 secs

     total energy              =    -951.76515446 Ry
     Harris-Foulkes estimate   =    -951.95589403 Ry
     estimated scf accuracy    <       5.99216316 Ry

     total magnetization       =    -0.00 Bohr mag/cell
     absolute magnetization    =     3.75 Bohr mag/cell

     iteration # 49     ecut=    70.00 Ry     beta= 0.70
     Davidson diagonalization with overlap
     ethr =  1.29E-05,  avg # of iterations =  4.5

     negative rho (up, down):  3.049E-03 2.822E-01

     total cpu time spent up to now is     6059.2 secs

     total energy              =    -951.87401448 Ry
     Harris-Foulkes estimate   =    -951.85311439 Ry
     estimated scf accuracy    <       0.01980306 Ry

     total magnetization       =    -0.00 Bohr mag/cell
     absolute magnetization    =     0.18 Bohr mag/cell

     iteration # 50     ecut=    70.00 Ry     beta= 0.70
     Davidson diagonalization with overlap
     ethr =  9.17E-06,  avg # of iterations =  4.0

     negative rho (up, down):  4.130E-03 2.347E-01

     total cpu time spent up to now is     6197.0 secs

     total energy              =    -951.85900418 Ry
     Harris-Foulkes estimate   =    -951.88086334 Ry
     estimated scf accuracy    <       0.41656684 Ry

     total magnetization       =    -0.05 Bohr mag/cell
     absolute magnetization    =     1.02 Bohr mag/cell

     iteration # 51     ecut=    70.00 Ry     beta= 0.70
     Davidson diagonalization with overlap
     ethr =  9.17E-06,  avg # of iterations =  4.0

     negative rho (up, down):  2.620E-03 2.576E-01

     total cpu time spent up to now is     6355.8 secs

     total energy              =    -951.88636933 Ry
     Harris-Foulkes estimate   =    -951.88470758 Ry
     estimated scf accuracy    <       0.50096817 Ry

     total magnetization       =    -0.16 Bohr mag/cell
     absolute magnetization    =     1.18 Bohr mag/cell

     iteration # 52     ecut=    70.00 Ry     beta= 0.70
     Davidson diagonalization with overlap
     ethr =  9.17E-06,  avg # of iterations =  3.5

     negative rho (up, down):  3.937E-03 2.836E-01

     total cpu time spent up to now is     6482.1 secs

     total energy              =    -951.86698188 Ry
     Harris-Foulkes estimate   =    -951.88684174 Ry
     estimated scf accuracy    <       0.63802847 Ry

     total magnetization       =     0.00 Bohr mag/cell
     absolute magnetization    =     1.21 Bohr mag/cell

     iteration # 53     ecut=    70.00 Ry     beta= 0.70
     Davidson diagonalization with overlap
     ethr =  9.17E-06,  avg # of iterations =  3.5

     negative rho (up, down):  3.841E-03 2.443E-01

     total cpu time spent up to now is     6628.5 secs

     total energy              =    -951.87130678 Ry
     Harris-Foulkes estimate   =    -951.87430360 Ry
     estimated scf accuracy    <       0.12190704 Ry

     total magnetization       =     0.00 Bohr mag/cell
     absolute magnetization    =     0.53 Bohr mag/cell

     iteration # 54     ecut=    70.00 Ry     beta= 0.70
     Davidson diagonalization with overlap
     ethr =  9.17E-06,  avg # of iterations =  3.0

     negative rho (up, down):  4.889E-03 1.185E-01

     total cpu time spent up to now is     6758.3 secs

     total energy              =    -951.87650828 Ry
     Harris-Foulkes estimate   =    -951.87429884 Ry
     estimated scf accuracy    <       0.03588139 Ry

     total magnetization       =    -0.00 Bohr mag/cell
     absolute magnetization    =     0.25 Bohr mag/cell

     iteration # 55     ecut=    70.00 Ry     beta= 0.70
     Davidson diagonalization with overlap
     ethr =  9.17E-06,  avg # of iterations =  2.5

     negative rho (up, down):  6.736E-03 4.500E-02

     total cpu time spent up to now is     6878.4 secs

     total energy              =    -951.87453941 Ry
     Harris-Foulkes estimate   =    -951.87742752 Ry
     estimated scf accuracy    <       0.11773752 Ry

     total magnetization       =     0.00 Bohr mag/cell
     absolute magnetization    =     0.23 Bohr mag/cell

     iteration # 56     ecut=    70.00 Ry     beta= 0.70
     Davidson diagonalization with overlap
     ethr =  9.17E-06,  avg # of iterations =  2.5

     negative rho (up, down):  3.609E-03 5.660E-02

     total cpu time spent up to now is     7002.7 secs

     total energy              =    -951.87554421 Ry
     Harris-Foulkes estimate   =    -951.87594330 Ry
     estimated scf accuracy    <       0.01529566 Ry

     total magnetization       =     0.00 Bohr mag/cell
     absolute magnetization    =     0.17 Bohr mag/cell

     iteration # 57     ecut=    70.00 Ry     beta= 0.70
     Davidson diagonalization with overlap
     ethr =  7.08E-06,  avg # of iterations =  2.5

     negative rho (up, down):  2.645E-03 4.481E-02

     total cpu time spent up to now is     7122.3 secs

     total energy              =    -951.87690053 Ry
     Harris-Foulkes estimate   =    -951.87619815 Ry
     estimated scf accuracy    <       0.01217303 Ry

     total magnetization       =     0.00 Bohr mag/cell
     absolute magnetization    =     0.14 Bohr mag/cell

     iteration # 58     ecut=    70.00 Ry     beta= 0.70
     Davidson diagonalization with overlap
     ethr =  5.64E-06,  avg # of iterations =  2.0

     negative rho (up, down):  3.098E-03 2.401E-01

     total cpu time spent up to now is     7244.4 secs

     total energy              =    -951.87163074 Ry
     Harris-Foulkes estimate   =    -951.87936031 Ry
     estimated scf accuracy    <       0.21160256 Ry

     total magnetization       =    -0.00 Bohr mag/cell
     absolute magnetization    =     0.72 Bohr mag/cell

     iteration # 59     ecut=    70.00 Ry     beta= 0.70
     Davidson diagonalization with overlap
     ethr =  5.64E-06,  avg # of iterations =  4.0

     negative rho (up, down):  2.803E-03 1.193E-01

     total cpu time spent up to now is     7374.0 secs

     total energy              =    -951.87627724 Ry
     Harris-Foulkes estimate   =    -951.87457073 Ry
     estimated scf accuracy    <       0.01266246 Ry

     total magnetization       =    -0.00 Bohr mag/cell
     absolute magnetization    =     0.16 Bohr mag/cell

     iteration # 60     ecut=    70.00 Ry     beta= 0.70
     Davidson diagonalization with overlap
     ethr =  5.64E-06,  avg # of iterations =  3.0

     negative rho (up, down):  2.241E-03 1.449E-01

     total cpu time spent up to now is     7495.5 secs

     total energy              =    -951.87564411 Ry
     Harris-Foulkes estimate   =    -951.87667984 Ry
     estimated scf accuracy    <       0.03964176 Ry

     total magnetization       =    -0.00 Bohr mag/cell
     absolute magnetization    =     0.34 Bohr mag/cell

     iteration # 61     ecut=    70.00 Ry     beta= 0.70
     Davidson diagonalization with overlap
     ethr =  5.64E-06,  avg # of iterations =  2.5

     negative rho (up, down):  2.214E-03 9.039E-02

     total cpu time spent up to now is     7610.3 secs

     total energy              =    -951.87710167 Ry
     Harris-Foulkes estimate   =    -951.87661495 Ry
     estimated scf accuracy    <       0.02040216 Ry

     total magnetization       =     0.00 Bohr mag/cell
     absolute magnetization    =     0.20 Bohr mag/cell

     iteration # 62     ecut=    70.00 Ry     beta= 0.70
     Davidson diagonalization with overlap
     ethr =  5.64E-06,  avg # of iterations =  2.0

     negative rho (up, down):  3.493E-03 1.135E-01

     total cpu time spent up to now is     7714.7 secs

     total energy              =    -951.87692792 Ry
     Harris-Foulkes estimate   =    -951.87770742 Ry
     estimated scf accuracy    <       0.04902585 Ry

     total magnetization       =     0.00 Bohr mag/cell
     absolute magnetization    =     0.30 Bohr mag/cell

     iteration # 63     ecut=    70.00 Ry     beta= 0.70
     Davidson diagonalization with overlap
     ethr =  5.64E-06,  avg # of iterations =  2.0

     negative rho (up, down):  2.230E-03 1.734E-01

     total cpu time spent up to now is     7818.6 secs

     total energy              =    -951.87722370 Ry
     Harris-Foulkes estimate   =    -951.87699945 Ry
     estimated scf accuracy    <       0.04446889 Ry

     total magnetization       =    -0.00 Bohr mag/cell
     absolute magnetization    =     0.31 Bohr mag/cell

     iteration # 64     ecut=    70.00 Ry     beta= 0.70
     Davidson diagonalization with overlap
     ethr =  5.64E-06,  avg # of iterations =  2.0

     negative rho (up, down):  7.733E-03 4.816E-02

     total cpu time spent up to now is     7925.3 secs

     total energy              =    -951.87634294 Ry
     Harris-Foulkes estimate   =    -951.87779781 Ry
     estimated scf accuracy    <       0.06210913 Ry

     total magnetization       =     0.00 Bohr mag/cell
     absolute magnetization    =     0.23 Bohr mag/cell

     iteration # 65     ecut=    70.00 Ry     beta= 0.70
     Davidson diagonalization with overlap
     ethr =  5.64E-06,  avg # of iterations =  3.5

     negative rho (up, down):  3.124E-03 1.729E-01

     total cpu time spent up to now is     8035.4 secs

     total energy              =    -951.87854068 Ry
     Harris-Foulkes estimate   =    -951.87697605 Ry
     estimated scf accuracy    <       0.09806281 Ry

     total magnetization       =    -0.00 Bohr mag/cell
     absolute magnetization    =     0.38 Bohr mag/cell

     iteration # 66     ecut=    70.00 Ry     beta= 0.70
     Davidson diagonalization with overlap
     ethr =  5.64E-06,  avg # of iterations =  3.5

     negative rho (up, down):  5.866E-03 8.845E-02

     total cpu time spent up to now is     8155.2 secs

     total energy              =    -951.89524058 Ry
     Harris-Foulkes estimate   =    -951.88273287 Ry
     estimated scf accuracy    <       0.25007082 Ry

     total magnetization       =     0.00 Bohr mag/cell
     absolute magnetization    =     0.22 Bohr mag/cell

     iteration # 67     ecut=    70.00 Ry     beta= 0.70
     Davidson diagonalization with overlap
     ethr =  5.64E-06,  avg # of iterations =  3.5

     negative rho (up, down):  3.139E-02 9.810E-03

     total cpu time spent up to now is     8280.7 secs

     total energy              =    -951.90867858 Ry
     Harris-Foulkes estimate   =    -951.90952551 Ry
     estimated scf accuracy    <       1.01408984 Ry

     total magnetization       =     0.00 Bohr mag/cell
     absolute magnetization    =     0.27 Bohr mag/cell

     iteration # 68     ecut=    70.00 Ry     beta= 0.70
     Davidson diagonalization with overlap
     ethr =  5.64E-06,  avg # of iterations =  4.5

     negative rho (up, down):  4.335E-02 3.001E-02

     total cpu time spent up to now is     8396.0 secs

     total energy              =    -951.90308014 Ry
     Harris-Foulkes estimate   =    -951.91007040 Ry
     estimated scf accuracy    <       1.42484216 Ry

     total magnetization       =     0.00 Bohr mag/cell
     absolute magnetization    =     0.33 Bohr mag/cell

     iteration # 69     ecut=    70.00 Ry     beta= 0.70
     Davidson diagonalization with overlap
     ethr =  5.64E-06,  avg # of iterations =  2.0

     negative rho (up, down):  3.916E-02 4.174E-02

     total cpu time spent up to now is     8499.1 secs

     total energy              =    -951.84050267 Ry
     Harris-Foulkes estimate   =    -951.90331835 Ry
     estimated scf accuracy    <       1.23753947 Ry

     total magnetization       =     0.00 Bohr mag/cell
     absolute magnetization    =     0.31 Bohr mag/cell

     iteration # 70     ecut=    70.00 Ry     beta= 0.70
     Davidson diagonalization with overlap
     ethr =  5.64E-06,  avg # of iterations =  4.0

     negative rho (up, down):  4.168E-03 1.596E-01

     total cpu time spent up to now is     8627.1 secs

     total energy              =    -951.87157101 Ry
     Harris-Foulkes estimate   =    -951.88286694 Ry
     estimated scf accuracy    <       0.18154645 Ry

     total magnetization       =    -0.00 Bohr mag/cell
     absolute magnetization    =     0.39 Bohr mag/cell

     iteration # 71     ecut=    70.00 Ry     beta= 0.70
     Davidson diagonalization with overlap
     ethr =  5.64E-06,  avg # of iterations =  4.5

     negative rho (up, down):  2.825E-02 1.464E-02

     total cpu time spent up to now is     8763.0 secs

     total energy              =    -951.90279028 Ry
     Harris-Foulkes estimate   =    -951.90829348 Ry
     estimated scf accuracy    <       0.97297602 Ry

     total magnetization       =    -0.00 Bohr mag/cell
     absolute magnetization    =     0.25 Bohr mag/cell

     iteration # 72     ecut=    70.00 Ry     beta= 0.70
     Davidson diagonalization with overlap
     ethr =  5.64E-06,  avg # of iterations =  4.5

     negative rho (up, down):  4.062E-02 1.290E-02

     total cpu time spent up to now is     8872.3 secs

     total energy              =    -951.89684265 Ry
     Harris-Foulkes estimate   =    -951.90285071 Ry
     estimated scf accuracy    <       0.98451633 Ry

     total magnetization       =    -0.00 Bohr mag/cell
     absolute magnetization    =     0.24 Bohr mag/cell

     iteration # 73     ecut=    70.00 Ry     beta= 0.70
     Davidson diagonalization with overlap
     ethr =  5.64E-06,  avg # of iterations =  3.0

     negative rho (up, down):  4.323E-02 2.287E-02

     total cpu time spent up to now is     8987.0 secs

     total energy              =    -951.90037552 Ry
     Harris-Foulkes estimate   =    -951.89838544 Ry
     estimated scf accuracy    <       1.20231584 Ry

     total magnetization       =    -0.00 Bohr mag/cell
     absolute magnetization    =     0.25 Bohr mag/cell

     iteration # 74     ecut=    70.00 Ry     beta= 0.70
     Davidson diagonalization with overlap
     ethr =  5.64E-06,  avg # of iterations =  1.5

     negative rho (up, down):  4.602E-02 3.249E-02

     total cpu time spent up to now is     9089.6 secs

     total energy              =    -951.90380436 Ry
     Harris-Foulkes estimate   =    -951.90053360 Ry
     estimated scf accuracy    <       1.29163281 Ry

     total magnetization       =    -0.00 Bohr mag/cell
     absolute magnetization    =     0.28 Bohr mag/cell

     iteration # 75     ecut=    70.00 Ry     beta= 0.70
     Davidson diagonalization with overlap
     ethr =  5.64E-06,  avg # of iterations =  2.0

     negative rho (up, down):  5.063E-02 1.313E-02

     total cpu time spent up to now is     9196.3 secs

     total energy              =    -951.90247120 Ry
     Harris-Foulkes estimate   =    -951.90479134 Ry
     estimated scf accuracy    <       1.40616999 Ry

     total magnetization       =     0.00 Bohr mag/cell
     absolute magnetization    =     0.10 Bohr mag/cell

     iteration # 76     ecut=    70.00 Ry     beta= 0.70
     Davidson diagonalization with overlap
     ethr =  5.64E-06,  avg # of iterations =  1.5

     negative rho (up, down):  5.291E-02 3.544E-03

     total cpu time spent up to now is     9298.3 secs

     total energy              =    -951.89570677 Ry
     Harris-Foulkes estimate   =    -951.90280780 Ry
     estimated scf accuracy    <       1.38339894 Ry

     total magnetization       =    -0.00 Bohr mag/cell
     absolute magnetization    =     0.13 Bohr mag/cell

     iteration # 77     ecut=    70.00 Ry     beta= 0.70
     Davidson diagonalization with overlap
     ethr =  5.64E-06,  avg # of iterations =  2.0

     negative rho (up, down):  4.264E-02 6.035E-03

     total cpu time spent up to now is     9403.4 secs

     total energy              =    -951.89736757 Ry
     Harris-Foulkes estimate   =    -951.89621261 Ry
     estimated scf accuracy    <       1.18715515 Ry

     total magnetization       =    -0.00 Bohr mag/cell
     absolute magnetization    =     0.09 Bohr mag/cell

     iteration # 78     ecut=    70.00 Ry     beta= 0.70
     Davidson diagonalization with overlap
     ethr =  5.64E-06,  avg # of iterations =  3.0

     negative rho (up, down):  3.848E-02 1.490E-01

     total cpu time spent up to now is     9528.2 secs

     total energy              =    -951.87515515 Ry
     Harris-Foulkes estimate   =    -951.91146383 Ry
     estimated scf accuracy    <       1.77588071 Ry

     total magnetization       =    -0.00 Bohr mag/cell
     absolute magnetization    =     1.40 Bohr mag/cell

     iteration # 79     ecut=    70.00 Ry     beta= 0.70
     Davidson diagonalization with overlap
     ethr =  5.64E-06,  avg # of iterations =  4.5

     negative rho (up, down):  2.189E-02 1.038E-01

     total cpu time spent up to now is     9657.2 secs

     total energy              =    -951.84894512 Ry
     Harris-Foulkes estimate   =    -951.88693125 Ry
     estimated scf accuracy    <       0.50286693 Ry

     total magnetization       =    -0.00 Bohr mag/cell
     absolute magnetization    =     0.49 Bohr mag/cell

     iteration # 80     ecut=    70.00 Ry     beta= 0.70
     Davidson diagonalization with overlap
     ethr =  5.64E-06,  avg # of iterations =  4.0

     negative rho (up, down):  5.615E-02 1.390E-01

     total cpu time spent up to now is     9830.9 secs

     total energy              =    -951.77587379 Ry
     Harris-Foulkes estimate   =    -951.98636388 Ry
     estimated scf accuracy    <       4.85347988 Ry

     total magnetization       =    -0.00 Bohr mag/cell
     absolute magnetization    =     2.15 Bohr mag/cell

     iteration # 81     ecut=    70.00 Ry     beta= 0.70
     Davidson diagonalization with overlap
     ethr =  5.64E-06,  avg # of iterations =  5.0

     negative rho (up, down):  1.939E-02 7.538E-02

     total cpu time spent up to now is    10002.8 secs

     total energy              =    -951.85579979 Ry
     Harris-Foulkes estimate   =    -951.88346480 Ry
     estimated scf accuracy    <       0.48923227 Ry

     total magnetization       =    -0.00 Bohr mag/cell
     absolute magnetization    =     0.23 Bohr mag/cell

     iteration # 82     ecut=    70.00 Ry     beta= 0.70
     Davidson diagonalization with overlap
     ethr =  5.64E-06,  avg # of iterations =  4.0

     negative rho (up, down):  1.036E-02 8.001E-03

     total cpu time spent up to now is    10153.9 secs

     total energy              =    -951.88828362 Ry
     Harris-Foulkes estimate   =    -951.89414630 Ry
     estimated scf accuracy    <       0.41333460 Ry

     total magnetization       =     0.09 Bohr mag/cell
     absolute magnetization    =     0.18 Bohr mag/cell

     iteration # 83     ecut=    70.00 Ry     beta= 0.70
     Davidson diagonalization with overlap
     ethr =  5.64E-06,  avg # of iterations =  3.5

     negative rho (up, down):  1.209E-02 1.051E-02

     total cpu time spent up to now is    10270.7 secs

     total energy              =    -951.87590144 Ry
     Harris-Foulkes estimate   =    -951.89155715 Ry
     estimated scf accuracy    <       0.23135899 Ry

     total magnetization       =    -0.00 Bohr mag/cell
     absolute magnetization    =     0.08 Bohr mag/cell

     iteration # 84     ecut=    70.00 Ry     beta= 0.70
     Davidson diagonalization with overlap
     ethr =  5.64E-06,  avg # of iterations =  3.0

     negative rho (up, down):  2.052E-03 1.455E-01

     total cpu time spent up to now is    10389.6 secs

     total energy              =    -951.88814076 Ry
     Harris-Foulkes estimate   =    -951.88843322 Ry
     estimated scf accuracy    <       0.11267916 Ry

     total magnetization       =     0.15 Bohr mag/cell
     absolute magnetization    =     0.45 Bohr mag/cell

     iteration # 85     ecut=    70.00 Ry     beta= 0.70
     Davidson diagonalization with overlap
     ethr =  5.64E-06,  avg # of iterations =  4.0

     negative rho (up, down):  3.028E-03 1.246E-01

     total cpu time spent up to now is    10500.9 secs

     total energy              =    -951.88906064 Ry
     Harris-Foulkes estimate   =    -951.88892356 Ry
     estimated scf accuracy    <       0.03123977 Ry

     total magnetization       =     0.00 Bohr mag/cell
     absolute magnetization    =     0.23 Bohr mag/cell

     iteration # 86     ecut=    70.00 Ry     beta= 0.70
     Davidson diagonalization with overlap
     ethr =  5.64E-06,  avg # of iterations =  2.0

     negative rho (up, down):  6.014E-03 1.095E-01

     total cpu time spent up to now is    10605.8 secs

     total energy              =    -951.88707493 Ry
     Harris-Foulkes estimate   =    -951.89037631 Ry
     estimated scf accuracy    <       0.11567068 Ry

     total magnetization       =    -0.00 Bohr mag/cell
     absolute magnetization    =     0.32 Bohr mag/cell

     iteration # 87     ecut=    70.00 Ry     beta= 0.70
     Davidson diagonalization with overlap
     ethr =  5.64E-06,  avg # of iterations =  3.0

     negative rho (up, down):  2.633E-03 1.906E-01

     total cpu time spent up to now is    10717.3 secs

     total energy              =    -951.88918620 Ry
     Harris-Foulkes estimate   =    -951.88854056 Ry
     estimated scf accuracy    <       0.06201612 Ry

     total magnetization       =     0.00 Bohr mag/cell
     absolute magnetization    =     0.37 Bohr mag/cell

     iteration # 88     ecut=    70.00 Ry     beta= 0.70
     Davidson diagonalization with overlap
     ethr =  5.64E-06,  avg # of iterations =  3.0

     negative rho (up, down):  6.099E-03 2.132E-01

     total cpu time spent up to now is    10832.8 secs

     total energy              =    -951.88326087 Ry
     Harris-Foulkes estimate   =    -951.89361395 Ry
     estimated scf accuracy    <       0.36212987 Ry

     total magnetization       =    -0.00 Bohr mag/cell
     absolute magnetization    =     0.86 Bohr mag/cell

     iteration # 89     ecut=    70.00 Ry     beta= 0.70
     Davidson diagonalization with overlap
     ethr =  5.64E-06,  avg # of iterations =  3.5

     negative rho (up, down):  3.758E-03 1.911E-01

     total cpu time spent up to now is    10948.4 secs

     total energy              =    -951.88754188 Ry
     Harris-Foulkes estimate   =    -951.88685979 Ry
     estimated scf accuracy    <       0.07010003 Ry

     total magnetization       =    -0.12 Bohr mag/cell
     absolute magnetization    =     0.48 Bohr mag/cell

     iteration # 90     ecut=    70.00 Ry     beta= 0.70
     Davidson diagonalization with overlap
     ethr =  5.64E-06,  avg # of iterations =  2.5

     negative rho (up, down):  2.325E-03 2.034E-01

     total cpu time spent up to now is    11049.8 secs

     total energy              =    -951.88815583 Ry
     Harris-Foulkes estimate   =    -951.88803156 Ry
     estimated scf accuracy    <       0.04780732 Ry

     total magnetization       =     0.00 Bohr mag/cell
     absolute magnetization    =     0.32 Bohr mag/cell

     iteration # 91     ecut=    70.00 Ry     beta= 0.70
     Davidson diagonalization with overlap
     ethr =  5.64E-06,  avg # of iterations =  2.5

     negative rho (up, down):  1.446E-03 2.060E-01

     total cpu time spent up to now is    11150.1 secs

     total energy              =    -951.88848938 Ry
     Harris-Foulkes estimate   =    -951.88858071 Ry
     estimated scf accuracy    <       0.03723268 Ry

     total magnetization       =     0.00 Bohr mag/cell
     absolute magnetization    =     0.29 Bohr mag/cell

     iteration # 92     ecut=    70.00 Ry     beta= 0.70
     Davidson diagonalization with overlap
     ethr =  5.64E-06,  avg # of iterations =  3.0

     negative rho (up, down):  1.700E-03 2.034E-01

     total cpu time spent up to now is    11250.9 secs

     total energy              =    -951.88863714 Ry
     Harris-Foulkes estimate   =    -951.88873724 Ry
     estimated scf accuracy    <       0.03890902 Ry

     total magnetization       =     0.00 Bohr mag/cell
     absolute magnetization    =     0.29 Bohr mag/cell

     iteration # 93     ecut=    70.00 Ry     beta= 0.70
     Davidson diagonalization with overlap
     ethr =  5.64E-06,  avg # of iterations =  2.0

     negative rho (up, down):  1.294E-03 2.192E-01

     total cpu time spent up to now is    11351.6 secs

     total energy              =    -951.88687978 Ry
     Harris-Foulkes estimate   =    -951.88969264 Ry
     estimated scf accuracy    <       0.04869958 Ry

     total magnetization       =    -0.00 Bohr mag/cell
     absolute magnetization    =     0.31 Bohr mag/cell

     iteration # 94     ecut=    70.00 Ry     beta= 0.70
     Davidson diagonalization with overlap
     ethr =  5.64E-06,  avg # of iterations =  2.0

     negative rho (up, down):  1.385E-03 1.985E-01

     total cpu time spent up to now is    11457.9 secs

     total energy              =    -951.88906462 Ry
     Harris-Foulkes estimate   =    -951.88891390 Ry
     estimated scf accuracy    <       0.04286462 Ry

     total magnetization       =     0.00 Bohr mag/cell
     absolute magnetization    =     0.32 Bohr mag/cell

     iteration # 95     ecut=    70.00 Ry     beta= 0.70
     Davidson diagonalization with overlap
     ethr =  5.64E-06,  avg # of iterations =  2.5

     negative rho (up, down):  1.564E-03 1.861E-01

     total cpu time spent up to now is    11558.7 secs

     total energy              =    -951.89112387 Ry
     Harris-Foulkes estimate   =    -951.88913498 Ry
     estimated scf accuracy    <       0.04336114 Ry

     total magnetization       =    -0.00 Bohr mag/cell
     absolute magnetization    =     0.31 Bohr mag/cell

     iteration # 96     ecut=    70.00 Ry     beta= 0.70
     Davidson diagonalization with overlap
     ethr =  5.64E-06,  avg # of iterations =  3.0

     negative rho (up, down):  1.525E-02 2.536E-01

     total cpu time spent up to now is    11680.7 secs

     total energy              =    -951.91680410 Ry
     Harris-Foulkes estimate   =    -951.91552216 Ry
     estimated scf accuracy    <       1.67649403 Ry

     total magnetization       =     0.00 Bohr mag/cell
     absolute magnetization    =     1.75 Bohr mag/cell

     iteration # 97     ecut=    70.00 Ry     beta= 0.70
     Davidson diagonalization with overlap
     ethr =  5.64E-06,  avg # of iterations =  4.0

     negative rho (up, down):  2.321E-02 2.769E-01

     total cpu time spent up to now is    11801.6 secs

     total energy              =    -951.89903932 Ry
     Harris-Foulkes estimate   =    -951.92110136 Ry
     estimated scf accuracy    <       2.49717136 Ry

     total magnetization       =    -0.00 Bohr mag/cell
     absolute magnetization    =     2.18 Bohr mag/cell

     iteration # 98     ecut=    70.00 Ry     beta= 0.70
     Davidson diagonalization with overlap
     ethr =  5.64E-06,  avg # of iterations =  4.0

     negative rho (up, down):  2.114E-02 2.842E-01

     total cpu time spent up to now is    11920.0 secs

     total energy              =    -951.90625457 Ry
     Harris-Foulkes estimate   =    -951.90446250 Ry
     estimated scf accuracy    <       1.77423478 Ry

     total magnetization       =     0.00 Bohr mag/cell
     absolute magnetization    =     1.85 Bohr mag/cell

     iteration # 99     ecut=    70.00 Ry     beta= 0.70
     Davidson diagonalization with overlap
     ethr =  5.64E-06,  avg # of iterations =  2.0

     negative rho (up, down):  1.924E-02 2.997E-01

     total cpu time spent up to now is    12022.9 secs

     total energy              =    -951.85939649 Ry
     Harris-Foulkes estimate   =    -951.90698234 Ry
     estimated scf accuracy    <       1.94204827 Ry

     total magnetization       =     0.00 Bohr mag/cell
     absolute magnetization    =     1.96 Bohr mag/cell

     iteration #100     ecut=    70.00 Ry     beta= 0.70
     Davidson diagonalization with overlap
     ethr =  5.64E-06,  avg # of iterations =  4.0

     negative rho (up, down):  1.480E-02 2.411E-01

     Magnetic moment per site:
     atom:    1    charge:    0.2107    magn:   -0.0000    constr:    0.0000
     atom:    2    charge:    0.2106    magn:   -0.0000    constr:    0.0000
     atom:    3    charge:    1.7157    magn:    0.0001    constr:    0.0000
     atom:    4    charge:    1.7148    magn:   -0.0000    constr:    0.0000
     atom:    5    charge:    1.7166    magn:    0.0000    constr:    0.0000
     atom:    6    charge:    1.7145    magn:   -0.0001    constr:    0.0000
     atom:    7    charge:    1.7166    magn:    0.0000    constr:    0.0000
     atom:    8    charge:    1.7156    magn:   -0.0001    constr:    0.0000
     atom:    9    charge:    1.7158    magn:   -0.0000    constr:    0.0000
     atom:   10    charge:    1.7181    magn:    0.0000    constr:    0.0000
     atom:   11    charge:    1.7161    magn:    0.0000    constr:    0.0000
     atom:   12    charge:    1.7179    magn:   -0.0001    constr:    0.0000
     atom:   13    charge:    1.7160    magn:   -0.0000    constr:    0.0000
     atom:   14    charge:    1.7173    magn:   -0.0001    constr:    0.0000
     atom:   15    charge:    1.7115    magn:   -0.0000    constr:    0.0000
     atom:   16    charge:    1.7112    magn:   -0.0002    constr:    0.0000
     atom:   17    charge:    1.7207    magn:    0.0000    constr:    0.0000
     atom:   18    charge:    1.7123    magn:    0.0001    constr:    0.0000
     atom:   19    charge:    1.7124    magn:   -0.0000    constr:    0.0000
     atom:   20    charge:    1.7182    magn:    0.0001    constr:    0.0000
     atom:   21    charge:    1.7162    magn:   -0.0000    constr:    0.0000
     atom:   22    charge:    1.7179    magn:   -0.0001    constr:    0.0000
     atom:   23    charge:    1.7154    magn:    0.0001    constr:    0.0000
     atom:   24    charge:    1.7147    magn:   -0.0001    constr:    0.0000
     atom:   25    charge:    1.7112    magn:    0.0001    constr:    0.0000
     atom:   26    charge:    1.7106    magn:   -0.0000    constr:    0.0000
     atom:   27    charge:    1.8180    magn:    0.0003    constr:    0.0000
     atom:   28    charge:   13.4062    magn:    0.0003    constr:    0.0000
     atom:   29    charge:    1.8209    magn:    0.0001    constr:    0.0000
     atom:   30    charge:    1.7121    magn:   -0.0000    constr:    0.0000
     atom:   31    charge:    1.7123    magn:   -0.0000    constr:    0.0000
     atom:   32    charge:    1.7153    magn:   -0.0001    constr:    0.0000
     atom:   33    charge:    1.7166    magn:    0.0001    constr:    0.0000
     atom:   34    charge:    1.7149    magn:   -0.0002    constr:    0.0000
     atom:   35    charge:    1.7162    magn:    0.0001    constr:    0.0000
     atom:   36    charge:    1.7141    magn:   -0.0000    constr:    0.0000
     atom:   37    charge:    1.7199    magn:    0.0001    constr:    0.0000
     atom:   38    charge:    1.7107    magn:   -0.0000    constr:    0.0000
     atom:   39    charge:    1.8180    magn:    0.0002    constr:    0.0000
     atom:   40    charge:    1.7110    magn:   -0.0002    constr:    0.0000
     atom:   41    charge:    1.7207    magn:    0.0000    constr:    0.0000
     atom:   42    charge:    1.7141    magn:   -0.0001    constr:    0.0000
     atom:   43    charge:    1.7165    magn:   -0.0000    constr:    0.0000
     atom:   44    charge:    1.7150    magn:   -0.0002    constr:    0.0000
     atom:   45    charge:    1.7208    magn:    0.0003    constr:    0.0000
     atom:   46    charge:    1.7150    magn:   -0.0001    constr:    0.0000
     atom:   47    charge:    1.7162    magn:    0.0001    constr:    0.0000
     atom:   48    charge:    1.7149    magn:   -0.0000    constr:    0.0000
     atom:   49    charge:    1.7116    magn:   -0.0000    constr:    0.0000
     atom:   50    charge:    1.7173    magn:    0.0000    constr:    0.0000
     atom:   51    charge:    1.7116    magn:   -0.0001    constr:    0.0000
     atom:   52    charge:    1.7148    magn:   -0.0001    constr:    0.0000

     total cpu time spent up to now is    12162.0 secs

     total energy              =    -951.87300071 Ry
     Harris-Foulkes estimate   =    -951.88139906 Ry
     estimated scf accuracy    <       0.41787485 Ry

     total magnetization       =    -0.00 Bohr mag/cell
     absolute magnetization    =     0.78 Bohr mag/cell

     iteration #101     ecut=    70.00 Ry     beta= 0.70
     Davidson diagonalization with overlap
     ethr =  5.64E-06,  avg # of iterations =  3.5

     negative rho (up, down):  2.333E-03 2.168E-01

     total cpu time spent up to now is    12284.0 secs

     total energy              =    -951.88609352 Ry
     Harris-Foulkes estimate   =    -951.88186546 Ry
     estimated scf accuracy    <       0.01744324 Ry

     total magnetization       =    -0.01 Bohr mag/cell
     absolute magnetization    =     0.12 Bohr mag/cell

     iteration #102     ecut=    70.00 Ry     beta= 0.70
     Davidson diagonalization with overlap
     ethr =  5.64E-06,  avg # of iterations =  4.0

     negative rho (up, down):  2.796E-03 1.416E-01

     total cpu time spent up to now is    12400.6 secs

     total energy              =    -951.89116440 Ry
     Harris-Foulkes estimate   =    -951.88906332 Ry
     estimated scf accuracy    <       0.06806054 Ry

     total magnetization       =    -0.00 Bohr mag/cell
     absolute magnetization    =     0.32 Bohr mag/cell

     iteration #103     ecut=    70.00 Ry     beta= 0.70
     Davidson diagonalization with overlap
     ethr =  5.64E-06,  avg # of iterations =  4.0

     negative rho (up, down):  2.091E-03 2.599E-01

     total cpu time spent up to now is    12512.3 secs

     total energy              =    -951.88555190 Ry
     Harris-Foulkes estimate   =    -951.89314903 Ry
     estimated scf accuracy    <       0.25563971 Ry

     total magnetization       =     0.00 Bohr mag/cell
     absolute magnetization    =     0.75 Bohr mag/cell

     iteration #104     ecut=    70.00 Ry     beta= 0.70
     Davidson diagonalization with overlap
     ethr =  5.64E-06,  avg # of iterations =  3.5

     negative rho (up, down):  2.051E-03 2.090E-01

     total cpu time spent up to now is    12630.7 secs

     total energy              =    -951.88596052 Ry
     Harris-Foulkes estimate   =    -951.88891092 Ry
     estimated scf accuracy    <       0.04726280 Ry

     total magnetization       =     0.00 Bohr mag/cell
     absolute magnetization    =     0.25 Bohr mag/cell

     iteration #105     ecut=    70.00 Ry     beta= 0.70
     Davidson diagonalization with overlap
     ethr =  5.64E-06,  avg # of iterations =  3.0

     negative rho (up, down):  2.103E-03 2.043E-01

     total cpu time spent up to now is    12744.8 secs

     total energy              =    -951.88453992 Ry
     Harris-Foulkes estimate   =    -951.88898011 Ry
     estimated scf accuracy    <       0.05317658 Ry

     total magnetization       =     0.00 Bohr mag/cell
     absolute magnetization    =     0.29 Bohr mag/cell

     iteration #106     ecut=    70.00 Ry     beta= 0.70
     Davidson diagonalization with overlap
     ethr =  5.64E-06,  avg # of iterations =  3.0

     negative rho (up, down):  3.611E-03 1.714E-01

     total cpu time spent up to now is    12861.0 secs

     total energy              =    -951.88805724 Ry
     Harris-Foulkes estimate   =    -951.89038569 Ry
     estimated scf accuracy    <       0.15338877 Ry

     total magnetization       =     0.00 Bohr mag/cell
     absolute magnetization    =     0.50 Bohr mag/cell

     iteration #107     ecut=    70.00 Ry     beta= 0.70
     Davidson diagonalization with overlap
     ethr =  5.64E-06,  avg # of iterations =  3.0

     negative rho (up, down):  3.789E-03 1.847E-01

     total cpu time spent up to now is    12966.4 secs

     total energy              =    -951.88948069 Ry
     Harris-Foulkes estimate   =    -951.88895904 Ry
     estimated scf accuracy    <       0.08219460 Ry

     total magnetization       =    -0.00 Bohr mag/cell
     absolute magnetization    =     0.39 Bohr mag/cell

     iteration #108     ecut=    70.00 Ry     beta= 0.70
     Davidson diagonalization with overlap
     ethr =  5.64E-06,  avg # of iterations =  2.0

     negative rho (up, down):  4.808E-03 1.987E-01

     total cpu time spent up to now is    13066.3 secs

     total energy              =    -951.88708731 Ry
     Harris-Foulkes estimate   =    -951.88970840 Ry
     estimated scf accuracy    <       0.14314603 Ry

     total magnetization       =    -0.00 Bohr mag/cell
     absolute magnetization    =     0.52 Bohr mag/cell

     iteration #109     ecut=    70.00 Ry     beta= 0.70
     Davidson diagonalization with overlap
     ethr =  5.64E-06,  avg # of iterations =  2.0

     negative rho (up, down):  3.589E-03 2.125E-01

     total cpu time spent up to now is    13170.9 secs

     total energy              =    -951.88746033 Ry
     Harris-Foulkes estimate   =    -951.88802795 Ry
     estimated scf accuracy    <       0.09061629 Ry

     total magnetization       =     0.00 Bohr mag/cell
     absolute magnetization    =     0.43 Bohr mag/cell

     iteration #110     ecut=    70.00 Ry     beta= 0.70
     Davidson diagonalization with overlap
     ethr =  5.64E-06,  avg # of iterations =  2.0

     negative rho (up, down):  3.437E-03 1.874E-01

     total cpu time spent up to now is    13272.4 secs

     total energy              =    -951.88668952 Ry
     Harris-Foulkes estimate   =    -951.88811227 Ry
     estimated scf accuracy    <       0.05391494 Ry

     total magnetization       =     0.00 Bohr mag/cell
     absolute magnetization    =     0.30 Bohr mag/cell

     iteration #111     ecut=    70.00 Ry     beta= 0.70
     Davidson diagonalization with overlap
     ethr =  5.64E-06,  avg # of iterations =  2.0

     negative rho (up, down):  2.949E-03 1.758E-01

     total cpu time spent up to now is    13379.5 secs

     total energy              =    -951.88615236 Ry
     Harris-Foulkes estimate   =    -951.88892949 Ry
     estimated scf accuracy    <       0.05439705 Ry

     total magnetization       =    -0.00 Bohr mag/cell
     absolute magnetization    =     0.25 Bohr mag/cell

[...]
     ethr =  1.44E-09,  avg # of iterations =  2.0

     negative rho (up, down):  1.156E-03 3.909E-03

     total cpu time spent up to now is    23426.7 secs

     total energy              =    -951.88895731 Ry
     Harris-Foulkes estimate   =    -951.88895719 Ry
     estimated scf accuracy    <       0.00000373 Ry

     total magnetization       =     0.00 Bohr mag/cell
     absolute magnetization    =     0.00 Bohr mag/cell

     iteration #210     ecut=    70.00 Ry     beta= 0.70
     Davidson diagonalization with overlap
     ethr =  1.44E-09,  avg # of iterations =  2.0

     negative rho (up, down):  1.156E-03 3.165E-03

     total cpu time spent up to now is    23525.1 secs

     total energy              =    -951.88895743 Ry
     Harris-Foulkes estimate   =    -951.88895739 Ry
     estimated scf accuracy    <       0.00000355 Ry

     total magnetization       =     0.00 Bohr mag/cell
     absolute magnetization    =     0.00 Bohr mag/cell

     iteration #211     ecut=    70.00 Ry     beta= 0.70
     Davidson diagonalization with overlap
     ethr =  1.44E-09,  avg # of iterations =  1.5

     negative rho (up, down):  1.156E-03 2.131E-03

     total cpu time spent up to now is    23623.0 secs

     total energy              =    -951.88895747 Ry
     Harris-Foulkes estimate   =    -951.88895747 Ry
     estimated scf accuracy    <       0.00000136 Ry

     total magnetization       =    -0.00 Bohr mag/cell
     absolute magnetization    =     0.00 Bohr mag/cell

     iteration #212     ecut=    70.00 Ry     beta= 0.70
     Davidson diagonalization with overlap
     ethr =  6.30E-10,  avg # of iterations =  2.0

     negative rho (up, down):  1.156E-03 1.917E-03

     total cpu time spent up to now is    23725.6 secs

     total energy              =    -951.88895759 Ry
     Harris-Foulkes estimate   =    -951.88895763 Ry
     estimated scf accuracy    <       0.00000369 Ry

     total magnetization       =     0.00 Bohr mag/cell
     absolute magnetization    =     0.00 Bohr mag/cell

     iteration #213     ecut=    70.00 Ry     beta= 0.70
     Davidson diagonalization with overlap
     ethr =  6.30E-10,  avg # of iterations =  1.5

     negative rho (up, down):  1.156E-03 4.861E-03

     total cpu time spent up to now is    23827.4 secs

     total energy              =    -951.88895733 Ry
     Harris-Foulkes estimate   =    -951.88895772 Ry
     estimated scf accuracy    <       0.00001150 Ry

     total magnetization       =     0.00 Bohr mag/cell
     absolute magnetization    =     0.00 Bohr mag/cell

     iteration #214     ecut=    70.00 Ry     beta= 0.70
     Davidson diagonalization with overlap
     ethr =  6.30E-10,  avg # of iterations =  1.0

     negative rho (up, down):  1.156E-03 5.113E-03

     total cpu time spent up to now is    23925.8 secs

     total energy              =    -951.88895677 Ry
     Harris-Foulkes estimate   =    -951.88895734 Ry
     estimated scf accuracy    <       0.00000859 Ry

     total magnetization       =     0.00 Bohr mag/cell
     absolute magnetization    =     0.00 Bohr mag/cell

     iteration #215     ecut=    70.00 Ry     beta= 0.70
     Davidson diagonalization with overlap
     ethr =  6.30E-10,  avg # of iterations =  3.0

     negative rho (up, down):  1.156E-03 1.848E-03

     total cpu time spent up to now is    24034.9 secs

     total energy              =    -951.88895731 Ry
     Harris-Foulkes estimate   =    -951.88895729 Ry
     estimated scf accuracy    <       0.00000290 Ry

     total magnetization       =     0.00 Bohr mag/cell
     absolute magnetization    =     0.00 Bohr mag/cell

     iteration #216     ecut=    70.00 Ry     beta= 0.70
     Davidson diagonalization with overlap
     ethr =  6.30E-10,  avg # of iterations =  2.0

     negative rho (up, down):  1.156E-03 2.360E-03

     total cpu time spent up to now is    24135.9 secs

     total energy              =    -951.88895743 Ry
     Harris-Foulkes estimate   =    -951.88895750 Ry
     estimated scf accuracy    <       0.00000213 Ry

     total magnetization       =     0.00 Bohr mag/cell
     absolute magnetization    =     0.00 Bohr mag/cell

     iteration #217     ecut=    70.00 Ry     beta= 0.70
     Davidson diagonalization with overlap
     ethr =  6.30E-10,  avg # of iterations =  2.0

     negative rho (up, down):  1.155E-03 4.689E-04

     total cpu time spent up to now is    24237.5 secs

     total energy              =    -951.88895750 Ry
     Harris-Foulkes estimate   =    -951.88895754 Ry
     estimated scf accuracy    <       0.00000130 Ry

     total magnetization       =     0.00 Bohr mag/cell
     absolute magnetization    =     0.00 Bohr mag/cell

     iteration #218     ecut=    70.00 Ry     beta= 0.70
     Davidson diagonalization with overlap
     ethr =  6.04E-10,  avg # of iterations =  2.0

     negative rho (up, down):  1.155E-03 3.380E-03

     total cpu time spent up to now is    24340.3 secs

     total energy              =    -951.88895745 Ry
     Harris-Foulkes estimate   =    -951.88895767 Ry
     estimated scf accuracy    <       0.00000661 Ry

     total magnetization       =     0.00 Bohr mag/cell
     absolute magnetization    =     0.00 Bohr mag/cell

     iteration #219     ecut=    70.00 Ry     beta= 0.70
     Davidson diagonalization with overlap
     ethr =  6.04E-10,  avg # of iterations =  2.0

     negative rho (up, down):  1.155E-03 3.186E-03

     total cpu time spent up to now is    24438.8 secs

     total energy              =    -951.88895766 Ry
     Harris-Foulkes estimate   =    -951.88895747 Ry
     estimated scf accuracy    <       0.00000378 Ry

     total magnetization       =     0.00 Bohr mag/cell
     absolute magnetization    =     0.00 Bohr mag/cell

     iteration #220     ecut=    70.00 Ry     beta= 0.70
     Davidson diagonalization with overlap
     ethr =  6.04E-10,  avg # of iterations =  2.5

     negative rho (up, down):  1.156E-03 1.328E-02

     total cpu time spent up to now is    24549.7 secs

     total energy              =    -951.88895401 Ry
     Harris-Foulkes estimate   =    -951.88895857 Ry
     estimated scf accuracy    <       0.00007579 Ry

     total magnetization       =    -0.00 Bohr mag/cell
     absolute magnetization    =     0.01 Bohr mag/cell

     iteration #221     ecut=    70.00 Ry     beta= 0.70
     Davidson diagonalization with overlap
     ethr =  6.04E-10,  avg # of iterations =  3.0

     negative rho (up, down):  1.156E-03 4.383E-03

     total cpu time spent up to now is    24665.2 secs

     total energy              =    -951.88895670 Ry
     Harris-Foulkes estimate   =    -951.88895544 Ry
     estimated scf accuracy    <       0.00000959 Ry

     total magnetization       =    -0.00 Bohr mag/cell
     absolute magnetization    =     0.00 Bohr mag/cell

     iteration #222     ecut=    70.00 Ry     beta= 0.70
     Davidson diagonalization with overlap
     ethr =  6.04E-10,  avg # of iterations =  2.5

     negative rho (up, down):  1.155E-03 4.550E-05

     Magnetic moment per site:
     atom:    1    charge:    0.2107    magn:    0.0000    constr:    0.0000
     atom:    2    charge:    0.2106    magn:    0.0000    constr:    0.0000
     atom:    3    charge:    1.7155    magn:   -0.0000    constr:    0.0000
     atom:    4    charge:    1.7152    magn:   -0.0000    constr:    0.0000
     atom:    5    charge:    1.7168    magn:   -0.0000    constr:    0.0000
     atom:    6    charge:    1.7146    magn:   -0.0000    constr:    0.0000
     atom:    7    charge:    1.7168    magn:    0.0000    constr:    0.0000
     atom:    8    charge:    1.7152    magn:    0.0000    constr:    0.0000
     atom:    9    charge:    1.7155    magn:    0.0000    constr:    0.0000
     atom:   10    charge:    1.7177    magn:    0.0000    constr:    0.0000
     atom:   11    charge:    1.7155    magn:   -0.0000    constr:    0.0000
     atom:   12    charge:    1.7177    magn:    0.0000    constr:    0.0000
     atom:   13    charge:    1.7155    magn:    0.0000    constr:    0.0000
     atom:   14    charge:    1.7175    magn:   -0.0000    constr:    0.0000
     atom:   15    charge:    1.7118    magn:    0.0000    constr:    0.0000
     atom:   16    charge:    1.7114    magn:    0.0000    constr:    0.0000
     atom:   17    charge:    1.7207    magn:   -0.0000    constr:    0.0000
     atom:   18    charge:    1.7114    magn:   -0.0000    constr:    0.0000
     atom:   19    charge:    1.7118    magn:   -0.0000    constr:    0.0000
     atom:   20    charge:    1.7176    magn:    0.0000    constr:    0.0000
     atom:   21    charge:    1.7156    magn:   -0.0000    constr:    0.0000
     atom:   22    charge:    1.7177    magn:   -0.0000    constr:    0.0000
     atom:   23    charge:    1.7155    magn:   -0.0000    constr:    0.0000
     atom:   24    charge:    1.7152    magn:   -0.0000    constr:    0.0000
     atom:   25    charge:    1.7117    magn:    0.0000    constr:    0.0000
     atom:   26    charge:    1.7113    magn:    0.0000    constr:    0.0000
     atom:   27    charge:    1.8183    magn:   -0.0000    constr:    0.0000
     atom:   28    charge:   13.4053    magn:    0.0000    constr:    0.0000
     atom:   29    charge:    1.8183    magn:   -0.0000    constr:    0.0000
     atom:   30    charge:    1.7114    magn:    0.0000    constr:    0.0000
     atom:   31    charge:    1.7118    magn:    0.0000    constr:    0.0000
     atom:   32    charge:    1.7152    magn:    0.0000    constr:    0.0000
     atom:   33    charge:    1.7168    magn:   -0.0000    constr:    0.0000
     atom:   34    charge:    1.7154    magn:   -0.0000    constr:    0.0000
     atom:   35    charge:    1.7168    magn:   -0.0000    constr:    0.0000
     atom:   36    charge:    1.7146    magn:   -0.0000    constr:    0.0000
     atom:   37    charge:    1.7204    magn:   -0.0000    constr:    0.0000
     atom:   38    charge:    1.7113    magn:   -0.0000    constr:    0.0000
     atom:   39    charge:    1.8182    magn:    0.0000    constr:    0.0000
     atom:   40    charge:    1.7113    magn:   -0.0000    constr:    0.0000
     atom:   41    charge:    1.7206    magn:    0.0000    constr:    0.0000
     atom:   42    charge:    1.7146    magn:    0.0000    constr:    0.0000
     atom:   43    charge:    1.7168    magn:   -0.0000    constr:    0.0000
     atom:   44    charge:    1.7154    magn:    0.0000    constr:    0.0000
     atom:   45    charge:    1.7212    magn:   -0.0000    constr:    0.0000
     atom:   46    charge:    1.7154    magn:    0.0000    constr:    0.0000
     atom:   47    charge:    1.7168    magn:   -0.0000    constr:    0.0000
     atom:   48    charge:    1.7152    magn:   -0.0000    constr:    0.0000
     atom:   49    charge:    1.7117    magn:    0.0000    constr:    0.0000
     atom:   50    charge:    1.7175    magn:    0.0000    constr:    0.0000
     atom:   51    charge:    1.7117    magn:   -0.0000    constr:    0.0000
     atom:   52    charge:    1.7152    magn:    0.0000    constr:    0.0000

     total cpu time spent up to now is    24770.5 secs

     End of self-consistent calculation

 ------ SPIN UP ------------


          k = 0.0000 0.0000 0.0000 ( 87777 PWs)   bands (ev):

  -107.9006 -69.0704 -69.0689 -66.9834 -19.8181 -18.9985 -18.9974 -18.8814
   -18.8808 -18.7963 -18.7262 -17.1548 -17.1538 -17.1203 -17.0709 -17.0705
   -16.7453 -16.3039 -16.3033 -16.1578 -16.1575 -16.1446 -15.6608 -14.3012
   -14.3002 -14.1412 -14.0089 -14.0086 -13.5061 -13.1203 -13.1203 -13.0689
   -12.8924 -12.8922 -12.4918 -12.0664 -12.0660 -11.7040 -11.5596 -11.5596
   -10.9250 -10.4210 -10.4204  -9.5671  -9.3572  -9.3569  -9.2189  -9.2039
    -9.2038  -9.1892  -8.9439  -8.9437  -8.5842  -8.5839  -8.4465  -7.9461
    -7.8932  -7.8442  -7.8308  -7.6551  -7.5331  -7.5329  -7.4397  -7.4394
    -6.8527  -6.8370  -6.8149  -6.7977  -6.7379  -6.6106  -6.6104  -6.5477
    -6.5430  -6.5426  -6.5091  -6.4527  -6.4152  -6.3955  -6.3403  -6.2797
    -6.2794  -5.5386  -5.5385  -5.0221  -4.9418  -4.8341  -4.8338  -4.7505
    -4.7087  -4.7053  -4.4165  -4.3911  -4.3881  -3.8289  -3.8272  -3.7576
    -3.7511  -3.7508  -3.6975  -3.4108  -3.4077  -3.3391  -1.8839  -1.7994
    -1.7990  -1.5820  -1.5804  -1.1505   0.1212   0.1233   0.9118   0.9698
     0.9703   1.2207   1.2214   1.5580   2.5039   2.8105   2.8109   2.8606
     3.0485   3.0492   3.4047   3.5007   3.6192   3.7323   3.7363   3.7633
     3.9341   4.2683

     occupation numbers 
     1.0000   1.0000   1.0000   1.0000   1.0000   1.0000   1.0000   1.0000
     1.0000   1.0000   1.0000   1.0000   1.0000   1.0000   1.0000   1.0000
     1.0000   1.0000   1.0000   1.0000   1.0000   1.0000   1.0000   1.0000
     1.0000   1.0000   1.0000   1.0000   1.0000   1.0000   1.0000   1.0000
     1.0000   1.0000   1.0000   1.0000   1.0000   1.0000   1.0000   1.0000
     1.0000   1.0000   1.0000   1.0000   1.0000   1.0000   1.0000   1.0000
     1.0000   1.0000   1.0000   1.0000   1.0000   1.0000   1.0000   1.0000
     1.0000   1.0000   1.0000   1.0000   1.0000   1.0000   1.0000   1.0000
     1.0000   1.0000   1.0000   1.0000   1.0000   1.0000   1.0000   1.0000
     1.0000   1.0000   1.0000   1.0000   1.0000   1.0000   1.0000   1.0000
     1.0000   1.0000   1.0000   1.0000   1.0000   1.0000   1.0000   1.0000
     1.0000   1.0000   1.0000   1.0000   1.0000   1.0000   1.0000   1.0000
     1.0000   1.0000   1.0000   1.0000   1.0000   1.0000   1.0000   1.0000
     1.0000   1.0000   1.0000   1.0000   0.0000   0.0000   0.0000   0.0000
     0.0000   0.0000   0.0000   0.0000   0.0000   0.0000   0.0000   0.0000
     0.0000   0.0000   0.0000   0.0000   0.0000   0.0000   0.0000   0.0000
     0.0000   0.0000

 ------ SPIN DOWN ----------


          k = 0.0000 0.0000 0.0000 ( 87777 PWs)   bands (ev):

  -107.9006 -69.0704 -69.0688 -66.9834 -19.8181 -18.9985 -18.9974 -18.8814
   -18.8808 -18.7963 -18.7262 -17.1548 -17.1538 -17.1203 -17.0709 -17.0705
   -16.7453 -16.3039 -16.3033 -16.1578 -16.1575 -16.1446 -15.6608 -14.3012
   -14.3002 -14.1412 -14.0089 -14.0086 -13.5061 -13.1203 -13.1203 -13.0689
   -12.8924 -12.8922 -12.4918 -12.0664 -12.0660 -11.7040 -11.5596 -11.5596
   -10.9250 -10.4210 -10.4204  -9.5671  -9.3572  -9.3569  -9.2189  -9.2039
    -9.2038  -9.1892  -8.9439  -8.9437  -8.5842  -8.5839  -8.4465  -7.9461
    -7.8932  -7.8442  -7.8308  -7.6551  -7.5331  -7.5329  -7.4397  -7.4394
    -6.8527  -6.8370  -6.8149  -6.7977  -6.7379  -6.6106  -6.6104  -6.5477
    -6.5430  -6.5426  -6.5091  -6.4528  -6.4152  -6.3955  -6.3402  -6.2797
    -6.2794  -5.5386  -5.5385  -5.0221  -4.9418  -4.8341  -4.8338  -4.7505
    -4.7087  -4.7053  -4.4165  -4.3911  -4.3881  -3.8289  -3.8272  -3.7576
    -3.7511  -3.7508  -3.6975  -3.4108  -3.4077  -3.3391  -1.8839  -1.7994
    -1.7990  -1.5820  -1.5803  -1.1505   0.1212   0.1233   0.9118   0.9698
     0.9703   1.2207   1.2214   1.5580   2.5041   2.8105   2.8109   2.8606
     3.0485   3.0492   3.4046   3.5006   3.6193   3.7326   3.7365   3.7638
     3.9341   4.2683

     occupation numbers 
     1.0000   1.0000   1.0000   1.0000   1.0000   1.0000   1.0000   1.0000
     1.0000   1.0000   1.0000   1.0000   1.0000   1.0000   1.0000   1.0000
     1.0000   1.0000   1.0000   1.0000   1.0000   1.0000   1.0000   1.0000
     1.0000   1.0000   1.0000   1.0000   1.0000   1.0000   1.0000   1.0000
     1.0000   1.0000   1.0000   1.0000   1.0000   1.0000   1.0000   1.0000
     1.0000   1.0000   1.0000   1.0000   1.0000   1.0000   1.0000   1.0000
     1.0000   1.0000   1.0000   1.0000   1.0000   1.0000   1.0000   1.0000
     1.0000   1.0000   1.0000   1.0000   1.0000   1.0000   1.0000   1.0000
     1.0000   1.0000   1.0000   1.0000   1.0000   1.0000   1.0000   1.0000
     1.0000   1.0000   1.0000   1.0000   1.0000   1.0000   1.0000   1.0000
     1.0000   1.0000   1.0000   1.0000   1.0000   1.0000   1.0000   1.0000
     1.0000   1.0000   1.0000   1.0000   1.0000   1.0000   1.0000   1.0000
     1.0000   1.0000   1.0000   1.0000   1.0000   1.0000   1.0000   1.0000
     1.0000   1.0000   1.0000   1.0000   0.0000   0.0000   0.0000   0.0000
     0.0000   0.0000   0.0000   0.0000   0.0000   0.0000   0.0000   0.0000
     0.0000   0.0000   0.0000   0.0000   0.0000   0.0000   0.0000   0.0000
     0.0000   0.0000

     the Fermi energy is    -0.9649 ev

!    total energy              =    -951.88895755 Ry
     Harris-Foulkes estimate   =    -951.88895694 Ry
     estimated scf accuracy    <       0.00000040 Ry

     The total energy is the sum of the following terms:

     one-electron contribution =   -2979.23530747 Ry
     hartree contribution      =    1532.33533520 Ry
     xc contribution           =    -265.72357278 Ry
     ewald contribution        =     760.73458751 Ry
     smearing contrib. (-TS)   =       0.00000000 Ry

     total magnetization       =     0.00 Bohr mag/cell
     absolute magnetization    =     0.00 Bohr mag/cell

     convergence has been achieved in 222 iterations

     Writing output data file rotate-0.save/

     init_run     :     79.71s CPU     83.02s WALL (       1 calls)
     electrons    :  24286.00s CPU  24686.41s WALL (       1 calls)

     Called by init_run:
     wfcinit      :     50.66s CPU     50.98s WALL (       1 calls)
     wfcinit:atom :      0.06s CPU      0.10s WALL (       2 calls)
     wfcinit:wfcr :     50.21s CPU     50.44s WALL (       2 calls)
     potinit      :     12.82s CPU     14.45s WALL (       1 calls)
     hinit0       :      6.96s CPU      7.10s WALL (       1 calls)

     Called by electrons:
     c_bands      :  15654.50s CPU  15731.07s WALL (     222 calls)
     sum_band     :   5109.80s CPU   5240.61s WALL (     222 calls)
     v_of_rho     :   1639.18s CPU   1715.32s WALL (     223 calls)
     v_h          :     16.76s CPU     17.23s WALL (     223 calls)
     v_xc         :   1622.41s CPU   1698.09s WALL (     223 calls)
     newd         :   1732.89s CPU   1849.57s WALL (     223 calls)
     mix_rho      :    113.82s CPU    115.57s WALL (     222 calls)

     Called by c_bands:
     init_us_2    :     47.55s CPU     47.68s WALL (     890 calls)
     cegterg      :  15539.15s CPU  15615.15s WALL (     444 calls)

     Called by sum_band:
     sum_band:bec :      0.37s CPU      0.38s WALL (     444 calls)
     addusdens    :   3111.49s CPU   3231.71s WALL (     222 calls)

     Called by *egterg:
     h_psi        :   8233.48s CPU   8285.06s WALL (    1553 calls)
     s_psi        :   2811.89s CPU   2813.04s WALL (    1553 calls)
     g_psi        :      7.97s CPU      7.99s WALL (    1107 calls)
     cdiaghg      :    103.90s CPU    103.96s WALL (    1551 calls)
     cegterg:over :   1805.93s CPU   1806.63s WALL (    1107 calls)
     cegterg:upda :   1064.10s CPU   1070.47s WALL (    1107 calls)
     cegterg:last :    788.68s CPU    788.94s WALL (     444 calls)

     Called by h_psi:
     h_psi:pot    :   8224.25s CPU   8266.29s WALL (    1553 calls)
     h_psi:calbec :   2808.36s CPU   2809.45s WALL (    1553 calls)
     vloc_psi     :   2605.64s CPU   2645.78s WALL (    1553 calls)
     add_vuspsi   :   2810.22s CPU   2811.05s WALL (    1553 calls)

     General routines
     calbec       :   4063.47s CPU   4065.04s WALL (    1997 calls)
     fft          :    936.46s CPU    965.37s WALL (   16719 calls)
     ffts         :     16.94s CPU     17.48s WALL (     890 calls)
     fftw         :   2764.27s CPU   2807.74s WALL (  315702 calls)
     interpolate  :     38.29s CPU     39.22s WALL (     446 calls)

     Parallel routines
     fft_scatt_xy :    691.60s CPU    699.15s WALL (  333311 calls)
     fft_scatt_yz :   1165.33s CPU   1218.40s WALL (  333311 calls)

     PWSCF        :      6h46m CPU      6h52m WALL


   This run was terminated on:  21:57:38  19Jan2023            

=------------------------------------------------------------------------------=
   JOB DONE.
=------------------------------------------------------------------------------=
