
     Program PWSCF v.6.4.1 starts on  3Sep2022 at  7:17:20 

     This program is part of the open-source Quantum ESPRESSO suite
     for quantum simulation of materials; please cite
         "P. Giannozzi et al., J. Phys.:Condens. Matter 21 395502 (2009);
         "P. Giannozzi et al., J. Phys.:Condens. Matter 29 465901 (2017);
          URL http://www.quantum-espresso.org", 
     in publications or presentations arising from this work. More details at
     http://www.quantum-espresso.org/quote

     Parallel version (MPI), running on     6 processors

     MPI processes distributed on     1 nodes
     R & G space division:  proc/nbgrp/npool/nimage =       6
     Reading input from distance-3.0.in

     Current dimensions of program PWSCF are:
     Max number of different atomic species (ntypx) = 10
     Max number of k-points (npk) =  40000
     Max angular momentum in pseudopotentials (lmaxx) =  3

     IMPORTANT: XC functional enforced from input :
     Exchange-correlation      = RVV10 ( 1  4 13  4 3 0)
     Any further DFT definition will be discarded
     Please, verify this is what you really want

               file H.pbe-rrkjus.UPF: wavefunction(s)  1S renormalized
               file Mn.pbe-spn-rrkjus_psl.0.3.1.UPF: wavefunction(s)  3D renormalized

     Subspace diagonalization in iterative solution of the eigenvalue problem:
     a serial algorithm will be used


     Parallelization info
     --------------------
     sticks:   dense  smooth     PW     G-vecs:    dense   smooth      PW
     Min        3051    1746    432               270999   117096   14629
     Max        3053    1747    437               271001   117099   14630
     Sum       18313   10477   2611              1626001   702581   87777



     bravais-lattice index     =            4
     lattice parameter (alat)  =      23.2937  a.u.
     unit-cell volume          =    8879.8548 (a.u.)^3
     number of atoms/cell      =           52
     number of atomic types    =            3
     number of electrons       =       213.00
     number of Kohn-Sham states=          128
     kinetic-energy cutoff     =      70.0000  Ry
     charge density cutoff     =     490.0000  Ry
     convergence threshold     =      1.0E-06
     mixing beta               =       0.7000
     number of iterations used =            8  plain     mixing
     Exchange-correlation      = RVV10 ( 1  4 13  4 3 0)

     celldm(1)=  23.293684  celldm(2)=   0.000000  celldm(3)=   0.811261
     celldm(4)=   0.000000  celldm(5)=   0.000000  celldm(6)=   0.000000

     crystal axes: (cart. coord. in units of alat)
               a(1) = (   1.000000   0.000000   0.000000 )  
               a(2) = (  -0.500000   0.866025   0.000000 )  
               a(3) = (   0.000000   0.000000   0.811261 )  

     reciprocal axes: (cart. coord. in units 2 pi/alat)
               b(1) = (  1.000000  0.577350 -0.000000 )  
               b(2) = (  0.000000  1.154701  0.000000 )  
               b(3) = (  0.000000 -0.000000  1.232649 )  


     PseudoPot. # 1 for H  read from file:
     /home/cristian/Escritorio/Proyecto_Grafeno/pseudopotenciales/H.pbe-rrkjus.UPF
     MD5 check sum: 7cc9d459525c9a0585f487a71c3c9563
     Pseudo is Ultrasoft, Zval =  1.0
     Generated by new atomic code, or converted to UPF format
     Using radial grid of 1061 points,  2 beta functions with: 
                l(1) =   0
                l(2) =   0
     Q(r) pseudized with 0 coefficients 


     PseudoPot. # 2 for C  read from file:
     /home/cristian/Escritorio/Proyecto_Grafeno/pseudopotenciales/C.pbe-n-rrkjus_psl.1.0.0.UPF
     MD5 check sum: 1fdd950c42eb37d8afe3dd2f8d12311e
     Pseudo is Ultrasoft + core correction, Zval =  4.0
     Generated using "atomic" code by A. Dal Corso v.6.3MaX
     Using radial grid of 1073 points,  4 beta functions with: 
                l(1) =   0
                l(2) =   0
                l(3) =   1
                l(4) =   1
     Q(r) pseudized with 0 coefficients 


     PseudoPot. # 3 for Mn read from file:
     /home/cristian/Escritorio/Proyecto_Grafeno/pseudopotenciales/Mn.pbe-spn-rrkjus_psl.0.3.1.UPF
     MD5 check sum: e1cac159bdd2ba70c18e85765a5d4279
     Pseudo is Ultrasoft + core correction, Zval = 15.0
     Generated using "atomic" code by A. Dal Corso v.6.2.2
     Using radial grid of 1187 points,  6 beta functions with: 
                l(1) =   0
                l(2) =   0
                l(3) =   1
                l(4) =   1
                l(5) =   2
                l(6) =   2
     Q(r) pseudized with 0 coefficients 


     vdW kernel table read from file rVV10_kernel_table
     MD5 check sum: b8e2538accc0c0b3206b45ba4daaba6c

     atomic species   valence    mass     pseudopotential
        H              1.00     1.00794     H ( 1.00)
        C              4.00    12.01070     C ( 1.00)
        Mn            15.00    54.93804     Mn( 1.00)

     No symmetry found


                                    s                        frac. trans.

      isym =  1     identity                                     

 cryst.   s( 1) = (     1          0          0      )
                  (     0          1          0      )
                  (     0          0          1      )

 cart.    s( 1) = (  1.0000000  0.0000000  0.0000000 )
                  (  0.0000000  1.0000000  0.0000000 )
                  (  0.0000000  0.0000000  1.0000000 )


     point group C_1 (1)    
     there are  1 classes
     the character table:

       E    
A      1.00

     the symmetry operations in each class and the name of the first element:

     E        1
          identity                                               

   Cartesian axes

     site n.     atom                  positions (alat units)
         1           H   tau(   1) = (   0.2194937   0.4907477   0.2433783  )
         2           H   tau(   2) = (   0.2805063   0.4907477   0.2433783  )
         3           C   tau(   3) = (   0.0000000   0.0000000   0.0000000  )
         4           C   tau(   4) = (   0.0000000   0.1154701   0.0000000  )
         5           C   tau(   5) = (  -0.1000000   0.1732051   0.0000000  )
         6           C   tau(   6) = (  -0.1000000   0.2886751   0.0000000  )
         7           C   tau(   7) = (  -0.2000000   0.3464102   0.0000000  )
         8           C   tau(   8) = (  -0.2000000   0.4618802   0.0000000  )
         9           C   tau(   9) = (  -0.3000000   0.5196152   0.0000000  )
        10           C   tau(  10) = (  -0.3000000   0.6350853   0.0000000  )
        11           C   tau(  11) = (  -0.4000000   0.6928203   0.0000000  )
        12           C   tau(  12) = (  -0.4000000   0.8082904   0.0000000  )
        13           C   tau(  13) = (   0.2000000   0.0000000   0.0000000  )
        14           C   tau(  14) = (   0.2000000   0.1154701   0.0000000  )
        15           C   tau(  15) = (   0.1000000   0.1732051   0.0000000  )
        16           C   tau(  16) = (   0.1000000   0.2886751   0.0000000  )
        17           C   tau(  17) = (   0.0000000   0.3464102   0.0000000  )
        18           C   tau(  18) = (   0.0000000   0.4618802   0.0000000  )
        19           C   tau(  19) = (  -0.1000000   0.5196152   0.0000000  )
        20           C   tau(  20) = (  -0.1000000   0.6350853   0.0000000  )
        21           C   tau(  21) = (  -0.2000000   0.6928203   0.0000000  )
        22           C   tau(  22) = (  -0.2000000   0.8082904   0.0000000  )
        23           C   tau(  23) = (   0.4000000   0.0000000   0.0000000  )
        24           C   tau(  24) = (   0.4000000   0.1154701   0.0000000  )
        25           C   tau(  25) = (   0.3000000   0.1732051   0.0000000  )
        26           C   tau(  26) = (   0.3000000   0.2886751   0.0000000  )
        27           C   tau(  27) = (   0.2000000   0.3464102   0.0000000  )
        28           Mn  tau(  28) = (   0.2000000   0.4618802   0.0000000  )
        29           C   tau(  29) = (   0.1000000   0.5196152   0.0000000  )
        30           C   tau(  30) = (   0.1000000   0.6350853   0.0000000  )
        31           C   tau(  31) = (   0.0000000   0.6928203   0.0000000  )
        32           C   tau(  32) = (   0.0000000   0.8082904   0.0000000  )
        33           C   tau(  33) = (   0.6000000   0.0000000   0.0000000  )
        34           C   tau(  34) = (   0.6000000   0.1154701   0.0000000  )
        35           C   tau(  35) = (   0.5000000   0.1732051   0.0000000  )
        36           C   tau(  36) = (   0.5000000   0.2886751   0.0000000  )
        37           C   tau(  37) = (   0.4000000   0.3464102   0.0000000  )
        38           C   tau(  38) = (   0.4000000   0.4618802   0.0000000  )
        39           C   tau(  39) = (   0.3000000   0.5196152   0.0000000  )
        40           C   tau(  40) = (   0.3000000   0.6350853   0.0000000  )
        41           C   tau(  41) = (   0.2000000   0.6928203   0.0000000  )
        42           C   tau(  42) = (   0.2000000   0.8082904   0.0000000  )
        43           C   tau(  43) = (   0.8000000   0.0000000   0.0000000  )
        44           C   tau(  44) = (   0.8000000   0.1154701   0.0000000  )
        45           C   tau(  45) = (   0.7000000   0.1732051   0.0000000  )
        46           C   tau(  46) = (   0.7000000   0.2886751   0.0000000  )
        47           C   tau(  47) = (   0.6000000   0.3464102   0.0000000  )
        48           C   tau(  48) = (   0.6000000   0.4618802   0.0000000  )
        49           C   tau(  49) = (   0.5000000   0.5196152   0.0000000  )
        50           C   tau(  50) = (   0.5000000   0.6350853   0.0000000  )
        51           C   tau(  51) = (   0.4000000   0.6928203   0.0000000  )
        52           C   tau(  52) = (   0.4000000   0.8082904   0.0000000  )

   Crystallographic axes

     site n.     atom                  positions (cryst. coord.)
         1           H   tau(   1) = (  0.5028270  0.5666667  0.3000000  )
         2           H   tau(   2) = (  0.5638397  0.5666667  0.3000000  )
         3           C   tau(   3) = (  0.0000000  0.0000000  0.0000000  )
         4           C   tau(   4) = (  0.0666667  0.1333333  0.0000000  )
         5           C   tau(   5) = (  0.0000000  0.2000000  0.0000000  )
         6           C   tau(   6) = (  0.0666667  0.3333333  0.0000000  )
         7           C   tau(   7) = (  0.0000000  0.4000000  0.0000000  )
         8           C   tau(   8) = (  0.0666667  0.5333333  0.0000000  )
         9           C   tau(   9) = (  0.0000000  0.6000000  0.0000000  )
        10           C   tau(  10) = (  0.0666667  0.7333333  0.0000000  )
        11           C   tau(  11) = (  0.0000000  0.8000000  0.0000000  )
        12           C   tau(  12) = (  0.0666667  0.9333333  0.0000000  )
        13           C   tau(  13) = (  0.2000000  0.0000000  0.0000000  )
        14           C   tau(  14) = (  0.2666667  0.1333333  0.0000000  )
        15           C   tau(  15) = (  0.2000000  0.2000000  0.0000000  )
        16           C   tau(  16) = (  0.2666667  0.3333333  0.0000000  )
        17           C   tau(  17) = (  0.2000000  0.4000000  0.0000000  )
        18           C   tau(  18) = (  0.2666667  0.5333333  0.0000000  )
        19           C   tau(  19) = (  0.2000000  0.6000000  0.0000000  )
        20           C   tau(  20) = (  0.2666667  0.7333333  0.0000000  )
        21           C   tau(  21) = (  0.2000000  0.8000000  0.0000000  )
        22           C   tau(  22) = (  0.2666667  0.9333333  0.0000000  )
        23           C   tau(  23) = (  0.4000000  0.0000000  0.0000000  )
        24           C   tau(  24) = (  0.4666667  0.1333333  0.0000000  )
        25           C   tau(  25) = (  0.4000000  0.2000000  0.0000000  )
        26           C   tau(  26) = (  0.4666667  0.3333333  0.0000000  )
        27           C   tau(  27) = (  0.4000000  0.4000000  0.0000000  )
        28           Mn  tau(  28) = (  0.4666667  0.5333333  0.0000000  )
        29           C   tau(  29) = (  0.4000000  0.6000000  0.0000000  )
        30           C   tau(  30) = (  0.4666667  0.7333333  0.0000000  )
        31           C   tau(  31) = (  0.4000000  0.8000000  0.0000000  )
        32           C   tau(  32) = (  0.4666667  0.9333333  0.0000000  )
        33           C   tau(  33) = (  0.6000000  0.0000000  0.0000000  )
        34           C   tau(  34) = (  0.6666667  0.1333333  0.0000000  )
        35           C   tau(  35) = (  0.6000000  0.2000000  0.0000000  )
        36           C   tau(  36) = (  0.6666667  0.3333333  0.0000000  )
        37           C   tau(  37) = (  0.6000000  0.4000000  0.0000000  )
        38           C   tau(  38) = (  0.6666667  0.5333333  0.0000000  )
        39           C   tau(  39) = (  0.6000000  0.6000000  0.0000000  )
        40           C   tau(  40) = (  0.6666667  0.7333333  0.0000000  )
        41           C   tau(  41) = (  0.6000000  0.8000000  0.0000000  )
        42           C   tau(  42) = (  0.6666667  0.9333333  0.0000000  )
        43           C   tau(  43) = (  0.8000000  0.0000000  0.0000000  )
        44           C   tau(  44) = (  0.8666667  0.1333333  0.0000000  )
        45           C   tau(  45) = (  0.8000000  0.2000000  0.0000000  )
        46           C   tau(  46) = (  0.8666667  0.3333333  0.0000000  )
        47           C   tau(  47) = (  0.8000000  0.4000000  0.0000000  )
        48           C   tau(  48) = (  0.8666667  0.5333333  0.0000000  )
        49           C   tau(  49) = (  0.8000000  0.6000000  0.0000000  )
        50           C   tau(  50) = (  0.8666667  0.7333333  0.0000000  )
        51           C   tau(  51) = (  0.8000000  0.8000000  0.0000000  )
        52           C   tau(  52) = (  0.8666667  0.9333333  0.0000000  )

     number of k points=     1  Marzari-Vanderbilt smearing, width (Ry)=  0.0010
                       cart. coord. in units 2pi/alat
        k(    1) = (   0.0000000   0.0000000   0.0000000), wk =   2.0000000

                       cryst. coord.
        k(    1) = (   0.0000000   0.0000000   0.0000000), wk =   2.0000000

     Dense  grid:  1626001 G-vectors     FFT dimensions: ( 180, 180, 135)

     Smooth grid:   702581 G-vectors     FFT dimensions: ( 125, 125, 108)

     Dynamical RAM for                 wfc:      28.59 MB

     Dynamical RAM for     wfc (w. buffer):      28.59 MB

     Dynamical RAM for           str. fact:      12.41 MB

     Dynamical RAM for           local pot:       0.00 MB

     Dynamical RAM for          nlocal pot:      92.46 MB

     Dynamical RAM for                qrad:      19.73 MB

     Dynamical RAM for          rho,v,vnew:      29.46 MB

     Dynamical RAM for               rhoin:       9.82 MB

     Dynamical RAM for            rho*nmix:      66.16 MB

     Dynamical RAM for           G-vectors:      16.40 MB

     Dynamical RAM for          h,s,v(r/c):      12.00 MB

     Dynamical RAM for          <psi|beta>:       0.81 MB

     Dynamical RAM for                 psi:     114.35 MB

     Dynamical RAM for                hpsi:     114.35 MB

     Dynamical RAM for                spsi:     114.35 MB

     Dynamical RAM for      wfcinit/wfcrot:      93.90 MB

     Dynamical RAM for           addusdens:     971.75 MB

     Estimated static dynamical RAM per process >     320.00 MB

     Estimated max dynamical RAM per process >       1.26 GB

     Estimated total dynamical RAM >       7.57 GB

     Check: negative core charge=   -0.000002

     Initial potential from superposition of free atoms

     starting charge  212.80506, renormalised to  213.00000

     negative rho (up, down):  6.804E-05 0.000E+00


---------------------------------------------------------------------------------
Carrying out rVV10 run using the following parameters:
Nqs =      20    Nr_points =    1024   r_max =   100.000
b_value =  6.30000    beta =  0.00901
     q_mesh =  0.00010000  0.00030000  0.00058939  0.00100810
               0.00161396  0.00249058  0.00375900  0.00559430
               0.00824984  0.01209221  0.01765183  0.02569619
               0.03733578  0.05417739  0.07854596  0.11380545
               0.16482331  0.23864234  0.34545298  0.50000000

Gradients computed in Reciprocal space

---------------------------------------------------------------------------------


     Starting wfcs are  208 randomized atomic wfcs

     total cpu time spent up to now is       51.6 secs

     Self-consistent Calculation

     iteration #  1     ecut=    70.00 Ry     beta= 0.70
     Davidson diagonalization with overlap
     ethr =  1.00E-02,  avg # of iterations =  2.0

     negative rho (up, down):  1.311E-04 0.000E+00

     total cpu time spent up to now is      115.4 secs

     total energy              =    -822.99905307 Ry
     Harris-Foulkes estimate   =    -828.78812742 Ry
     estimated scf accuracy    <       8.48829024 Ry

     iteration #  2     ecut=    70.00 Ry     beta= 0.70
     Davidson diagonalization with overlap
     ethr =  3.99E-03,  avg # of iterations =  7.0

     negative rho (up, down):  1.614E-04 0.000E+00

     total cpu time spent up to now is      178.3 secs

     total energy              =    -815.60531347 Ry
     Harris-Foulkes estimate   =    -835.62248676 Ry
     estimated scf accuracy    <      82.23192152 Ry

     iteration #  3     ecut=    70.00 Ry     beta= 0.70
     Davidson diagonalization with overlap
     ethr =  3.99E-03,  avg # of iterations =  5.0

     negative rho (up, down):  2.149E-04 0.000E+00

     total cpu time spent up to now is      267.9 secs

     total energy              =    -825.03664251 Ry
     Harris-Foulkes estimate   =    -826.84341513 Ry
     estimated scf accuracy    <       8.25176081 Ry

     iteration #  4     ecut=    70.00 Ry     beta= 0.70
     Davidson diagonalization with overlap
     ethr =  3.87E-03,  avg # of iterations =  3.0

     negative rho (up, down):  2.445E-04 0.000E+00

     total cpu time spent up to now is      316.2 secs

     total energy              =    -825.67276111 Ry
     Harris-Foulkes estimate   =    -826.16961199 Ry
     estimated scf accuracy    <       1.37009051 Ry

     iteration #  5     ecut=    70.00 Ry     beta= 0.70
     Davidson diagonalization with overlap
     ethr =  6.43E-04,  avg # of iterations =  3.0

     negative rho (up, down):  2.619E-04 0.000E+00

     total cpu time spent up to now is      369.0 secs

     total energy              =    -825.88788783 Ry
     Harris-Foulkes estimate   =    -825.97243824 Ry
     estimated scf accuracy    <       0.51698512 Ry

     iteration #  6     ecut=    70.00 Ry     beta= 0.70
     Davidson diagonalization with overlap
     ethr =  2.43E-04,  avg # of iterations =  1.0

     negative rho (up, down):  2.783E-04 0.000E+00

     total cpu time spent up to now is      416.3 secs

     total energy              =    -825.87563287 Ry
     Harris-Foulkes estimate   =    -825.91167609 Ry
     estimated scf accuracy    <       0.14151264 Ry

     iteration #  7     ecut=    70.00 Ry     beta= 0.70
     Davidson diagonalization with overlap
     ethr =  6.64E-05,  avg # of iterations =  8.0

     negative rho (up, down):  3.653E-04 0.000E+00

     total cpu time spent up to now is      469.2 secs

     total energy              =    -825.90012425 Ry
     Harris-Foulkes estimate   =    -825.94502899 Ry
     estimated scf accuracy    <       0.42533322 Ry

     iteration #  8     ecut=    70.00 Ry     beta= 0.70
     Davidson diagonalization with overlap
     ethr =  6.64E-05,  avg # of iterations =  3.0

     negative rho (up, down):  3.694E-04 0.000E+00

     total cpu time spent up to now is      518.1 secs

     total energy              =    -825.89347726 Ry
     Harris-Foulkes estimate   =    -825.91267017 Ry
     estimated scf accuracy    <       0.18789313 Ry

     iteration #  9     ecut=    70.00 Ry     beta= 0.70
     Davidson diagonalization with overlap
     ethr =  6.64E-05,  avg # of iterations =  1.0

     negative rho (up, down):  4.186E-04 0.000E+00

     total cpu time spent up to now is      565.3 secs

     total energy              =    -825.89901834 Ry
     Harris-Foulkes estimate   =    -825.91071797 Ry
     estimated scf accuracy    <       0.22604057 Ry

     iteration # 10     ecut=    70.00 Ry     beta= 0.70
     Davidson diagonalization with overlap
     ethr =  6.64E-05,  avg # of iterations =  1.0

     negative rho (up, down):  4.409E-04 0.000E+00

     total cpu time spent up to now is      612.6 secs

     total energy              =    -825.89661342 Ry
     Harris-Foulkes estimate   =    -825.90397994 Ry
     estimated scf accuracy    <       0.08208621 Ry

     iteration # 11     ecut=    70.00 Ry     beta= 0.70
     Davidson diagonalization with overlap
     ethr =  3.85E-05,  avg # of iterations =  1.0

     negative rho (up, down):  5.692E-04 0.000E+00

     total cpu time spent up to now is      660.0 secs

     total energy              =    -825.88906282 Ry
     Harris-Foulkes estimate   =    -825.90039822 Ry
     estimated scf accuracy    <       0.18010020 Ry

     iteration # 12     ecut=    70.00 Ry     beta= 0.70
     Davidson diagonalization with overlap
     ethr =  3.85E-05,  avg # of iterations =  1.0

     negative rho (up, down):  5.818E-04 0.000E+00

     total cpu time spent up to now is      707.3 secs

     total energy              =    -825.89840341 Ry
     Harris-Foulkes estimate   =    -825.90268873 Ry
     estimated scf accuracy    <       0.26062708 Ry

     iteration # 13     ecut=    70.00 Ry     beta= 0.70
     Davidson diagonalization with overlap
     ethr =  3.85E-05,  avg # of iterations =  1.0

     negative rho (up, down):  5.662E-04 0.000E+00

     total cpu time spent up to now is      755.7 secs

     total energy              =    -825.89521284 Ry
     Harris-Foulkes estimate   =    -825.89973056 Ry
     estimated scf accuracy    <       0.25992342 Ry

     iteration # 14     ecut=    70.00 Ry     beta= 0.70
     Davidson diagonalization with overlap
     ethr =  3.85E-05,  avg # of iterations =  1.0

     negative rho (up, down):  6.093E-04 0.000E+00

     total cpu time spent up to now is      803.3 secs

     total energy              =    -825.89492089 Ry
     Harris-Foulkes estimate   =    -825.89716533 Ry
     estimated scf accuracy    <       0.03620468 Ry

     iteration # 15     ecut=    70.00 Ry     beta= 0.70
     Davidson diagonalization with overlap
     ethr =  1.70E-05,  avg # of iterations =  1.0

     negative rho (up, down):  6.096E-04 0.000E+00

     total cpu time spent up to now is      850.7 secs

     total energy              =    -825.89545099 Ry
     Harris-Foulkes estimate   =    -825.89603823 Ry
     estimated scf accuracy    <       0.00899534 Ry

     iteration # 16     ecut=    70.00 Ry     beta= 0.70
     Davidson diagonalization with overlap
     ethr =  4.22E-06,  avg # of iterations =  1.0

     negative rho (up, down):  6.168E-04 0.000E+00

     total cpu time spent up to now is      898.0 secs

     total energy              =    -825.89562684 Ry
     Harris-Foulkes estimate   =    -825.89616534 Ry
     estimated scf accuracy    <       0.06944834 Ry

     iteration # 17     ecut=    70.00 Ry     beta= 0.70
     Davidson diagonalization with overlap
     ethr =  4.22E-06,  avg # of iterations =  1.0

     negative rho (up, down):  6.549E-04 0.000E+00

     total cpu time spent up to now is      945.3 secs

     total energy              =    -825.89509285 Ry
     Harris-Foulkes estimate   =    -825.89581126 Ry
     estimated scf accuracy    <       0.00618270 Ry

     iteration # 18     ecut=    70.00 Ry     beta= 0.70
     Davidson diagonalization with overlap
     ethr =  2.90E-06,  avg # of iterations = 13.0

     negative rho (up, down):  6.330E-04 0.000E+00

     total cpu time spent up to now is      996.2 secs

     total energy              =    -825.88924585 Ry
     Harris-Foulkes estimate   =    -825.90041595 Ry
     estimated scf accuracy    <       0.57614820 Ry

     iteration # 19     ecut=    70.00 Ry     beta= 0.70
     Davidson diagonalization with overlap
     ethr =  2.90E-06,  avg # of iterations =  2.0

     negative rho (up, down):  6.335E-04 0.000E+00

     total cpu time spent up to now is     1043.9 secs

     total energy              =    -825.89572150 Ry
     Harris-Foulkes estimate   =    -825.89582296 Ry
     estimated scf accuracy    <       0.01246095 Ry

     iteration # 20     ecut=    70.00 Ry     beta= 0.70
     Davidson diagonalization with overlap
     ethr =  2.90E-06,  avg # of iterations =  1.0

     negative rho (up, down):  6.370E-04 0.000E+00

     total cpu time spent up to now is     1091.4 secs

     total energy              =    -825.89577658 Ry
     Harris-Foulkes estimate   =    -825.89579146 Ry
     estimated scf accuracy    <       0.00050997 Ry

     iteration # 21     ecut=    70.00 Ry     beta= 0.70
     Davidson diagonalization with overlap
     ethr =  2.39E-07,  avg # of iterations =  1.0

     negative rho (up, down):  6.385E-04 0.000E+00

     total cpu time spent up to now is     1138.7 secs

     total energy              =    -825.89577972 Ry
     Harris-Foulkes estimate   =    -825.89578553 Ry
     estimated scf accuracy    <       0.00056188 Ry

     iteration # 22     ecut=    70.00 Ry     beta= 0.70
     Davidson diagonalization with overlap
     ethr =  2.39E-07,  avg # of iterations =  1.0

     negative rho (up, down):  6.392E-04 0.000E+00

     total cpu time spent up to now is     1186.0 secs

     total energy              =    -825.89577377 Ry
     Harris-Foulkes estimate   =    -825.89578199 Ry
     estimated scf accuracy    <       0.00051831 Ry

     iteration # 23     ecut=    70.00 Ry     beta= 0.70
     Davidson diagonalization with overlap
     ethr =  2.39E-07,  avg # of iterations =  1.0

     negative rho (up, down):  6.403E-04 0.000E+00

     total cpu time spent up to now is     1233.1 secs

     total energy              =    -825.89576563 Ry
     Harris-Foulkes estimate   =    -825.89577525 Ry
     estimated scf accuracy    <       0.00056625 Ry

     iteration # 24     ecut=    70.00 Ry     beta= 0.70
     Davidson diagonalization with overlap
     ethr =  2.39E-07,  avg # of iterations =  1.0

     negative rho (up, down):  6.408E-04 0.000E+00

     total cpu time spent up to now is     1280.4 secs

     total energy              =    -825.89576054 Ry
     Harris-Foulkes estimate   =    -825.89576864 Ry
     estimated scf accuracy    <       0.00042782 Ry

     iteration # 25     ecut=    70.00 Ry     beta= 0.70
     Davidson diagonalization with overlap
     ethr =  2.01E-07,  avg # of iterations =  1.0

     negative rho (up, down):  6.413E-04 0.000E+00

     total cpu time spent up to now is     1327.7 secs

     total energy              =    -825.89575346 Ry
     Harris-Foulkes estimate   =    -825.89576112 Ry
     estimated scf accuracy    <       0.00038252 Ry

     iteration # 26     ecut=    70.00 Ry     beta= 0.70
     Davidson diagonalization with overlap
     ethr =  1.80E-07,  avg # of iterations =  1.0

     negative rho (up, down):  6.414E-04 0.000E+00

     total cpu time spent up to now is     1375.0 secs

     total energy              =    -825.89575351 Ry
     Harris-Foulkes estimate   =    -825.89575439 Ry
     estimated scf accuracy    <       0.00037880 Ry

     iteration # 27     ecut=    70.00 Ry     beta= 0.70
     Davidson diagonalization with overlap
     ethr =  1.78E-07,  avg # of iterations =  1.0

     negative rho (up, down):  6.478E-04 0.000E+00

     total cpu time spent up to now is     1422.3 secs

     total energy              =    -825.89554367 Ry
     Harris-Foulkes estimate   =    -825.89575444 Ry
     estimated scf accuracy    <       0.00037566 Ry

     iteration # 28     ecut=    70.00 Ry     beta= 0.70
     Davidson diagonalization with overlap
     ethr =  1.76E-07,  avg # of iterations =  4.0

     negative rho (up, down):  6.429E-04 0.000E+00

     total cpu time spent up to now is     1484.0 secs

     total energy              =    -825.89008468 Ry
     Harris-Foulkes estimate   =    -825.89884035 Ry
     estimated scf accuracy    <       0.47407544 Ry

     iteration # 29     ecut=    70.00 Ry     beta= 0.70
     Davidson diagonalization with overlap
     ethr =  1.76E-07,  avg # of iterations =  4.0

     negative rho (up, down):  6.413E-04 0.000E+00

     total cpu time spent up to now is     1544.9 secs

     total energy              =    -825.89571471 Ry
     Harris-Foulkes estimate   =    -825.89574575 Ry
     estimated scf accuracy    <       0.00152227 Ry

     iteration # 30     ecut=    70.00 Ry     beta= 0.70
     Davidson diagonalization with overlap
     ethr =  1.76E-07,  avg # of iterations =  1.0

     negative rho (up, down):  6.412E-04 0.000E+00

     total cpu time spent up to now is     1592.7 secs

     total energy              =    -825.89573095 Ry
     Harris-Foulkes estimate   =    -825.89573867 Ry
     estimated scf accuracy    <       0.00034892 Ry

     iteration # 31     ecut=    70.00 Ry     beta= 0.70
     Davidson diagonalization with overlap
     ethr =  1.64E-07,  avg # of iterations =  1.0

     negative rho (up, down):  6.413E-04 0.000E+00

     total cpu time spent up to now is     1640.0 secs

     total energy              =    -825.89572107 Ry
     Harris-Foulkes estimate   =    -825.89573283 Ry
     estimated scf accuracy    <       0.00040253 Ry

     iteration # 32     ecut=    70.00 Ry     beta= 0.70
     Davidson diagonalization with overlap
     ethr =  1.64E-07,  avg # of iterations =  1.0

     negative rho (up, down):  6.415E-04 0.000E+00

     total cpu time spent up to now is     1687.4 secs

     total energy              =    -825.89568523 Ry
     Harris-Foulkes estimate   =    -825.89572092 Ry
     estimated scf accuracy    <       0.00049217 Ry

     iteration # 33     ecut=    70.00 Ry     beta= 0.70
     Davidson diagonalization with overlap
     ethr =  1.64E-07,  avg # of iterations =  1.0

     negative rho (up, down):  6.416E-04 0.000E+00

     total cpu time spent up to now is     1734.8 secs

     total energy              =    -825.89565666 Ry
     Harris-Foulkes estimate   =    -825.89567831 Ry
     estimated scf accuracy    <       0.00208729 Ry

     iteration # 34     ecut=    70.00 Ry     beta= 0.70
     Davidson diagonalization with overlap
     ethr =  1.64E-07,  avg # of iterations =  1.0

     negative rho (up, down):  6.414E-04 0.000E+00

     total cpu time spent up to now is     1782.0 secs

     total energy              =    -825.89570180 Ry
     Harris-Foulkes estimate   =    -825.89566187 Ry
     estimated scf accuracy    <       0.00316943 Ry

     iteration # 35     ecut=    70.00 Ry     beta= 0.70
     Davidson diagonalization with overlap
     ethr =  1.64E-07,  avg # of iterations =  1.0

     negative rho (up, down):  6.415E-04 0.000E+00

     total cpu time spent up to now is     1829.4 secs

     total energy              =    -825.89568321 Ry
     Harris-Foulkes estimate   =    -825.89570177 Ry
     estimated scf accuracy    <       0.00167320 Ry

     iteration # 36     ecut=    70.00 Ry     beta= 0.70
     Davidson diagonalization with overlap
     ethr =  1.64E-07,  avg # of iterations =  1.0

     negative rho (up, down):  6.415E-04 0.000E+00

     total cpu time spent up to now is     1876.7 secs

     total energy              =    -825.89566767 Ry
     Harris-Foulkes estimate   =    -825.89568538 Ry
     estimated scf accuracy    <       0.00121555 Ry

     iteration # 37     ecut=    70.00 Ry     beta= 0.70
     Davidson diagonalization with overlap
     ethr =  1.64E-07,  avg # of iterations =  1.0

     negative rho (up, down):  6.412E-04 0.000E+00

     total cpu time spent up to now is     1923.9 secs

     total energy              =    -825.89578650 Ry
     Harris-Foulkes estimate   =    -825.89566867 Ry
     estimated scf accuracy    <       0.00202778 Ry

     iteration # 38     ecut=    70.00 Ry     beta= 0.70
     Davidson diagonalization with overlap
     ethr =  1.64E-07,  avg # of iterations =  2.0

     negative rho (up, down):  6.416E-04 0.000E+00

     total cpu time spent up to now is     1971.8 secs

     total energy              =    -825.89570937 Ry
     Harris-Foulkes estimate   =    -825.89582442 Ry
     estimated scf accuracy    <       0.01592549 Ry

     iteration # 39     ecut=    70.00 Ry     beta= 0.70
     Davidson diagonalization with overlap
     ethr =  1.64E-07,  avg # of iterations =  2.0

     negative rho (up, down):  6.413E-04 0.000E+00

     total cpu time spent up to now is     2019.6 secs

     total energy              =    -825.89580919 Ry
     Harris-Foulkes estimate   =    -825.89579374 Ry
     estimated scf accuracy    <       0.00084432 Ry

     iteration # 40     ecut=    70.00 Ry     beta= 0.70
     Davidson diagonalization with overlap
     ethr =  1.64E-07,  avg # of iterations =  1.0

     negative rho (up, down):  6.413E-04 0.000E+00

     total cpu time spent up to now is     2066.9 secs

     total energy              =    -825.89582669 Ry
     Harris-Foulkes estimate   =    -825.89581563 Ry
     estimated scf accuracy    <       0.00085123 Ry

     iteration # 41     ecut=    70.00 Ry     beta= 0.70
     Davidson diagonalization with overlap
     ethr =  1.64E-07,  avg # of iterations =  1.0

     negative rho (up, down):  6.409E-04 0.000E+00

     total cpu time spent up to now is     2114.3 secs

     total energy              =    -825.89642497 Ry
     Harris-Foulkes estimate   =    -825.89582857 Ry
     estimated scf accuracy    <       0.00091144 Ry

     iteration # 42     ecut=    70.00 Ry     beta= 0.70
     Davidson diagonalization with overlap
     ethr =  1.64E-07,  avg # of iterations =  5.0

     negative rho (up, down):  6.405E-04 0.000E+00

     total cpu time spent up to now is     2178.9 secs

     total energy              =    -825.89712557 Ry
     Harris-Foulkes estimate   =    -825.89685178 Ry
     estimated scf accuracy    <       0.01182475 Ry

     iteration # 43     ecut=    70.00 Ry     beta= 0.70
     Davidson diagonalization with overlap
     ethr =  1.64E-07,  avg # of iterations =  3.0

     negative rho (up, down):  6.406E-04 0.000E+00

     total cpu time spent up to now is     2228.5 secs

     total energy              =    -825.89619307 Ry
     Harris-Foulkes estimate   =    -825.89725727 Ry
     estimated scf accuracy    <       0.00969026 Ry

     iteration # 44     ecut=    70.00 Ry     beta= 0.70
     Davidson diagonalization with overlap
     ethr =  1.64E-07,  avg # of iterations =  4.0

     negative rho (up, down):  6.402E-04 0.000E+00

     total cpu time spent up to now is     2285.6 secs

     total energy              =    -825.89646962 Ry
     Harris-Foulkes estimate   =    -825.89647471 Ry
     estimated scf accuracy    <       0.03081411 Ry

     iteration # 45     ecut=    70.00 Ry     beta= 0.70
     Davidson diagonalization with overlap
     ethr =  1.64E-07,  avg # of iterations =  3.0

     negative rho (up, down):  6.409E-04 0.000E+00

     total cpu time spent up to now is     2336.1 secs

     total energy              =    -825.89577390 Ry
     Harris-Foulkes estimate   =    -825.89672850 Ry
     estimated scf accuracy    <       0.01102663 Ry

     iteration # 46     ecut=    70.00 Ry     beta= 0.70
     Davidson diagonalization with overlap
     ethr =  1.64E-07,  avg # of iterations =  3.0

     negative rho (up, down):  6.413E-04 0.000E+00

     total cpu time spent up to now is     2393.0 secs

     total energy              =    -825.89545858 Ry
     Harris-Foulkes estimate   =    -825.89600122 Ry
     estimated scf accuracy    <       0.00348507 Ry

     iteration # 47     ecut=    70.00 Ry     beta= 0.70
     Davidson diagonalization with overlap
     ethr =  1.64E-07,  avg # of iterations =  5.0

     negative rho (up, down):  6.411E-04 0.000E+00

     total cpu time spent up to now is     2455.7 secs

     total energy              =    -825.89509882 Ry
     Harris-Foulkes estimate   =    -825.89589093 Ry
     estimated scf accuracy    <       0.03333078 Ry

     iteration # 48     ecut=    70.00 Ry     beta= 0.70
     Davidson diagonalization with overlap
     ethr =  1.64E-07,  avg # of iterations =  2.0

     negative rho (up, down):  6.413E-04 0.000E+00

     total cpu time spent up to now is     2503.8 secs

     total energy              =    -825.89550987 Ry
     Harris-Foulkes estimate   =    -825.89561092 Ry
     estimated scf accuracy    <       0.00592374 Ry

     iteration # 49     ecut=    70.00 Ry     beta= 0.70
     Davidson diagonalization with overlap
     ethr =  1.64E-07,  avg # of iterations =  1.0

     negative rho (up, down):  6.413E-04 0.000E+00

     total cpu time spent up to now is     2551.2 secs

     total energy              =    -825.89553686 Ry
     Harris-Foulkes estimate   =    -825.89554725 Ry
     estimated scf accuracy    <       0.00010264 Ry

     iteration # 50     ecut=    70.00 Ry     beta= 0.70
     Davidson diagonalization with overlap
     ethr =  4.82E-08,  avg # of iterations =  2.0

     negative rho (up, down):  6.413E-04 0.000E+00

     total cpu time spent up to now is     2599.2 secs

     total energy              =    -825.89553409 Ry
     Harris-Foulkes estimate   =    -825.89555653 Ry
     estimated scf accuracy    <       0.00082448 Ry

     iteration # 51     ecut=    70.00 Ry     beta= 0.70
     Davidson diagonalization with overlap
     ethr =  4.82E-08,  avg # of iterations =  2.0

     negative rho (up, down):  6.412E-04 0.000E+00

     total cpu time spent up to now is     2648.0 secs

     total energy              =    -825.89552071 Ry
     Harris-Foulkes estimate   =    -825.89556769 Ry
     estimated scf accuracy    <       0.00171016 Ry

     iteration # 52     ecut=    70.00 Ry     beta= 0.70
     Davidson diagonalization with overlap
     ethr =  4.82E-08,  avg # of iterations =  2.0

     negative rho (up, down):  6.412E-04 0.000E+00

     total cpu time spent up to now is     2695.7 secs

     total energy              =    -825.89553647 Ry
     Harris-Foulkes estimate   =    -825.89554744 Ry
     estimated scf accuracy    <       0.00039030 Ry

     iteration # 53     ecut=    70.00 Ry     beta= 0.70
     Davidson diagonalization with overlap
     ethr =  4.82E-08,  avg # of iterations =  1.0

     negative rho (up, down):  6.413E-04 0.000E+00

     total cpu time spent up to now is     2743.0 secs

     total energy              =    -825.89553979 Ry
     Harris-Foulkes estimate   =    -825.89554446 Ry
     estimated scf accuracy    <       0.00014724 Ry

     iteration # 54     ecut=    70.00 Ry     beta= 0.70
     Davidson diagonalization with overlap
     ethr =  4.82E-08,  avg # of iterations =  1.0

     negative rho (up, down):  6.414E-04 0.000E+00

     total cpu time spent up to now is     2790.3 secs

     total energy              =    -825.89553267 Ry
     Harris-Foulkes estimate   =    -825.89555030 Ry
     estimated scf accuracy    <       0.00068480 Ry

     iteration # 55     ecut=    70.00 Ry     beta= 0.70
     Davidson diagonalization with overlap
     ethr =  4.82E-08,  avg # of iterations =  1.0

     negative rho (up, down):  6.413E-04 0.000E+00

     total cpu time spent up to now is     2837.6 secs

     total energy              =    -825.89554369 Ry
     Harris-Foulkes estimate   =    -825.89554423 Ry
     estimated scf accuracy    <       0.00008063 Ry

     iteration # 56     ecut=    70.00 Ry     beta= 0.70
     Davidson diagonalization with overlap
     ethr =  3.79E-08,  avg # of iterations =  1.0

     negative rho (up, down):  6.413E-04 0.000E+00

     total cpu time spent up to now is     2885.1 secs

     total energy              =    -825.89554194 Ry
     Harris-Foulkes estimate   =    -825.89554381 Ry
     estimated scf accuracy    <       0.00004673 Ry

     iteration # 57     ecut=    70.00 Ry     beta= 0.70
     Davidson diagonalization with overlap
     ethr =  2.19E-08,  avg # of iterations =  1.0

     negative rho (up, down):  6.412E-04 0.000E+00

     total cpu time spent up to now is     2932.4 secs

     total energy              =    -825.89554216 Ry
     Harris-Foulkes estimate   =    -825.89554456 Ry
     estimated scf accuracy    <       0.00016394 Ry

     iteration # 58     ecut=    70.00 Ry     beta= 0.70
     Davidson diagonalization with overlap
     ethr =  2.19E-08,  avg # of iterations =  1.0

     negative rho (up, down):  6.412E-04 0.000E+00

     total cpu time spent up to now is     2979.7 secs

     total energy              =    -825.89554271 Ry
     Harris-Foulkes estimate   =    -825.89554370 Ry
     estimated scf accuracy    <       0.00004735 Ry

     iteration # 59     ecut=    70.00 Ry     beta= 0.70
     Davidson diagonalization with overlap
     ethr =  2.19E-08,  avg # of iterations =  1.0

     negative rho (up, down):  6.412E-04 0.000E+00

     total cpu time spent up to now is     3027.0 secs

     total energy              =    -825.89554305 Ry
     Harris-Foulkes estimate   =    -825.89554329 Ry
     estimated scf accuracy    <       0.00000185 Ry

     iteration # 60     ecut=    70.00 Ry     beta= 0.70
     Davidson diagonalization with overlap
     ethr =  8.68E-10,  avg # of iterations =  2.0

     negative rho (up, down):  6.413E-04 0.000E+00

     total cpu time spent up to now is     3074.6 secs

     total energy              =    -825.89554289 Ry
     Harris-Foulkes estimate   =    -825.89554362 Ry
     estimated scf accuracy    <       0.00001080 Ry

     iteration # 61     ecut=    70.00 Ry     beta= 0.70
     Davidson diagonalization with overlap
     ethr =  8.68E-10,  avg # of iterations =  2.0

     negative rho (up, down):  6.412E-04 0.000E+00

     total cpu time spent up to now is     3122.2 secs

     total energy              =    -825.89554315 Ry
     Harris-Foulkes estimate   =    -825.89554329 Ry
     estimated scf accuracy    <       0.00000348 Ry

     iteration # 62     ecut=    70.00 Ry     beta= 0.70
     Davidson diagonalization with overlap
     ethr =  8.68E-10,  avg # of iterations =  1.0

     negative rho (up, down):  6.412E-04 0.000E+00

     total cpu time spent up to now is     3169.6 secs

     total energy              =    -825.89554315 Ry
     Harris-Foulkes estimate   =    -825.89554333 Ry
     estimated scf accuracy    <       0.00000397 Ry

     iteration # 63     ecut=    70.00 Ry     beta= 0.70
     Davidson diagonalization with overlap
     ethr =  8.68E-10,  avg # of iterations =  1.0

     negative rho (up, down):  6.412E-04 0.000E+00

     total cpu time spent up to now is     3217.0 secs

     total energy              =    -825.89554291 Ry
     Harris-Foulkes estimate   =    -825.89554326 Ry
     estimated scf accuracy    <       0.00000226 Ry

     iteration # 64     ecut=    70.00 Ry     beta= 0.70
     Davidson diagonalization with overlap
     ethr =  8.68E-10,  avg # of iterations =  3.0

     negative rho (up, down):  6.414E-04 0.000E+00

     total cpu time spent up to now is     3266.8 secs

     total energy              =    -825.89553409 Ry
     Harris-Foulkes estimate   =    -825.89555265 Ry
     estimated scf accuracy    <       0.00245528 Ry

     iteration # 65     ecut=    70.00 Ry     beta= 0.70
     Davidson diagonalization with overlap
     ethr =  8.68E-10,  avg # of iterations =  3.0

     negative rho (up, down):  6.413E-04 0.000E+00

     total cpu time spent up to now is     3316.5 secs

     total energy              =    -825.89554318 Ry
     Harris-Foulkes estimate   =    -825.89554336 Ry
     estimated scf accuracy    <       0.00000254 Ry

     iteration # 66     ecut=    70.00 Ry     beta= 0.70
     Davidson diagonalization with overlap
     ethr =  8.68E-10,  avg # of iterations =  1.0

     negative rho (up, down):  6.413E-04 0.000E+00

     total cpu time spent up to now is     3363.7 secs

     total energy              =    -825.89554313 Ry
     Harris-Foulkes estimate   =    -825.89554336 Ry
     estimated scf accuracy    <       0.00000896 Ry

     iteration # 67     ecut=    70.00 Ry     beta= 0.70
     Davidson diagonalization with overlap
     ethr =  8.68E-10,  avg # of iterations =  1.0

     negative rho (up, down):  6.412E-04 0.000E+00

     total cpu time spent up to now is     3411.2 secs

     total energy              =    -825.89554315 Ry
     Harris-Foulkes estimate   =    -825.89554334 Ry
     estimated scf accuracy    <       0.00001184 Ry

     iteration # 68     ecut=    70.00 Ry     beta= 0.70
     Davidson diagonalization with overlap
     ethr =  8.68E-10,  avg # of iterations =  1.0

     negative rho (up, down):  6.412E-04 0.000E+00

     total cpu time spent up to now is     3458.3 secs

     End of self-consistent calculation

          k = 0.0000 0.0000 0.0000 ( 87777 PWs)   bands (ev):

   -80.0401 -49.6777 -49.6755 -48.2699 -19.7366 -18.8987 -18.8963 -18.8094
   -18.7994 -18.7988 -18.4423 -17.0421 -17.0416 -17.0396 -16.9490 -16.9478
   -16.6505 -16.1906 -16.1895 -16.0913 -16.0293 -16.0283 -15.3376 -14.0737
   -14.0733 -14.0041 -13.9664 -13.9661 -13.3140 -13.0349 -13.0340 -13.0045
   -12.7106 -12.7102 -12.2787 -11.8069 -11.8063 -11.6271 -11.3549 -11.3545
   -10.4368  -9.6265  -9.6260  -9.4090  -9.2809  -9.2805  -9.1976  -9.1648
    -9.1646  -9.1550  -8.6698  -8.6691  -8.1269  -8.1264  -8.0250  -7.8832
    -7.8037  -7.3992  -7.3991  -7.1532  -7.1259  -7.0885  -6.8819  -6.8703
    -6.8699  -6.7794  -6.7790  -6.7512  -6.6893  -6.5306  -6.5296  -6.5067
    -6.4982  -6.4969  -6.4500  -6.3592  -5.5046  -5.4940  -5.4843  -5.4832
    -5.2645  -5.2641  -4.9573  -4.8579  -4.8415  -4.6944  -4.6649  -4.6640
    -4.3474  -4.1485  -4.1481  -4.1093  -4.1073  -3.8025  -3.8017  -3.7286
    -3.6409  -3.6399  -3.0999  -2.6110  -2.6099  -1.7946  -1.7713  -1.7709
    -0.8270  -0.8175  -0.8169  -0.8135   0.9905   1.0006   1.0012   1.6619
     1.6642   1.6757   2.5654   2.8401   2.8415   2.9039   3.0950   3.1581
     3.4843   3.5692   3.5747   3.6070   3.6952   3.7844   3.7932   3.8050

     occupation numbers 
     1.0000   1.0000   1.0000   1.0000   1.0000   1.0000   1.0000   1.0000
     1.0000   1.0000   1.0000   1.0000   1.0000   1.0000   1.0000   1.0000
     1.0000   1.0000   1.0000   1.0000   1.0000   1.0000   1.0000   1.0000
     1.0000   1.0000   1.0000   1.0000   1.0000   1.0000   1.0000   1.0000
     1.0000   1.0000   1.0000   1.0000   1.0000   1.0000   1.0000   1.0000
     1.0000   1.0000   1.0000   1.0000   1.0000   1.0000   1.0000   1.0000
     1.0000   1.0000   1.0000   1.0000   1.0000   1.0000   1.0000   1.0000
     1.0000   1.0000   1.0000   1.0000   1.0000   1.0000   1.0000   1.0000
     1.0000   1.0000   1.0000   1.0000   1.0000   1.0000   1.0000   1.0000
     1.0000   1.0000   1.0000   1.0000   1.0000   1.0000   1.0000   1.0000
     1.0000   1.0000   1.0000   1.0000   1.0000   1.0000   1.0000   1.0000
     1.0000   1.0000   1.0000   1.0000   1.0000   1.0000   1.0000   1.0000
     1.0000   1.0000   1.0000   1.0000   1.0000   1.0000   1.0000   1.0000
     1.0090   0.5793   0.5427   0.3690   0.0000   0.0000   0.0000   0.0000
     0.0000   0.0000   0.0000   0.0000   0.0000   0.0000   0.0000   0.0000
     0.0000   0.0000   0.0000   0.0000   0.0000   0.0000   0.0000   0.0000

     the Fermi energy is    -0.8142 ev

!    total energy              =    -825.89554246 Ry
     Harris-Foulkes estimate   =    -825.89554325 Ry
     estimated scf accuracy    <       0.00000099 Ry

     The total energy is the sum of the following terms:

     one-electron contribution =   -2722.98318159 Ry
     hartree contribution      =    1406.45128112 Ry
     xc contribution           =    -259.60267309 Ry
     ewald contribution        =     750.23980332 Ry
     smearing contrib. (-TS)   =      -0.00077223 Ry

     convergence has been achieved in  68 iterations

     Writing output data file manganeso-bridge-distance-3.0.save/

     init_run     :     49.33s CPU     50.51s WALL (       1 calls)
     electrons    :   3300.34s CPU   3406.84s WALL (       1 calls)

     Called by init_run:
     wfcinit      :     19.85s CPU     20.04s WALL (       1 calls)
     wfcinit:atom :      0.02s CPU      0.05s WALL (       1 calls)
     wfcinit:wfcr :     19.70s CPU     19.81s WALL (       1 calls)
     potinit      :     12.83s CPU     13.21s WALL (       1 calls)
     hinit0       :     12.19s CPU     12.22s WALL (       1 calls)

     Called by electrons:
     c_bands      :   1934.45s CPU   1945.25s WALL (      68 calls)
     sum_band     :    670.17s CPU    707.15s WALL (      68 calls)
     v_of_rho     :    407.58s CPU    431.80s WALL (      69 calls)
     v_h          :      4.69s CPU      4.81s WALL (      69 calls)
     v_xc         :    402.89s CPU    426.99s WALL (      69 calls)
     newd         :    276.60s CPU    311.54s WALL (      69 calls)
     mix_rho      :     13.75s CPU     14.00s WALL (      68 calls)

     Called by c_bands:
     init_us_2    :      5.65s CPU      5.72s WALL (     137 calls)
     cegterg      :   1920.44s CPU   1931.18s WALL (      68 calls)

     Called by sum_band:
     sum_band:bec :      0.05s CPU      0.05s WALL (      68 calls)
     addusdens    :    417.38s CPU    452.83s WALL (      68 calls)

     Called by *egterg:
     h_psi        :   1003.82s CPU   1011.03s WALL (     209 calls)
     s_psi        :    340.83s CPU    340.97s WALL (     209 calls)
     g_psi        :      1.06s CPU      1.06s WALL (     140 calls)
     cdiaghg      :     12.71s CPU     12.71s WALL (     208 calls)
     cegterg:over :    230.96s CPU    231.06s WALL (     140 calls)
     cegterg:upda :    130.98s CPU    131.91s WALL (     140 calls)
     cegterg:last :    111.03s CPU    111.06s WALL (      69 calls)

     Called by h_psi:
     h_psi:pot    :   1002.67s CPU   1008.51s WALL (     209 calls)
     h_psi:calbec :    338.51s CPU    338.68s WALL (     209 calls)
     vloc_psi     :    323.01s CPU    328.56s WALL (     209 calls)
     add_vuspsi   :    341.15s CPU    341.27s WALL (     209 calls)

     General routines
     calbec       :    493.78s CPU    494.02s WALL (     277 calls)
     fft          :    232.49s CPU    241.30s WALL (    4345 calls)
     ffts         :      2.24s CPU      2.35s WALL (     137 calls)
     fftw         :    346.58s CPU    352.74s WALL (   46662 calls)
     interpolate  :      5.54s CPU      5.70s WALL (      69 calls)

     Parallel routines
     fft_scatt_xy :     99.60s CPU    100.82s WALL (   51144 calls)
     fft_scatt_yz :    196.34s CPU    207.29s WALL (   51144 calls)

     PWSCF        :  55m50.81s CPU  57m38.70s WALL


   This run was terminated on:   8:14:58   3Sep2022            

=------------------------------------------------------------------------------=
   JOB DONE.
=------------------------------------------------------------------------------=
