
     Program PWSCF v.6.4.1 starts on 21Jul2022 at  0:45:58 

     This program is part of the open-source Quantum ESPRESSO suite
     for quantum simulation of materials; please cite
         "P. Giannozzi et al., J. Phys.:Condens. Matter 21 395502 (2009);
         "P. Giannozzi et al., J. Phys.:Condens. Matter 29 465901 (2017);
          URL http://www.quantum-espresso.org", 
     in publications or presentations arising from this work. More details at
     http://www.quantum-espresso.org/quote

     Parallel version (MPI), running on     6 processors

     MPI processes distributed on     1 nodes
     R & G space division:  proc/nbgrp/npool/nimage =       6
     Reading input from distance-3.0.in

     Current dimensions of program PWSCF are:
     Max number of different atomic species (ntypx) = 10
     Max number of k-points (npk) =  40000
     Max angular momentum in pseudopotentials (lmaxx) =  3

     IMPORTANT: XC functional enforced from input :
     Exchange-correlation      = RVV10 ( 1  4 13  4 3 0)
     Any further DFT definition will be discarded
     Please, verify this is what you really want

               file H.pbe-rrkjus.UPF: wavefunction(s)  1S renormalized
               file V.pbe-spnl-rrkjus_psl.1.0.0.UPF: wavefunction(s)  3P 3D renormalized

     Subspace diagonalization in iterative solution of the eigenvalue problem:
     a serial algorithm will be used


     Parallelization info
     --------------------
     sticks:   dense  smooth     PW     G-vecs:    dense   smooth      PW
     Min        3051    1746    432               270999   117096   14629
     Max        3053    1747    437               271001   117099   14630
     Sum       18313   10477   2611              1626001   702581   87777



     bravais-lattice index     =            4
     lattice parameter (alat)  =      23.2937  a.u.
     unit-cell volume          =    8879.8548 (a.u.)^3
     number of atoms/cell      =           52
     number of atomic types    =            3
     number of electrons       =       211.00
     number of Kohn-Sham states=          127
     kinetic-energy cutoff     =      70.0000  Ry
     charge density cutoff     =     490.0000  Ry
     convergence threshold     =      1.0E-06
     mixing beta               =       0.7000
     number of iterations used =            8  plain     mixing
     Exchange-correlation      = RVV10 ( 1  4 13  4 3 0)

     celldm(1)=  23.293684  celldm(2)=   0.000000  celldm(3)=   0.811261
     celldm(4)=   0.000000  celldm(5)=   0.000000  celldm(6)=   0.000000

     crystal axes: (cart. coord. in units of alat)
               a(1) = (   1.000000   0.000000   0.000000 )  
               a(2) = (  -0.500000   0.866025   0.000000 )  
               a(3) = (   0.000000   0.000000   0.811261 )  

     reciprocal axes: (cart. coord. in units 2 pi/alat)
               b(1) = (  1.000000  0.577350 -0.000000 )  
               b(2) = (  0.000000  1.154701  0.000000 )  
               b(3) = (  0.000000 -0.000000  1.232649 )  


     PseudoPot. # 1 for H  read from file:
     /home/cristian/Escritorio/Proyecto_Grafeno/pseudopotenciales/H.pbe-rrkjus.UPF
     MD5 check sum: 7cc9d459525c9a0585f487a71c3c9563
     Pseudo is Ultrasoft, Zval =  1.0
     Generated by new atomic code, or converted to UPF format
     Using radial grid of 1061 points,  2 beta functions with: 
                l(1) =   0
                l(2) =   0
     Q(r) pseudized with 0 coefficients 


     PseudoPot. # 2 for C  read from file:
     /home/cristian/Escritorio/Proyecto_Grafeno/pseudopotenciales/C.pbe-n-rrkjus_psl.1.0.0.UPF
     MD5 check sum: 1fdd950c42eb37d8afe3dd2f8d12311e
     Pseudo is Ultrasoft + core correction, Zval =  4.0
     Generated using "atomic" code by A. Dal Corso v.6.3MaX
     Using radial grid of 1073 points,  4 beta functions with: 
                l(1) =   0
                l(2) =   0
                l(3) =   1
                l(4) =   1
     Q(r) pseudized with 0 coefficients 


     PseudoPot. # 3 for V  read from file:
     /home/cristian/Escritorio/Proyecto_Grafeno/pseudopotenciales/V.pbe-spnl-rrkjus_psl.1.0.0.UPF
     MD5 check sum: 79b3eb63147daf0b665d9f1bcc691206
     Pseudo is Ultrasoft + core correction, Zval = 13.0
     Generated using "atomic" code by A. Dal Corso v.6.2.2
     Using radial grid of 1181 points,  6 beta functions with: 
                l(1) =   0
                l(2) =   0
                l(3) =   1
                l(4) =   1
                l(5) =   2
                l(6) =   2
     Q(r) pseudized with 0 coefficients 


     vdW kernel table read from file rVV10_kernel_table
     MD5 check sum: b8e2538accc0c0b3206b45ba4daaba6c

     atomic species   valence    mass     pseudopotential
        H              1.00     1.00794     H ( 1.00)
        C              4.00    12.01070     C ( 1.00)
        V             13.00    50.94150     V ( 1.00)

     No symmetry found


                                    s                        frac. trans.

      isym =  1     identity                                     

 cryst.   s( 1) = (     1          0          0      )
                  (     0          1          0      )
                  (     0          0          1      )

 cart.    s( 1) = (  1.0000000  0.0000000  0.0000000 )
                  (  0.0000000  1.0000000  0.0000000 )
                  (  0.0000000  0.0000000  1.0000000 )


     point group C_1 (1)    
     there are  1 classes
     the character table:

       E    
A      1.00

     the symmetry operations in each class and the name of the first element:

     E        1
          identity                                               

   Cartesian axes

     site n.     atom                  positions (alat units)
         1           H   tau(   1) = (   0.2500000   0.4907477   0.2433783  )
         2           H   tau(   2) = (   0.2500000   0.4907477   0.3043910  )
         3           C   tau(   3) = (   0.0000000   0.0000000   0.0000000  )
         4           C   tau(   4) = (   0.0000000   0.1154701   0.0000000  )
         5           C   tau(   5) = (  -0.1000000   0.1732051   0.0000000  )
         6           C   tau(   6) = (  -0.1000000   0.2886751   0.0000000  )
         7           C   tau(   7) = (  -0.2000000   0.3464102   0.0000000  )
         8           C   tau(   8) = (  -0.2000000   0.4618802   0.0000000  )
         9           C   tau(   9) = (  -0.3000000   0.5196152   0.0000000  )
        10           C   tau(  10) = (  -0.3000000   0.6350853   0.0000000  )
        11           C   tau(  11) = (  -0.4000000   0.6928203   0.0000000  )
        12           C   tau(  12) = (  -0.4000000   0.8082904   0.0000000  )
        13           C   tau(  13) = (   0.2000000   0.0000000   0.0000000  )
        14           C   tau(  14) = (   0.2000000   0.1154701   0.0000000  )
        15           C   tau(  15) = (   0.1000000   0.1732051   0.0000000  )
        16           C   tau(  16) = (   0.1000000   0.2886751   0.0000000  )
        17           C   tau(  17) = (   0.0000000   0.3464102   0.0000000  )
        18           C   tau(  18) = (   0.0000000   0.4618802   0.0000000  )
        19           C   tau(  19) = (  -0.1000000   0.5196152   0.0000000  )
        20           C   tau(  20) = (  -0.1000000   0.6350853   0.0000000  )
        21           C   tau(  21) = (  -0.2000000   0.6928203   0.0000000  )
        22           C   tau(  22) = (  -0.2000000   0.8082904   0.0000000  )
        23           C   tau(  23) = (   0.4000000   0.0000000   0.0000000  )
        24           C   tau(  24) = (   0.4000000   0.1154701   0.0000000  )
        25           C   tau(  25) = (   0.3000000   0.1732051   0.0000000  )
        26           C   tau(  26) = (   0.3000000   0.2886751   0.0000000  )
        27           C   tau(  27) = (   0.2000000   0.3464102   0.0000000  )
        28           V   tau(  28) = (   0.2000000   0.4618802   0.0000000  )
        29           C   tau(  29) = (   0.1000000   0.5196152   0.0000000  )
        30           C   tau(  30) = (   0.1000000   0.6350853   0.0000000  )
        31           C   tau(  31) = (   0.0000000   0.6928203   0.0000000  )
        32           C   tau(  32) = (   0.0000000   0.8082904   0.0000000  )
        33           C   tau(  33) = (   0.6000000   0.0000000   0.0000000  )
        34           C   tau(  34) = (   0.6000000   0.1154701   0.0000000  )
        35           C   tau(  35) = (   0.5000000   0.1732051   0.0000000  )
        36           C   tau(  36) = (   0.5000000   0.2886751   0.0000000  )
        37           C   tau(  37) = (   0.4000000   0.3464102   0.0000000  )
        38           C   tau(  38) = (   0.4000000   0.4618802   0.0000000  )
        39           C   tau(  39) = (   0.3000000   0.5196152   0.0000000  )
        40           C   tau(  40) = (   0.3000000   0.6350853   0.0000000  )
        41           C   tau(  41) = (   0.2000000   0.6928203   0.0000000  )
        42           C   tau(  42) = (   0.2000000   0.8082904   0.0000000  )
        43           C   tau(  43) = (   0.8000000   0.0000000   0.0000000  )
        44           C   tau(  44) = (   0.8000000   0.1154701   0.0000000  )
        45           C   tau(  45) = (   0.7000000   0.1732051   0.0000000  )
        46           C   tau(  46) = (   0.7000000   0.2886751   0.0000000  )
        47           C   tau(  47) = (   0.6000000   0.3464102   0.0000000  )
        48           C   tau(  48) = (   0.6000000   0.4618802   0.0000000  )
        49           C   tau(  49) = (   0.5000000   0.5196152   0.0000000  )
        50           C   tau(  50) = (   0.5000000   0.6350853   0.0000000  )
        51           C   tau(  51) = (   0.4000000   0.6928203   0.0000000  )
        52           C   tau(  52) = (   0.4000000   0.8082904   0.0000000  )

   Crystallographic axes

     site n.     atom                  positions (cryst. coord.)
         1           H   tau(   1) = (  0.5333333  0.5666667  0.3000000  )
         2           H   tau(   2) = (  0.5333333  0.5666667  0.3752072  )
         3           C   tau(   3) = (  0.0000000  0.0000000  0.0000000  )
         4           C   tau(   4) = (  0.0666667  0.1333333  0.0000000  )
         5           C   tau(   5) = (  0.0000000  0.2000000  0.0000000  )
         6           C   tau(   6) = (  0.0666667  0.3333333  0.0000000  )
         7           C   tau(   7) = (  0.0000000  0.4000000  0.0000000  )
         8           C   tau(   8) = (  0.0666667  0.5333333  0.0000000  )
         9           C   tau(   9) = (  0.0000000  0.6000000  0.0000000  )
        10           C   tau(  10) = (  0.0666667  0.7333333  0.0000000  )
        11           C   tau(  11) = (  0.0000000  0.8000000  0.0000000  )
        12           C   tau(  12) = (  0.0666667  0.9333333  0.0000000  )
        13           C   tau(  13) = (  0.2000000  0.0000000  0.0000000  )
        14           C   tau(  14) = (  0.2666667  0.1333333  0.0000000  )
        15           C   tau(  15) = (  0.2000000  0.2000000  0.0000000  )
        16           C   tau(  16) = (  0.2666667  0.3333333  0.0000000  )
        17           C   tau(  17) = (  0.2000000  0.4000000  0.0000000  )
        18           C   tau(  18) = (  0.2666667  0.5333333  0.0000000  )
        19           C   tau(  19) = (  0.2000000  0.6000000  0.0000000  )
        20           C   tau(  20) = (  0.2666667  0.7333333  0.0000000  )
        21           C   tau(  21) = (  0.2000000  0.8000000  0.0000000  )
        22           C   tau(  22) = (  0.2666667  0.9333333  0.0000000  )
        23           C   tau(  23) = (  0.4000000  0.0000000  0.0000000  )
        24           C   tau(  24) = (  0.4666667  0.1333333  0.0000000  )
        25           C   tau(  25) = (  0.4000000  0.2000000  0.0000000  )
        26           C   tau(  26) = (  0.4666667  0.3333333  0.0000000  )
        27           C   tau(  27) = (  0.4000000  0.4000000  0.0000000  )
        28           V   tau(  28) = (  0.4666667  0.5333333  0.0000000  )
        29           C   tau(  29) = (  0.4000000  0.6000000  0.0000000  )
        30           C   tau(  30) = (  0.4666667  0.7333333  0.0000000  )
        31           C   tau(  31) = (  0.4000000  0.8000000  0.0000000  )
        32           C   tau(  32) = (  0.4666667  0.9333333  0.0000000  )
        33           C   tau(  33) = (  0.6000000  0.0000000  0.0000000  )
        34           C   tau(  34) = (  0.6666667  0.1333333  0.0000000  )
        35           C   tau(  35) = (  0.6000000  0.2000000  0.0000000  )
        36           C   tau(  36) = (  0.6666667  0.3333333  0.0000000  )
        37           C   tau(  37) = (  0.6000000  0.4000000  0.0000000  )
        38           C   tau(  38) = (  0.6666667  0.5333333  0.0000000  )
        39           C   tau(  39) = (  0.6000000  0.6000000  0.0000000  )
        40           C   tau(  40) = (  0.6666667  0.7333333  0.0000000  )
        41           C   tau(  41) = (  0.6000000  0.8000000  0.0000000  )
        42           C   tau(  42) = (  0.6666667  0.9333333  0.0000000  )
        43           C   tau(  43) = (  0.8000000  0.0000000  0.0000000  )
        44           C   tau(  44) = (  0.8666667  0.1333333  0.0000000  )
        45           C   tau(  45) = (  0.8000000  0.2000000  0.0000000  )
        46           C   tau(  46) = (  0.8666667  0.3333333  0.0000000  )
        47           C   tau(  47) = (  0.8000000  0.4000000  0.0000000  )
        48           C   tau(  48) = (  0.8666667  0.5333333  0.0000000  )
        49           C   tau(  49) = (  0.8000000  0.6000000  0.0000000  )
        50           C   tau(  50) = (  0.8666667  0.7333333  0.0000000  )
        51           C   tau(  51) = (  0.8000000  0.8000000  0.0000000  )
        52           C   tau(  52) = (  0.8666667  0.9333333  0.0000000  )

     number of k points=     1  Marzari-Vanderbilt smearing, width (Ry)=  0.0010
                       cart. coord. in units 2pi/alat
        k(    1) = (   0.0000000   0.0000000   0.0000000), wk =   2.0000000

                       cryst. coord.
        k(    1) = (   0.0000000   0.0000000   0.0000000), wk =   2.0000000

     Dense  grid:  1626001 G-vectors     FFT dimensions: ( 180, 180, 135)

     Smooth grid:   702581 G-vectors     FFT dimensions: ( 125, 125, 108)

     Dynamical RAM for                 wfc:      28.36 MB

     Dynamical RAM for     wfc (w. buffer):      28.36 MB

     Dynamical RAM for           str. fact:      12.41 MB

     Dynamical RAM for           local pot:       0.00 MB

     Dynamical RAM for          nlocal pot:      92.46 MB

     Dynamical RAM for                qrad:      19.73 MB

     Dynamical RAM for          rho,v,vnew:      29.46 MB

     Dynamical RAM for               rhoin:       9.82 MB

     Dynamical RAM for            rho*nmix:      66.16 MB

     Dynamical RAM for           G-vectors:      16.40 MB

     Dynamical RAM for          h,s,v(r/c):      11.81 MB

     Dynamical RAM for          <psi|beta>:       0.80 MB

     Dynamical RAM for                 psi:     113.46 MB

     Dynamical RAM for                hpsi:     113.46 MB

     Dynamical RAM for                spsi:     113.46 MB

     Dynamical RAM for      wfcinit/wfcrot:      93.90 MB

     Dynamical RAM for           addusdens:     971.75 MB

     Estimated static dynamical RAM per process >     319.78 MB

     Estimated max dynamical RAM per process >       1.26 GB

     Estimated total dynamical RAM >       7.57 GB

     Check: negative core charge=   -0.000002

     Initial potential from superposition of free atoms

     starting charge  210.80465, renormalised to  211.00000

     negative rho (up, down):  1.132E-04 0.000E+00


---------------------------------------------------------------------------------
Carrying out rVV10 run using the following parameters:
Nqs =      20    Nr_points =    1024   r_max =   100.000
b_value =  6.30000    beta =  0.00901
     q_mesh =  0.00010000  0.00030000  0.00058939  0.00100810
               0.00161396  0.00249058  0.00375900  0.00559430
               0.00824984  0.01209221  0.01765183  0.02569619
               0.03733578  0.05417739  0.07854596  0.11380545
               0.16482331  0.23864234  0.34545298  0.50000000

Gradients computed in Reciprocal space

---------------------------------------------------------------------------------


     Starting wfcs are  208 randomized atomic wfcs

     total cpu time spent up to now is       49.3 secs

     Self-consistent Calculation

     iteration #  1     ecut=    70.00 Ry     beta= 0.70
     Davidson diagonalization with overlap
     ethr =  1.00E-02,  avg # of iterations =  3.0

     negative rho (up, down):  2.384E-03 0.000E+00

     total cpu time spent up to now is      115.2 secs

     total energy              =    -754.97416996 Ry
     Harris-Foulkes estimate   =    -760.48479541 Ry
     estimated scf accuracy    <       8.27196336 Ry

     iteration #  2     ecut=    70.00 Ry     beta= 0.70
     Davidson diagonalization with overlap
     ethr =  3.92E-03,  avg # of iterations =  6.0

     negative rho (up, down):  2.140E-02 0.000E+00

     total cpu time spent up to now is      180.9 secs

     total energy              =    -748.42285900 Ry
     Harris-Foulkes estimate   =    -762.68546094 Ry
     estimated scf accuracy    <      48.40622180 Ry

     iteration #  3     ecut=    70.00 Ry     beta= 0.70
     Davidson diagonalization with overlap
     ethr =  3.92E-03,  avg # of iterations =  5.0

     negative rho (up, down):  3.039E-03 0.000E+00

     total cpu time spent up to now is      273.4 secs

     total energy              =    -755.45896098 Ry
     Harris-Foulkes estimate   =    -759.26785766 Ry
     estimated scf accuracy    <      19.31781507 Ry

     iteration #  4     ecut=    70.00 Ry     beta= 0.70
     Davidson diagonalization with overlap
     ethr =  3.92E-03,  avg # of iterations =  5.0

     negative rho (up, down):  4.553E-02 0.000E+00

     total cpu time spent up to now is      324.7 secs

     total energy              =    -757.11704236 Ry
     Harris-Foulkes estimate   =    -757.74546729 Ry
     estimated scf accuracy    <       1.83194687 Ry

     iteration #  5     ecut=    70.00 Ry     beta= 0.70
     Davidson diagonalization with overlap
     ethr =  8.68E-04,  avg # of iterations =  7.0

     negative rho (up, down):  6.625E-02 0.000E+00

     total cpu time spent up to now is      380.1 secs

     total energy              =    -757.27392235 Ry
     Harris-Foulkes estimate   =    -757.34951313 Ry
     estimated scf accuracy    <       0.27652439 Ry

     iteration #  6     ecut=    70.00 Ry     beta= 0.70
     Davidson diagonalization with overlap
     ethr =  1.31E-04,  avg # of iterations =  4.0

     negative rho (up, down):  5.758E-02 0.000E+00

     total cpu time spent up to now is      431.8 secs

     total energy              =    -757.29242175 Ry
     Harris-Foulkes estimate   =    -757.32301126 Ry
     estimated scf accuracy    <       0.18699878 Ry

     iteration #  7     ecut=    70.00 Ry     beta= 0.70
     Davidson diagonalization with overlap
     ethr =  8.86E-05,  avg # of iterations =  3.0

     negative rho (up, down):  4.259E-02 0.000E+00

     total cpu time spent up to now is      480.7 secs

     total energy              =    -757.30363691 Ry
     Harris-Foulkes estimate   =    -757.31370573 Ry
     estimated scf accuracy    <       0.09895356 Ry

     iteration #  8     ecut=    70.00 Ry     beta= 0.70
     Davidson diagonalization with overlap
     ethr =  4.69E-05,  avg # of iterations =  3.0

     negative rho (up, down):  2.731E-02 0.000E+00

     total cpu time spent up to now is      529.3 secs

     total energy              =    -757.31772479 Ry
     Harris-Foulkes estimate   =    -757.31296540 Ry
     estimated scf accuracy    <       0.03322113 Ry

     iteration #  9     ecut=    70.00 Ry     beta= 0.70
     Davidson diagonalization with overlap
     ethr =  1.57E-05,  avg # of iterations =  5.0

     negative rho (up, down):  3.217E-02 0.000E+00

     total cpu time spent up to now is      586.3 secs

     total energy              =    -757.32473150 Ry
     Harris-Foulkes estimate   =    -757.32703216 Ry
     estimated scf accuracy    <       0.02313474 Ry

     iteration # 10     ecut=    70.00 Ry     beta= 0.70
     Davidson diagonalization with overlap
     ethr =  1.10E-05,  avg # of iterations =  3.0

     negative rho (up, down):  3.510E-02 0.000E+00

     total cpu time spent up to now is      634.9 secs

     total energy              =    -757.32463022 Ry
     Harris-Foulkes estimate   =    -757.32624428 Ry
     estimated scf accuracy    <       0.01471061 Ry

     iteration # 11     ecut=    70.00 Ry     beta= 0.70
     Davidson diagonalization with overlap
     ethr =  6.97E-06,  avg # of iterations =  2.0

     negative rho (up, down):  3.468E-02 0.000E+00

     total cpu time spent up to now is      683.2 secs

     total energy              =    -757.32594364 Ry
     Harris-Foulkes estimate   =    -757.32728504 Ry
     estimated scf accuracy    <       0.01873570 Ry

     iteration # 12     ecut=    70.00 Ry     beta= 0.70
     Davidson diagonalization with overlap
     ethr =  6.97E-06,  avg # of iterations =  3.0

     negative rho (up, down):  3.333E-02 0.000E+00

     total cpu time spent up to now is      733.3 secs

     total energy              =    -757.32778630 Ry
     Harris-Foulkes estimate   =    -757.32691900 Ry
     estimated scf accuracy    <       0.00820666 Ry

     iteration # 13     ecut=    70.00 Ry     beta= 0.70
     Davidson diagonalization with overlap
     ethr =  3.89E-06,  avg # of iterations = 16.0

     negative rho (up, down):  3.394E-02 0.000E+00

     total cpu time spent up to now is      787.5 secs

     total energy              =    -757.32750701 Ry
     Harris-Foulkes estimate   =    -757.32819190 Ry
     estimated scf accuracy    <       0.00181024 Ry

     iteration # 14     ecut=    70.00 Ry     beta= 0.70
     Davidson diagonalization with overlap
     ethr =  8.58E-07,  avg # of iterations =  3.0

     negative rho (up, down):  3.346E-02 0.000E+00

     total cpu time spent up to now is      838.5 secs

     total energy              =    -757.32841799 Ry
     Harris-Foulkes estimate   =    -757.32768555 Ry
     estimated scf accuracy    <       0.00047725 Ry

     iteration # 15     ecut=    70.00 Ry     beta= 0.70
     Davidson diagonalization with overlap
     ethr =  2.26E-07,  avg # of iterations =  4.0

     negative rho (up, down):  3.383E-02 0.000E+00

     total cpu time spent up to now is      889.8 secs

     total energy              =    -757.32857370 Ry
     Harris-Foulkes estimate   =    -757.32845035 Ry
     estimated scf accuracy    <       0.00005214 Ry

     iteration # 16     ecut=    70.00 Ry     beta= 0.70
     Davidson diagonalization with overlap
     ethr =  2.47E-08,  avg # of iterations =  3.0

     negative rho (up, down):  3.395E-02 0.000E+00

     total cpu time spent up to now is      939.5 secs

     total energy              =    -757.32857806 Ry
     Harris-Foulkes estimate   =    -757.32858501 Ry
     estimated scf accuracy    <       0.00012990 Ry

     iteration # 17     ecut=    70.00 Ry     beta= 0.70
     Davidson diagonalization with overlap
     ethr =  2.47E-08,  avg # of iterations =  2.0

     negative rho (up, down):  3.398E-02 0.000E+00

     total cpu time spent up to now is      987.9 secs

     total energy              =    -757.32857936 Ry
     Harris-Foulkes estimate   =    -757.32858200 Ry
     estimated scf accuracy    <       0.00000771 Ry

     iteration # 18     ecut=    70.00 Ry     beta= 0.70
     Davidson diagonalization with overlap
     ethr =  3.65E-09,  avg # of iterations =  3.0

     negative rho (up, down):  3.404E-02 0.000E+00

     total cpu time spent up to now is     1037.3 secs

     total energy              =    -757.32858035 Ry
     Harris-Foulkes estimate   =    -757.32858049 Ry
     estimated scf accuracy    <       0.00000761 Ry

     iteration # 19     ecut=    70.00 Ry     beta= 0.70
     Davidson diagonalization with overlap
     ethr =  3.61E-09,  avg # of iterations =  1.0

     negative rho (up, down):  3.405E-02 0.000E+00

     total cpu time spent up to now is     1085.4 secs

     End of self-consistent calculation

          k = 0.0000 0.0000 0.0000 ( 87777 PWs)   bands (ev):

   -62.7667 -37.8675 -37.8670 -36.4985 -19.6295 -18.7869 -18.7866 -18.7169
   -18.6748 -18.6745 -18.2332 -16.9344 -16.9332 -16.9331 -16.7915 -16.7913
   -16.5152 -16.0763 -16.0762 -15.9877 -15.8309 -15.8306 -15.0835 -13.8837
   -13.8778 -13.8774 -13.8639 -13.8638 -13.1423 -12.9189 -12.9188 -12.8986
   -12.5085 -12.5083 -12.1100 -11.6439 -11.6437 -11.5211 -11.1407 -11.1405
   -10.1509  -9.3377  -9.3375  -9.2588  -9.1803  -9.1803  -9.0942  -9.0666
    -9.0666  -9.0527  -8.4668  -8.4666  -7.8962  -7.8960  -7.8629  -7.7845
    -7.6796  -7.2555  -7.2554  -7.0222  -6.9303  -6.8998  -6.8798  -6.6877
    -6.6874  -6.6777  -6.5931  -6.5931  -6.5478  -6.4360  -6.4360  -6.3936
    -6.3891  -6.3890  -6.3356  -6.2591  -5.2621  -5.2619  -5.1226  -5.1225
    -4.9470  -4.9469  -4.8382  -4.7499  -4.6043  -4.5884  -4.5881  -4.2285
    -3.9659  -3.9653  -3.7284  -3.7280  -3.6415  -3.6299  -3.5014  -3.5014
    -2.8873  -2.2338  -2.2329  -2.2059  -2.2053  -1.7067  -1.6788  -1.6787
    -0.5478  -0.1366  -0.1365   0.8867   1.0795   1.0853   1.0858   1.8159
     2.0782   2.0783   2.5815   2.9250   2.9257   2.9888   3.4914   3.4988
     3.5093   3.7718   3.7805   3.8271   3.9094   4.0297   4.0299

     occupation numbers 
     1.0000   1.0000   1.0000   1.0000   1.0000   1.0000   1.0000   1.0000
     1.0000   1.0000   1.0000   1.0000   1.0000   1.0000   1.0000   1.0000
     1.0000   1.0000   1.0000   1.0000   1.0000   1.0000   1.0000   1.0000
     1.0000   1.0000   1.0000   1.0000   1.0000   1.0000   1.0000   1.0000
     1.0000   1.0000   1.0000   1.0000   1.0000   1.0000   1.0000   1.0000
     1.0000   1.0000   1.0000   1.0000   1.0000   1.0000   1.0000   1.0000
     1.0000   1.0000   1.0000   1.0000   1.0000   1.0000   1.0000   1.0000
     1.0000   1.0000   1.0000   1.0000   1.0000   1.0000   1.0000   1.0000
     1.0000   1.0000   1.0000   1.0000   1.0000   1.0000   1.0000   1.0000
     1.0000   1.0000   1.0000   1.0000   1.0000   1.0000   1.0000   1.0000
     1.0000   1.0000   1.0000   1.0000   1.0000   1.0000   1.0000   1.0000
     1.0000   1.0000   1.0000   1.0000   1.0000   1.0000   1.0000   1.0000
     1.0000   1.0000   1.0000   1.0000   1.0000   1.0000   1.0000   1.0000
     1.0000   0.2518   0.2482   0.0000   0.0000   0.0000   0.0000   0.0000
     0.0000   0.0000   0.0000   0.0000   0.0000   0.0000   0.0000   0.0000
     0.0000   0.0000   0.0000   0.0000   0.0000   0.0000   0.0000

     the Fermi energy is    -0.1399 ev

!    total energy              =    -757.32858026 Ry
     Harris-Foulkes estimate   =    -757.32858065 Ry
     estimated scf accuracy    <       0.00000043 Ry

     The total energy is the sum of the following terms:

     one-electron contribution =   -2579.99601567 Ry
     hartree contribution      =    1336.76655258 Ry
     xc contribution           =    -252.65837789 Ry
     ewald contribution        =     738.55987421 Ry
     smearing contrib. (-TS)   =      -0.00061349 Ry

     convergence has been achieved in  19 iterations

     Writing output data file gr-12.save/

     init_run     :     47.05s CPU     48.12s WALL (       1 calls)
     electrons    :   1004.90s CPU   1036.22s WALL (       1 calls)

     Called by init_run:
     wfcinit      :     20.72s CPU     20.84s WALL (       1 calls)
     wfcinit:atom :      0.03s CPU      0.05s WALL (       1 calls)
     wfcinit:wfcr :     20.51s CPU     20.58s WALL (       1 calls)
     potinit      :     11.78s CPU     12.16s WALL (       1 calls)
     hinit0       :      9.95s CPU      9.99s WALL (       1 calls)

     Called by electrons:
     c_bands      :    619.94s CPU    623.43s WALL (      19 calls)
     sum_band     :    189.96s CPU    200.84s WALL (      19 calls)
     v_of_rho     :    120.28s CPU    127.57s WALL (      20 calls)
     v_h          :      1.36s CPU      1.39s WALL (      20 calls)
     v_xc         :    118.91s CPU    126.18s WALL (      20 calls)
     newd         :     78.88s CPU     89.27s WALL (      20 calls)
     mix_rho      :      3.67s CPU      3.74s WALL (      19 calls)

     Called by c_bands:
     init_us_2    :      1.67s CPU      1.70s WALL (      39 calls)
     cegterg      :    615.86s CPU    619.34s WALL (      19 calls)

     Called by sum_band:
     sum_band:bec :      0.02s CPU      0.02s WALL (      19 calls)
     addusdens    :    116.29s CPU    126.64s WALL (      19 calls)

     Called by *egterg:
     h_psi        :    322.53s CPU    324.92s WALL (     101 calls)
     s_psi        :    108.13s CPU    108.22s WALL (     101 calls)
     g_psi        :      0.34s CPU      0.34s WALL (      81 calls)
     cdiaghg      :      7.03s CPU      7.04s WALL (     100 calls)
     cegterg:over :     76.46s CPU     76.51s WALL (      81 calls)
     cegterg:upda :     48.43s CPU     48.69s WALL (      81 calls)
     cegterg:last :     37.65s CPU     37.66s WALL (      20 calls)

     Called by h_psi:
     h_psi:pot    :    322.10s CPU    324.12s WALL (     101 calls)
     h_psi:calbec :    108.75s CPU    108.82s WALL (     101 calls)
     vloc_psi     :    105.27s CPU    107.15s WALL (     101 calls)
     add_vuspsi   :    108.08s CPU    108.15s WALL (     101 calls)

     General routines
     calbec       :    153.52s CPU    153.62s WALL (     120 calls)
     fft          :     68.88s CPU     71.50s WALL (    1258 calls)
     ffts         :      0.68s CPU      0.69s WALL (      39 calls)
     fftw         :    110.82s CPU    112.94s WALL (   14163 calls)
     interpolate  :      1.68s CPU      1.70s WALL (      20 calls)

     Parallel routines
     fft_scatt_xy :     30.11s CPU     30.48s WALL (   15460 calls)
     fft_scatt_yz :     64.61s CPU     68.07s WALL (   15460 calls)

     PWSCF        :  17m33.15s CPU  18m 5.82s WALL


   This run was terminated on:   1: 4: 3  21Jul2022            

=------------------------------------------------------------------------------=
   JOB DONE.
=------------------------------------------------------------------------------=
