
     Program PWSCF v.6.4.1 starts on 21Jul2022 at  2:33:52 

     This program is part of the open-source Quantum ESPRESSO suite
     for quantum simulation of materials; please cite
         "P. Giannozzi et al., J. Phys.:Condens. Matter 21 395502 (2009);
         "P. Giannozzi et al., J. Phys.:Condens. Matter 29 465901 (2017);
          URL http://www.quantum-espresso.org", 
     in publications or presentations arising from this work. More details at
     http://www.quantum-espresso.org/quote

     Parallel version (MPI), running on     6 processors

     MPI processes distributed on     1 nodes
     R & G space division:  proc/nbgrp/npool/nimage =       6
     Reading input from distance-1.8.in

     Current dimensions of program PWSCF are:
     Max number of different atomic species (ntypx) = 10
     Max number of k-points (npk) =  40000
     Max angular momentum in pseudopotentials (lmaxx) =  3

     IMPORTANT: XC functional enforced from input :
     Exchange-correlation      = RVV10 ( 1  4 13  4 3 0)
     Any further DFT definition will be discarded
     Please, verify this is what you really want

               file H.pbe-rrkjus.UPF: wavefunction(s)  1S renormalized
               file V.pbe-spnl-rrkjus_psl.1.0.0.UPF: wavefunction(s)  3P 3D renormalized

     Subspace diagonalization in iterative solution of the eigenvalue problem:
     a serial algorithm will be used


     Parallelization info
     --------------------
     sticks:   dense  smooth     PW     G-vecs:    dense   smooth      PW
     Min        3051    1746    432               270999   117096   14629
     Max        3053    1747    437               271001   117099   14630
     Sum       18313   10477   2611              1626001   702581   87777



     bravais-lattice index     =            4
     lattice parameter (alat)  =      23.2937  a.u.
     unit-cell volume          =    8879.8548 (a.u.)^3
     number of atoms/cell      =           52
     number of atomic types    =            3
     number of electrons       =       211.00
     number of Kohn-Sham states=          127
     kinetic-energy cutoff     =      70.0000  Ry
     charge density cutoff     =     490.0000  Ry
     convergence threshold     =      1.0E-06
     mixing beta               =       0.7000
     number of iterations used =            8  plain     mixing
     Exchange-correlation      = RVV10 ( 1  4 13  4 3 0)

     celldm(1)=  23.293684  celldm(2)=   0.000000  celldm(3)=   0.811261
     celldm(4)=   0.000000  celldm(5)=   0.000000  celldm(6)=   0.000000

     crystal axes: (cart. coord. in units of alat)
               a(1) = (   1.000000   0.000000   0.000000 )  
               a(2) = (  -0.500000   0.866025   0.000000 )  
               a(3) = (   0.000000   0.000000   0.811261 )  

     reciprocal axes: (cart. coord. in units 2 pi/alat)
               b(1) = (  1.000000  0.577350 -0.000000 )  
               b(2) = (  0.000000  1.154701  0.000000 )  
               b(3) = (  0.000000 -0.000000  1.232649 )  


     PseudoPot. # 1 for H  read from file:
     /home/cristian/Escritorio/Proyecto_Grafeno/pseudopotenciales/H.pbe-rrkjus.UPF
     MD5 check sum: 7cc9d459525c9a0585f487a71c3c9563
     Pseudo is Ultrasoft, Zval =  1.0
     Generated by new atomic code, or converted to UPF format
     Using radial grid of 1061 points,  2 beta functions with: 
                l(1) =   0
                l(2) =   0
     Q(r) pseudized with 0 coefficients 


     PseudoPot. # 2 for C  read from file:
     /home/cristian/Escritorio/Proyecto_Grafeno/pseudopotenciales/C.pbe-n-rrkjus_psl.1.0.0.UPF
     MD5 check sum: 1fdd950c42eb37d8afe3dd2f8d12311e
     Pseudo is Ultrasoft + core correction, Zval =  4.0
     Generated using "atomic" code by A. Dal Corso v.6.3MaX
     Using radial grid of 1073 points,  4 beta functions with: 
                l(1) =   0
                l(2) =   0
                l(3) =   1
                l(4) =   1
     Q(r) pseudized with 0 coefficients 


     PseudoPot. # 3 for V  read from file:
     /home/cristian/Escritorio/Proyecto_Grafeno/pseudopotenciales/V.pbe-spnl-rrkjus_psl.1.0.0.UPF
     MD5 check sum: 79b3eb63147daf0b665d9f1bcc691206
     Pseudo is Ultrasoft + core correction, Zval = 13.0
     Generated using "atomic" code by A. Dal Corso v.6.2.2
     Using radial grid of 1181 points,  6 beta functions with: 
                l(1) =   0
                l(2) =   0
                l(3) =   1
                l(4) =   1
                l(5) =   2
                l(6) =   2
     Q(r) pseudized with 0 coefficients 


     vdW kernel table read from file rVV10_kernel_table
     MD5 check sum: b8e2538accc0c0b3206b45ba4daaba6c

     atomic species   valence    mass     pseudopotential
        H              1.00     1.00794     H ( 1.00)
        C              4.00    12.01070     C ( 1.00)
        V             13.00    50.94150     V ( 1.00)

     No symmetry found


                                    s                        frac. trans.

      isym =  1     identity                                     

 cryst.   s( 1) = (     1          0          0      )
                  (     0          1          0      )
                  (     0          0          1      )

 cart.    s( 1) = (  1.0000000  0.0000000  0.0000000 )
                  (  0.0000000  1.0000000  0.0000000 )
                  (  0.0000000  0.0000000  1.0000000 )


     point group C_1 (1)    
     there are  1 classes
     the character table:

       E    
A      1.00

     the symmetry operations in each class and the name of the first element:

     E        1
          identity                                               

   Cartesian axes

     site n.     atom                  positions (alat units)
         1           H   tau(   1) = (   0.2500000   0.4907477   0.1460270  )
         2           H   tau(   2) = (   0.2500000   0.4907477   0.2070397  )
         3           C   tau(   3) = (   0.0000000   0.0000000   0.0000000  )
         4           C   tau(   4) = (   0.0000000   0.1154701   0.0000000  )
         5           C   tau(   5) = (  -0.1000000   0.1732051   0.0000000  )
         6           C   tau(   6) = (  -0.1000000   0.2886751   0.0000000  )
         7           C   tau(   7) = (  -0.2000000   0.3464102   0.0000000  )
         8           C   tau(   8) = (  -0.2000000   0.4618802   0.0000000  )
         9           C   tau(   9) = (  -0.3000000   0.5196152   0.0000000  )
        10           C   tau(  10) = (  -0.3000000   0.6350853   0.0000000  )
        11           C   tau(  11) = (  -0.4000000   0.6928203   0.0000000  )
        12           C   tau(  12) = (  -0.4000000   0.8082904   0.0000000  )
        13           C   tau(  13) = (   0.2000000   0.0000000   0.0000000  )
        14           C   tau(  14) = (   0.2000000   0.1154701   0.0000000  )
        15           C   tau(  15) = (   0.1000000   0.1732051   0.0000000  )
        16           C   tau(  16) = (   0.1000000   0.2886751   0.0000000  )
        17           C   tau(  17) = (   0.0000000   0.3464102   0.0000000  )
        18           C   tau(  18) = (   0.0000000   0.4618802   0.0000000  )
        19           C   tau(  19) = (  -0.1000000   0.5196152   0.0000000  )
        20           C   tau(  20) = (  -0.1000000   0.6350853   0.0000000  )
        21           C   tau(  21) = (  -0.2000000   0.6928203   0.0000000  )
        22           C   tau(  22) = (  -0.2000000   0.8082904   0.0000000  )
        23           C   tau(  23) = (   0.4000000   0.0000000   0.0000000  )
        24           C   tau(  24) = (   0.4000000   0.1154701   0.0000000  )
        25           C   tau(  25) = (   0.3000000   0.1732051   0.0000000  )
        26           C   tau(  26) = (   0.3000000   0.2886751   0.0000000  )
        27           C   tau(  27) = (   0.2000000   0.3464102   0.0000000  )
        28           V   tau(  28) = (   0.2000000   0.4618802   0.0000000  )
        29           C   tau(  29) = (   0.1000000   0.5196152   0.0000000  )
        30           C   tau(  30) = (   0.1000000   0.6350853   0.0000000  )
        31           C   tau(  31) = (   0.0000000   0.6928203   0.0000000  )
        32           C   tau(  32) = (   0.0000000   0.8082904   0.0000000  )
        33           C   tau(  33) = (   0.6000000   0.0000000   0.0000000  )
        34           C   tau(  34) = (   0.6000000   0.1154701   0.0000000  )
        35           C   tau(  35) = (   0.5000000   0.1732051   0.0000000  )
        36           C   tau(  36) = (   0.5000000   0.2886751   0.0000000  )
        37           C   tau(  37) = (   0.4000000   0.3464102   0.0000000  )
        38           C   tau(  38) = (   0.4000000   0.4618802   0.0000000  )
        39           C   tau(  39) = (   0.3000000   0.5196152   0.0000000  )
        40           C   tau(  40) = (   0.3000000   0.6350853   0.0000000  )
        41           C   tau(  41) = (   0.2000000   0.6928203   0.0000000  )
        42           C   tau(  42) = (   0.2000000   0.8082904   0.0000000  )
        43           C   tau(  43) = (   0.8000000   0.0000000   0.0000000  )
        44           C   tau(  44) = (   0.8000000   0.1154701   0.0000000  )
        45           C   tau(  45) = (   0.7000000   0.1732051   0.0000000  )
        46           C   tau(  46) = (   0.7000000   0.2886751   0.0000000  )
        47           C   tau(  47) = (   0.6000000   0.3464102   0.0000000  )
        48           C   tau(  48) = (   0.6000000   0.4618802   0.0000000  )
        49           C   tau(  49) = (   0.5000000   0.5196152   0.0000000  )
        50           C   tau(  50) = (   0.5000000   0.6350853   0.0000000  )
        51           C   tau(  51) = (   0.4000000   0.6928203   0.0000000  )
        52           C   tau(  52) = (   0.4000000   0.8082904   0.0000000  )

   Crystallographic axes

     site n.     atom                  positions (cryst. coord.)
         1           H   tau(   1) = (  0.5333333  0.5666667  0.1800000  )
         2           H   tau(   2) = (  0.5333333  0.5666667  0.2552072  )
         3           C   tau(   3) = (  0.0000000  0.0000000  0.0000000  )
         4           C   tau(   4) = (  0.0666667  0.1333333  0.0000000  )
         5           C   tau(   5) = (  0.0000000  0.2000000  0.0000000  )
         6           C   tau(   6) = (  0.0666667  0.3333333  0.0000000  )
         7           C   tau(   7) = (  0.0000000  0.4000000  0.0000000  )
         8           C   tau(   8) = (  0.0666667  0.5333333  0.0000000  )
         9           C   tau(   9) = (  0.0000000  0.6000000  0.0000000  )
        10           C   tau(  10) = (  0.0666667  0.7333333  0.0000000  )
        11           C   tau(  11) = (  0.0000000  0.8000000  0.0000000  )
        12           C   tau(  12) = (  0.0666667  0.9333333  0.0000000  )
        13           C   tau(  13) = (  0.2000000  0.0000000  0.0000000  )
        14           C   tau(  14) = (  0.2666667  0.1333333  0.0000000  )
        15           C   tau(  15) = (  0.2000000  0.2000000  0.0000000  )
        16           C   tau(  16) = (  0.2666667  0.3333333  0.0000000  )
        17           C   tau(  17) = (  0.2000000  0.4000000  0.0000000  )
        18           C   tau(  18) = (  0.2666667  0.5333333  0.0000000  )
        19           C   tau(  19) = (  0.2000000  0.6000000  0.0000000  )
        20           C   tau(  20) = (  0.2666667  0.7333333  0.0000000  )
        21           C   tau(  21) = (  0.2000000  0.8000000  0.0000000  )
        22           C   tau(  22) = (  0.2666667  0.9333333  0.0000000  )
        23           C   tau(  23) = (  0.4000000  0.0000000  0.0000000  )
        24           C   tau(  24) = (  0.4666667  0.1333333  0.0000000  )
        25           C   tau(  25) = (  0.4000000  0.2000000  0.0000000  )
        26           C   tau(  26) = (  0.4666667  0.3333333  0.0000000  )
        27           C   tau(  27) = (  0.4000000  0.4000000  0.0000000  )
        28           V   tau(  28) = (  0.4666667  0.5333333  0.0000000  )
        29           C   tau(  29) = (  0.4000000  0.6000000  0.0000000  )
        30           C   tau(  30) = (  0.4666667  0.7333333  0.0000000  )
        31           C   tau(  31) = (  0.4000000  0.8000000  0.0000000  )
        32           C   tau(  32) = (  0.4666667  0.9333333  0.0000000  )
        33           C   tau(  33) = (  0.6000000  0.0000000  0.0000000  )
        34           C   tau(  34) = (  0.6666667  0.1333333  0.0000000  )
        35           C   tau(  35) = (  0.6000000  0.2000000  0.0000000  )
        36           C   tau(  36) = (  0.6666667  0.3333333  0.0000000  )
        37           C   tau(  37) = (  0.6000000  0.4000000  0.0000000  )
        38           C   tau(  38) = (  0.6666667  0.5333333  0.0000000  )
        39           C   tau(  39) = (  0.6000000  0.6000000  0.0000000  )
        40           C   tau(  40) = (  0.6666667  0.7333333  0.0000000  )
        41           C   tau(  41) = (  0.6000000  0.8000000  0.0000000  )
        42           C   tau(  42) = (  0.6666667  0.9333333  0.0000000  )
        43           C   tau(  43) = (  0.8000000  0.0000000  0.0000000  )
        44           C   tau(  44) = (  0.8666667  0.1333333  0.0000000  )
        45           C   tau(  45) = (  0.8000000  0.2000000  0.0000000  )
        46           C   tau(  46) = (  0.8666667  0.3333333  0.0000000  )
        47           C   tau(  47) = (  0.8000000  0.4000000  0.0000000  )
        48           C   tau(  48) = (  0.8666667  0.5333333  0.0000000  )
        49           C   tau(  49) = (  0.8000000  0.6000000  0.0000000  )
        50           C   tau(  50) = (  0.8666667  0.7333333  0.0000000  )
        51           C   tau(  51) = (  0.8000000  0.8000000  0.0000000  )
        52           C   tau(  52) = (  0.8666667  0.9333333  0.0000000  )

     number of k points=     1  Marzari-Vanderbilt smearing, width (Ry)=  0.0010
                       cart. coord. in units 2pi/alat
        k(    1) = (   0.0000000   0.0000000   0.0000000), wk =   2.0000000

                       cryst. coord.
        k(    1) = (   0.0000000   0.0000000   0.0000000), wk =   2.0000000

     Dense  grid:  1626001 G-vectors     FFT dimensions: ( 180, 180, 135)

     Smooth grid:   702581 G-vectors     FFT dimensions: ( 125, 125, 108)

     Dynamical RAM for                 wfc:      28.36 MB

     Dynamical RAM for     wfc (w. buffer):      28.36 MB

     Dynamical RAM for           str. fact:      12.41 MB

     Dynamical RAM for           local pot:       0.00 MB

     Dynamical RAM for          nlocal pot:      92.46 MB

     Dynamical RAM for                qrad:      19.73 MB

     Dynamical RAM for          rho,v,vnew:      29.46 MB

     Dynamical RAM for               rhoin:       9.82 MB

     Dynamical RAM for            rho*nmix:      66.16 MB

     Dynamical RAM for           G-vectors:      16.40 MB

     Dynamical RAM for          h,s,v(r/c):      11.81 MB

     Dynamical RAM for          <psi|beta>:       0.80 MB

     Dynamical RAM for                 psi:     113.46 MB

     Dynamical RAM for                hpsi:     113.46 MB

     Dynamical RAM for                spsi:     113.46 MB

     Dynamical RAM for      wfcinit/wfcrot:      93.90 MB

     Dynamical RAM for           addusdens:     971.75 MB

     Estimated static dynamical RAM per process >     319.78 MB

     Estimated max dynamical RAM per process >       1.26 GB

     Estimated total dynamical RAM >       7.57 GB

     Check: negative core charge=   -0.000002

     Initial potential from superposition of free atoms

     starting charge  210.80465, renormalised to  211.00000

     negative rho (up, down):  1.377E-04 0.000E+00


---------------------------------------------------------------------------------
Carrying out rVV10 run using the following parameters:
Nqs =      20    Nr_points =    1024   r_max =   100.000
b_value =  6.30000    beta =  0.00901
     q_mesh =  0.00010000  0.00030000  0.00058939  0.00100810
               0.00161396  0.00249058  0.00375900  0.00559430
               0.00824984  0.01209221  0.01765183  0.02569619
               0.03733578  0.05417739  0.07854596  0.11380545
               0.16482331  0.23864234  0.34545298  0.50000000

Gradients computed in Reciprocal space

---------------------------------------------------------------------------------


     Starting wfcs are  208 randomized atomic wfcs

     total cpu time spent up to now is       49.2 secs

     Self-consistent Calculation

     iteration #  1     ecut=    70.00 Ry     beta= 0.70
     Davidson diagonalization with overlap
     ethr =  1.00E-02,  avg # of iterations =  3.0

     negative rho (up, down):  2.874E-04 0.000E+00

     total cpu time spent up to now is      115.0 secs

     total energy              =    -750.82181244 Ry
     Harris-Foulkes estimate   =    -760.85518896 Ry
     estimated scf accuracy    <      13.37689539 Ry

     iteration #  2     ecut=    70.00 Ry     beta= 0.70
     Davidson diagonalization with overlap
     ethr =  6.34E-03,  avg # of iterations =  6.0

     negative rho (up, down):  2.179E-03 0.000E+00

     total cpu time spent up to now is      177.2 secs

     total energy              =    -742.33913963 Ry
     Harris-Foulkes estimate   =    -776.02142293 Ry
     estimated scf accuracy    <     122.97733334 Ry

     iteration #  3     ecut=    70.00 Ry     beta= 0.70
     Davidson diagonalization with overlap
     ethr =  6.34E-03,  avg # of iterations =  5.0

     negative rho (up, down):  3.188E-02 0.000E+00

     total cpu time spent up to now is      255.5 secs

     total energy              =    -755.80654461 Ry
     Harris-Foulkes estimate   =    -758.55748936 Ry
     estimated scf accuracy    <       6.88234550 Ry

     iteration #  4     ecut=    70.00 Ry     beta= 0.70
     Davidson diagonalization with overlap
     ethr =  3.26E-03,  avg # of iterations =  3.0

     negative rho (up, down):  1.713E-02 0.000E+00

     total cpu time spent up to now is      313.1 secs

     total energy              =    -756.69718396 Ry
     Harris-Foulkes estimate   =    -757.62664003 Ry
     estimated scf accuracy    <       2.97015732 Ry

     iteration #  5     ecut=    70.00 Ry     beta= 0.70
     Davidson diagonalization with overlap
     ethr =  1.41E-03,  avg # of iterations =  6.0

     negative rho (up, down):  4.819E-02 0.000E+00

     total cpu time spent up to now is      365.3 secs

     total energy              =    -757.24806333 Ry
     Harris-Foulkes estimate   =    -757.37622403 Ry
     estimated scf accuracy    <       0.53239528 Ry

     iteration #  6     ecut=    70.00 Ry     beta= 0.70
     Davidson diagonalization with overlap
     ethr =  2.52E-04,  avg # of iterations =  4.0

     negative rho (up, down):  5.225E-02 0.000E+00

     total cpu time spent up to now is      415.9 secs

     total energy              =    -757.26840853 Ry
     Harris-Foulkes estimate   =    -757.30468866 Ry
     estimated scf accuracy    <       0.16385400 Ry

     iteration #  7     ecut=    70.00 Ry     beta= 0.70
     Davidson diagonalization with overlap
     ethr =  7.77E-05,  avg # of iterations =  5.0

     negative rho (up, down):  2.998E-02 0.000E+00

     total cpu time spent up to now is      466.8 secs

     total energy              =    -757.28949296 Ry
     Harris-Foulkes estimate   =    -757.29588233 Ry
     estimated scf accuracy    <       0.08687382 Ry

     iteration #  8     ecut=    70.00 Ry     beta= 0.70
     Davidson diagonalization with overlap
     ethr =  4.12E-05,  avg # of iterations =  4.0

     negative rho (up, down):  3.293E-02 0.000E+00

     total cpu time spent up to now is      519.8 secs

     total energy              =    -757.30037600 Ry
     Harris-Foulkes estimate   =    -757.30407125 Ry
     estimated scf accuracy    <       0.02879171 Ry

     iteration #  9     ecut=    70.00 Ry     beta= 0.70
     Davidson diagonalization with overlap
     ethr =  1.36E-05,  avg # of iterations =  4.0

     negative rho (up, down):  3.107E-02 0.000E+00

     total cpu time spent up to now is      574.9 secs

     total energy              =    -757.30907322 Ry
     Harris-Foulkes estimate   =    -757.30803424 Ry
     estimated scf accuracy    <       0.01686149 Ry

     iteration # 10     ecut=    70.00 Ry     beta= 0.70
     Davidson diagonalization with overlap
     ethr =  7.99E-06,  avg # of iterations =  4.0

     negative rho (up, down):  3.400E-02 0.000E+00

     total cpu time spent up to now is      626.0 secs

     total energy              =    -757.31018572 Ry
     Harris-Foulkes estimate   =    -757.31077389 Ry
     estimated scf accuracy    <       0.00255280 Ry

     iteration # 11     ecut=    70.00 Ry     beta= 0.70
     Davidson diagonalization with overlap
     ethr =  1.21E-06,  avg # of iterations = 12.0

     negative rho (up, down):  3.637E-02 0.000E+00

     total cpu time spent up to now is      683.3 secs

     total energy              =    -757.30960134 Ry
     Harris-Foulkes estimate   =    -757.31186435 Ry
     estimated scf accuracy    <       0.01662000 Ry

     iteration # 12     ecut=    70.00 Ry     beta= 0.70
     Davidson diagonalization with overlap
     ethr =  1.21E-06,  avg # of iterations = 11.0

     negative rho (up, down):  3.430E-02 0.000E+00

     total cpu time spent up to now is      736.0 secs

     total energy              =    -757.31119232 Ry
     Harris-Foulkes estimate   =    -757.31046886 Ry
     estimated scf accuracy    <       0.00461793 Ry

     iteration # 13     ecut=    70.00 Ry     beta= 0.70
     Davidson diagonalization with overlap
     ethr =  1.21E-06,  avg # of iterations = 11.0

     negative rho (up, down):  3.263E-02 0.000E+00

     total cpu time spent up to now is      789.2 secs

     total energy              =    -757.31294798 Ry
     Harris-Foulkes estimate   =    -757.31154113 Ry
     estimated scf accuracy    <       0.00123312 Ry

     iteration # 14     ecut=    70.00 Ry     beta= 0.70
     Davidson diagonalization with overlap
     ethr =  5.84E-07,  avg # of iterations =  7.0

     negative rho (up, down):  3.296E-02 0.000E+00

     total cpu time spent up to now is      843.0 secs

     total energy              =    -757.31296978 Ry
     Harris-Foulkes estimate   =    -757.31304791 Ry
     estimated scf accuracy    <       0.00017629 Ry

     iteration # 15     ecut=    70.00 Ry     beta= 0.70
     Davidson diagonalization with overlap
     ethr =  8.36E-08,  avg # of iterations =  3.0

     negative rho (up, down):  3.333E-02 0.000E+00

     total cpu time spent up to now is      893.1 secs

     total energy              =    -757.31301628 Ry
     Harris-Foulkes estimate   =    -757.31300455 Ry
     estimated scf accuracy    <       0.00008005 Ry

     iteration # 16     ecut=    70.00 Ry     beta= 0.70
     Davidson diagonalization with overlap
     ethr =  3.79E-08,  avg # of iterations =  3.0

     negative rho (up, down):  3.332E-02 0.000E+00

     total cpu time spent up to now is      942.4 secs

     total energy              =    -757.31301933 Ry
     Harris-Foulkes estimate   =    -757.31303057 Ry
     estimated scf accuracy    <       0.00016986 Ry

     iteration # 17     ecut=    70.00 Ry     beta= 0.70
     Davidson diagonalization with overlap
     ethr =  3.79E-08,  avg # of iterations =  1.0

     negative rho (up, down):  3.341E-02 0.000E+00

     total cpu time spent up to now is      990.7 secs

     total energy              =    -757.31302666 Ry
     Harris-Foulkes estimate   =    -757.31302528 Ry
     estimated scf accuracy    <       0.00000490 Ry

     iteration # 18     ecut=    70.00 Ry     beta= 0.70
     Davidson diagonalization with overlap
     ethr =  2.32E-09,  avg # of iterations =  3.0

     negative rho (up, down):  3.344E-02 0.000E+00

     total cpu time spent up to now is     1043.0 secs

     total energy              =    -757.31302646 Ry
     Harris-Foulkes estimate   =    -757.31302755 Ry
     estimated scf accuracy    <       0.00000442 Ry

     iteration # 19     ecut=    70.00 Ry     beta= 0.70
     Davidson diagonalization with overlap
     ethr =  2.09E-09,  avg # of iterations =  2.0

     negative rho (up, down):  3.345E-02 0.000E+00

     total cpu time spent up to now is     1091.3 secs

     End of self-consistent calculation

          k = 0.0000 0.0000 0.0000 ( 87777 PWs)   bands (ev):

   -62.7257 -37.8383 -37.8281 -36.4630 -19.6195 -18.7807 -18.7720 -18.7075
   -18.6645 -18.6609 -18.2212 -16.9257 -16.9204 -16.9203 -16.7814 -16.7794
   -16.5062 -16.0645 -16.0636 -15.9762 -15.8219 -15.8167 -15.0766 -13.8699
   -13.8680 -13.8669 -13.8535 -13.8529 -13.1322 -12.9084 -12.9063 -12.8871
   -12.5011 -12.4965 -12.1042 -11.6323 -11.6318 -11.5088 -11.1362 -11.1277
   -10.1573  -9.3285  -9.3256  -9.2454  -9.1687  -9.1686  -9.0839  -9.0563
    -9.0552  -9.0426  -8.5994  -8.4550  -8.3880  -7.8831  -7.8829  -7.8491
    -7.7115  -7.6670  -7.2443  -7.2430  -6.9202  -6.8849  -6.8361  -6.6802
    -6.6759  -6.6588  -6.5804  -6.5802  -6.5344  -6.4260  -6.4232  -6.3826
    -6.3788  -6.3755  -6.3241  -6.1123  -5.2518  -5.2475  -5.1105  -5.0381
    -4.9362  -4.9347  -4.8269  -4.7371  -4.5943  -4.5808  -4.5768  -4.1914
    -3.9550  -3.9484  -3.7202  -3.7178  -3.6307  -3.6022  -3.4906  -3.4893
    -2.8099  -2.2399  -2.2208  -2.1798  -2.1795  -1.6947  -1.6694  -1.6689
    -0.4901  -0.1388  -0.1374   1.0907   1.0922   1.0946   1.2754   1.8375
     2.0846   2.0856   2.4850   2.9311   2.9356   3.0000   3.4999   3.5087
     3.5281   3.7696   3.7814   3.8306   3.9292   4.0393   4.0394

     occupation numbers 
     1.0000   1.0000   1.0000   1.0000   1.0000   1.0000   1.0000   1.0000
     1.0000   1.0000   1.0000   1.0000   1.0000   1.0000   1.0000   1.0000
     1.0000   1.0000   1.0000   1.0000   1.0000   1.0000   1.0000   1.0000
     1.0000   1.0000   1.0000   1.0000   1.0000   1.0000   1.0000   1.0000
     1.0000   1.0000   1.0000   1.0000   1.0000   1.0000   1.0000   1.0000
     1.0000   1.0000   1.0000   1.0000   1.0000   1.0000   1.0000   1.0000
     1.0000   1.0000   1.0000   1.0000   1.0000   1.0000   1.0000   1.0000
     1.0000   1.0000   1.0000   1.0000   1.0000   1.0000   1.0000   1.0000
     1.0000   1.0000   1.0000   1.0000   1.0000   1.0000   1.0000   1.0000
     1.0000   1.0000   1.0000   1.0000   1.0000   1.0000   1.0000   1.0000
     1.0000   1.0000   1.0000   1.0000   1.0000   1.0000   1.0000   1.0000
     1.0000   1.0000   1.0000   1.0000   1.0000   1.0000   1.0000   1.0000
     1.0000   1.0000   1.0000   1.0000   1.0000   1.0000   1.0000   1.0000
     1.0000   0.2772   0.2228   0.0000   0.0000   0.0000   0.0000   0.0000
     0.0000   0.0000   0.0000   0.0000   0.0000   0.0000   0.0000   0.0000
     0.0000   0.0000   0.0000   0.0000   0.0000   0.0000   0.0000

     the Fermi energy is    -0.1415 ev

!    total energy              =    -757.31302574 Ry
     Harris-Foulkes estimate   =    -757.31302686 Ry
     estimated scf accuracy    <       0.00000079 Ry

     The total energy is the sum of the following terms:

     one-electron contribution =   -2606.75134215 Ry
     hartree contribution      =    1350.19838915 Ry
     xc contribution           =    -252.71521988 Ry
     ewald contribution        =     751.95575786 Ry
     smearing contrib. (-TS)   =      -0.00061071 Ry

     convergence has been achieved in  19 iterations

     Writing output data file gr-12.save/

     init_run     :     46.90s CPU     48.04s WALL (       1 calls)
     electrons    :   1010.85s CPU   1042.26s WALL (       1 calls)

     Called by init_run:
     wfcinit      :     20.73s CPU     20.86s WALL (       1 calls)
     wfcinit:atom :      0.03s CPU      0.04s WALL (       1 calls)
     wfcinit:wfcr :     20.55s CPU     20.63s WALL (       1 calls)
     potinit      :     11.86s CPU     12.26s WALL (       1 calls)
     hinit0       :      9.81s CPU      9.84s WALL (       1 calls)

     Called by electrons:
     c_bands      :    624.37s CPU    628.09s WALL (      19 calls)
     sum_band     :    190.55s CPU    201.02s WALL (      19 calls)
     v_of_rho     :    120.91s CPU    128.42s WALL (      20 calls)
     v_h          :      1.34s CPU      1.38s WALL (      20 calls)
     v_xc         :    119.58s CPU    127.03s WALL (      20 calls)
     newd         :     79.20s CPU     89.69s WALL (      20 calls)
     mix_rho      :      3.60s CPU      3.67s WALL (      19 calls)

     Called by c_bands:
     init_us_2    :      1.64s CPU      1.68s WALL (      39 calls)
     cegterg      :    620.09s CPU    623.79s WALL (      19 calls)

     Called by sum_band:
     sum_band:bec :      0.02s CPU      0.02s WALL (      19 calls)
     addusdens    :    117.03s CPU    126.99s WALL (      19 calls)

     Called by *egterg:
     h_psi        :    328.66s CPU    331.25s WALL (     117 calls)
     s_psi        :    110.40s CPU    110.48s WALL (     117 calls)
     g_psi        :      0.34s CPU      0.34s WALL (      97 calls)
     cdiaghg      :      8.55s CPU      8.56s WALL (     116 calls)
     cegterg:over :     75.88s CPU     75.93s WALL (      97 calls)
     cegterg:upda :     49.35s CPU     49.63s WALL (      97 calls)
     cegterg:last :     31.83s CPU     31.84s WALL (      19 calls)

     Called by h_psi:
     h_psi:pot    :    328.22s CPU    330.44s WALL (     117 calls)
     h_psi:calbec :    110.54s CPU    110.59s WALL (     117 calls)
     vloc_psi     :    107.51s CPU    109.62s WALL (     117 calls)
     add_vuspsi   :    110.17s CPU    110.22s WALL (     117 calls)

     General routines
     calbec       :    155.52s CPU    155.59s WALL (     136 calls)
     fft          :     67.46s CPU     70.19s WALL (    1258 calls)
     ffts         :      0.69s CPU      0.70s WALL (      39 calls)
     fftw         :    113.32s CPU    115.59s WALL (   14291 calls)
     interpolate  :      1.67s CPU      1.71s WALL (      20 calls)

     Parallel routines
     fft_scatt_xy :     31.12s CPU     31.55s WALL (   15588 calls)
     fft_scatt_yz :     63.52s CPU     67.07s WALL (   15588 calls)

     PWSCF        :  17m39.01s CPU  18m11.78s WALL


   This run was terminated on:   2:52: 4  21Jul2022            

=------------------------------------------------------------------------------=
   JOB DONE.
=------------------------------------------------------------------------------=
