
     Program PWSCF v.6.4.1 starts on  7Nov2022 at  8:13:27 

     This program is part of the open-source Quantum ESPRESSO suite
     for quantum simulation of materials; please cite
         "P. Giannozzi et al., J. Phys.:Condens. Matter 21 395502 (2009);
         "P. Giannozzi et al., J. Phys.:Condens. Matter 29 465901 (2017);
          URL http://www.quantum-espresso.org", 
     in publications or presentations arising from this work. More details at
     http://www.quantum-espresso.org/quote

     Parallel version (MPI), running on     6 processors

     MPI processes distributed on     1 nodes
     R & G space division:  proc/nbgrp/npool/nimage =       6
     Reading input from distance-2.6.in

     Current dimensions of program PWSCF are:
     Max number of different atomic species (ntypx) = 10
     Max number of k-points (npk) =  40000
     Max angular momentum in pseudopotentials (lmaxx) =  3

     IMPORTANT: XC functional enforced from input :
     Exchange-correlation      = RVV10 ( 1  4 13  4 3 0)
     Any further DFT definition will be discarded
     Please, verify this is what you really want

               file H.pbe-rrkjus.UPF: wavefunction(s)  1S renormalized

     Subspace diagonalization in iterative solution of the eigenvalue problem:
     a serial algorithm will be used


     Parallelization info
     --------------------
     sticks:   dense  smooth     PW     G-vecs:    dense   smooth      PW
     Min        3051    1746    432               270999   117096   14629
     Max        3053    1747    437               271001   117099   14630
     Sum       18313   10477   2611              1626001   702581   87777



     bravais-lattice index     =            4
     lattice parameter (alat)  =      23.2937  a.u.
     unit-cell volume          =    8879.8548 (a.u.)^3
     number of atoms/cell      =           52
     number of atomic types    =            3
     number of electrons       =       214.00
     number of Kohn-Sham states=          128
     kinetic-energy cutoff     =      70.0000  Ry
     charge density cutoff     =     490.0000  Ry
     convergence threshold     =      1.0E-06
     mixing beta               =       0.3000
     number of iterations used =            4  plain     mixing
     Exchange-correlation      = RVV10 ( 1  4 13  4 3 0)

     celldm(1)=  23.293684  celldm(2)=   0.000000  celldm(3)=   0.811261
     celldm(4)=   0.000000  celldm(5)=   0.000000  celldm(6)=   0.000000

     crystal axes: (cart. coord. in units of alat)
               a(1) = (   1.000000   0.000000   0.000000 )  
               a(2) = (  -0.500000   0.866025   0.000000 )  
               a(3) = (   0.000000   0.000000   0.811261 )  

     reciprocal axes: (cart. coord. in units 2 pi/alat)
               b(1) = (  1.000000  0.577350 -0.000000 )  
               b(2) = (  0.000000  1.154701  0.000000 )  
               b(3) = (  0.000000 -0.000000  1.232649 )  


     PseudoPot. # 1 for H  read from file:
     /home/cristian/Escritorio/Proyecto_Grafeno/pseudopotenciales/H.pbe-rrkjus.UPF
     MD5 check sum: 7cc9d459525c9a0585f487a71c3c9563
     Pseudo is Ultrasoft, Zval =  1.0
     Generated by new atomic code, or converted to UPF format
     Using radial grid of 1061 points,  2 beta functions with: 
                l(1) =   0
                l(2) =   0
     Q(r) pseudized with 0 coefficients 


     PseudoPot. # 2 for C  read from file:
     /home/cristian/Escritorio/Proyecto_Grafeno/pseudopotenciales/C.pbe-n-rrkjus_psl.1.0.0.UPF
     MD5 check sum: 1fdd950c42eb37d8afe3dd2f8d12311e
     Pseudo is Ultrasoft + core correction, Zval =  4.0
     Generated using "atomic" code by A. Dal Corso v.6.3MaX
     Using radial grid of 1073 points,  4 beta functions with: 
                l(1) =   0
                l(2) =   0
                l(3) =   1
                l(4) =   1
     Q(r) pseudized with 0 coefficients 


     PseudoPot. # 3 for Fe read from file:
     /home/cristian/Escritorio/Proyecto_Grafeno/pseudopotenciales/Fe.pbe-spn-rrkjus_psl.1.0.0.UPF
     MD5 check sum: 72ea77fed8e64ab3a2ccf2804dfc1862
     Pseudo is Ultrasoft + core correction, Zval = 16.0
     Generated using "atomic" code by A. Dal Corso v.6.3
     Using radial grid of 1191 points,  6 beta functions with: 
                l(1) =   0
                l(2) =   0
                l(3) =   1
                l(4) =   1
                l(5) =   2
                l(6) =   2
     Q(r) pseudized with 0 coefficients 


     vdW kernel table read from file rVV10_kernel_table
     MD5 check sum: b8e2538accc0c0b3206b45ba4daaba6c

     atomic species   valence    mass     pseudopotential
        H              1.00     1.00794     H ( 1.00)
        C              4.00    12.01070     C ( 1.00)
        Fe            16.00    55.84500     Fe( 1.00)

     Starting magnetic structure 
     atomic species   magnetization
        H            0.500
        C            0.300
        Fe           0.800

     No symmetry found


                                    s                        frac. trans.

      isym =  1     identity                                     

 cryst.   s( 1) = (     1          0          0      )
                  (     0          1          0      )
                  (     0          0          1      )

 cart.    s( 1) = (  1.0000000  0.0000000  0.0000000 )
                  (  0.0000000  1.0000000  0.0000000 )
                  (  0.0000000  0.0000000  1.0000000 )


     point group C_1 (1)    
     there are  1 classes
     the character table:

       E    
A      1.00

     the symmetry operations in each class and the name of the first element:

     E        1
          identity                                               

   Cartesian axes

     site n.     atom                  positions (alat units)
         1           H   tau(   1) = (   0.2500000   0.4907477   0.2109279  )
         2           H   tau(   2) = (   0.2500000   0.4907477   0.2719406  )
         3           C   tau(   3) = (   0.0000000   0.0000000   0.0000000  )
         4           C   tau(   4) = (   0.0000000   0.1154701   0.0000000  )
         5           C   tau(   5) = (  -0.1000000   0.1732051   0.0000000  )
         6           C   tau(   6) = (  -0.1000000   0.2886751   0.0000000  )
         7           C   tau(   7) = (  -0.2000000   0.3464102   0.0000000  )
         8           C   tau(   8) = (  -0.2000000   0.4618802   0.0000000  )
         9           C   tau(   9) = (  -0.3000000   0.5196152   0.0000000  )
        10           C   tau(  10) = (  -0.3000000   0.6350853   0.0000000  )
        11           C   tau(  11) = (  -0.4000000   0.6928203   0.0000000  )
        12           C   tau(  12) = (  -0.4000000   0.8082904   0.0000000  )
        13           C   tau(  13) = (   0.2000000   0.0000000   0.0000000  )
        14           C   tau(  14) = (   0.2000000   0.1154701   0.0000000  )
        15           C   tau(  15) = (   0.1000000   0.1732051   0.0000000  )
        16           C   tau(  16) = (   0.1000000   0.2886751   0.0000000  )
        17           C   tau(  17) = (   0.0000000   0.3464102   0.0000000  )
        18           C   tau(  18) = (   0.0000000   0.4618802   0.0000000  )
        19           C   tau(  19) = (  -0.1000000   0.5196152   0.0000000  )
        20           C   tau(  20) = (  -0.1000000   0.6350853   0.0000000  )
        21           C   tau(  21) = (  -0.2000000   0.6928203   0.0000000  )
        22           C   tau(  22) = (  -0.2000000   0.8082904   0.0000000  )
        23           C   tau(  23) = (   0.4000000   0.0000000   0.0000000  )
        24           C   tau(  24) = (   0.4000000   0.1154701   0.0000000  )
        25           C   tau(  25) = (   0.3000000   0.1732051   0.0000000  )
        26           C   tau(  26) = (   0.3000000   0.2886751   0.0000000  )
        27           C   tau(  27) = (   0.2000000   0.3464102   0.0000000  )
        28           Fe  tau(  28) = (   0.2000000   0.4618802   0.0000000  )
        29           C   tau(  29) = (   0.1000000   0.5196152   0.0000000  )
        30           C   tau(  30) = (   0.1000000   0.6350853   0.0000000  )
        31           C   tau(  31) = (   0.0000000   0.6928203   0.0000000  )
        32           C   tau(  32) = (   0.0000000   0.8082904   0.0000000  )
        33           C   tau(  33) = (   0.6000000   0.0000000   0.0000000  )
        34           C   tau(  34) = (   0.6000000   0.1154701   0.0000000  )
        35           C   tau(  35) = (   0.5000000   0.1732051   0.0000000  )
        36           C   tau(  36) = (   0.5000000   0.2886751   0.0000000  )
        37           C   tau(  37) = (   0.4000000   0.3464102   0.0000000  )
        38           C   tau(  38) = (   0.4000000   0.4618802   0.0000000  )
        39           C   tau(  39) = (   0.3000000   0.5196152   0.0000000  )
        40           C   tau(  40) = (   0.3000000   0.6350853   0.0000000  )
        41           C   tau(  41) = (   0.2000000   0.6928203   0.0000000  )
        42           C   tau(  42) = (   0.2000000   0.8082904   0.0000000  )
        43           C   tau(  43) = (   0.8000000   0.0000000   0.0000000  )
        44           C   tau(  44) = (   0.8000000   0.1154701   0.0000000  )
        45           C   tau(  45) = (   0.7000000   0.1732051   0.0000000  )
        46           C   tau(  46) = (   0.7000000   0.2886751   0.0000000  )
        47           C   tau(  47) = (   0.6000000   0.3464102   0.0000000  )
        48           C   tau(  48) = (   0.6000000   0.4618802   0.0000000  )
        49           C   tau(  49) = (   0.5000000   0.5196152   0.0000000  )
        50           C   tau(  50) = (   0.5000000   0.6350853   0.0000000  )
        51           C   tau(  51) = (   0.4000000   0.6928203   0.0000000  )
        52           C   tau(  52) = (   0.4000000   0.8082904   0.0000000  )

   Crystallographic axes

     site n.     atom                  positions (cryst. coord.)
         1           H   tau(   1) = (  0.5333333  0.5666667  0.2600000  )
         2           H   tau(   2) = (  0.5333333  0.5666667  0.3352072  )
         3           C   tau(   3) = (  0.0000000  0.0000000  0.0000000  )
         4           C   tau(   4) = (  0.0666667  0.1333333  0.0000000  )
         5           C   tau(   5) = (  0.0000000  0.2000000  0.0000000  )
         6           C   tau(   6) = (  0.0666667  0.3333333  0.0000000  )
         7           C   tau(   7) = (  0.0000000  0.4000000  0.0000000  )
         8           C   tau(   8) = (  0.0666667  0.5333333  0.0000000  )
         9           C   tau(   9) = (  0.0000000  0.6000000  0.0000000  )
        10           C   tau(  10) = (  0.0666667  0.7333333  0.0000000  )
        11           C   tau(  11) = (  0.0000000  0.8000000  0.0000000  )
        12           C   tau(  12) = (  0.0666667  0.9333333  0.0000000  )
        13           C   tau(  13) = (  0.2000000  0.0000000  0.0000000  )
        14           C   tau(  14) = (  0.2666667  0.1333333  0.0000000  )
        15           C   tau(  15) = (  0.2000000  0.2000000  0.0000000  )
        16           C   tau(  16) = (  0.2666667  0.3333333  0.0000000  )
        17           C   tau(  17) = (  0.2000000  0.4000000  0.0000000  )
        18           C   tau(  18) = (  0.2666667  0.5333333  0.0000000  )
        19           C   tau(  19) = (  0.2000000  0.6000000  0.0000000  )
        20           C   tau(  20) = (  0.2666667  0.7333333  0.0000000  )
        21           C   tau(  21) = (  0.2000000  0.8000000  0.0000000  )
        22           C   tau(  22) = (  0.2666667  0.9333333  0.0000000  )
        23           C   tau(  23) = (  0.4000000  0.0000000  0.0000000  )
        24           C   tau(  24) = (  0.4666667  0.1333333  0.0000000  )
        25           C   tau(  25) = (  0.4000000  0.2000000  0.0000000  )
        26           C   tau(  26) = (  0.4666667  0.3333333  0.0000000  )
        27           C   tau(  27) = (  0.4000000  0.4000000  0.0000000  )
        28           Fe  tau(  28) = (  0.4666667  0.5333333  0.0000000  )
        29           C   tau(  29) = (  0.4000000  0.6000000  0.0000000  )
        30           C   tau(  30) = (  0.4666667  0.7333333  0.0000000  )
        31           C   tau(  31) = (  0.4000000  0.8000000  0.0000000  )
        32           C   tau(  32) = (  0.4666667  0.9333333  0.0000000  )
        33           C   tau(  33) = (  0.6000000  0.0000000  0.0000000  )
        34           C   tau(  34) = (  0.6666667  0.1333333  0.0000000  )
        35           C   tau(  35) = (  0.6000000  0.2000000  0.0000000  )
        36           C   tau(  36) = (  0.6666667  0.3333333  0.0000000  )
        37           C   tau(  37) = (  0.6000000  0.4000000  0.0000000  )
        38           C   tau(  38) = (  0.6666667  0.5333333  0.0000000  )
        39           C   tau(  39) = (  0.6000000  0.6000000  0.0000000  )
        40           C   tau(  40) = (  0.6666667  0.7333333  0.0000000  )
        41           C   tau(  41) = (  0.6000000  0.8000000  0.0000000  )
        42           C   tau(  42) = (  0.6666667  0.9333333  0.0000000  )
        43           C   tau(  43) = (  0.8000000  0.0000000  0.0000000  )
        44           C   tau(  44) = (  0.8666667  0.1333333  0.0000000  )
        45           C   tau(  45) = (  0.8000000  0.2000000  0.0000000  )
        46           C   tau(  46) = (  0.8666667  0.3333333  0.0000000  )
        47           C   tau(  47) = (  0.8000000  0.4000000  0.0000000  )
        48           C   tau(  48) = (  0.8666667  0.5333333  0.0000000  )
        49           C   tau(  49) = (  0.8000000  0.6000000  0.0000000  )
        50           C   tau(  50) = (  0.8666667  0.7333333  0.0000000  )
        51           C   tau(  51) = (  0.8000000  0.8000000  0.0000000  )
        52           C   tau(  52) = (  0.8666667  0.9333333  0.0000000  )

     number of k points=     1  Marzari-Vanderbilt smearing, width (Ry)=  0.0010
                       cart. coord. in units 2pi/alat
        k(    1) = (   0.0000000   0.0000000   0.0000000), wk =   1.0000000

                       cryst. coord.
        k(    1) = (   0.0000000   0.0000000   0.0000000), wk =   1.0000000

     Dense  grid:  1626001 G-vectors     FFT dimensions: ( 180, 180, 135)

     Smooth grid:   702581 G-vectors     FFT dimensions: ( 125, 125, 108)

     Dynamical RAM for                 wfc:      28.59 MB

     Dynamical RAM for     wfc (w. buffer):      85.76 MB

     Dynamical RAM for           str. fact:      12.41 MB

     Dynamical RAM for           local pot:       0.00 MB

     Dynamical RAM for          nlocal pot:      92.46 MB

     Dynamical RAM for                qrad:      19.73 MB

     Dynamical RAM for          rho,v,vnew:      58.92 MB

     Dynamical RAM for               rhoin:      19.64 MB

     Dynamical RAM for            rho*nmix:      66.16 MB

     Dynamical RAM for           G-vectors:      16.40 MB

     Dynamical RAM for          h,s,v(r/c):      12.00 MB

     Dynamical RAM for          <psi|beta>:       0.81 MB

     Dynamical RAM for                 psi:     114.35 MB

     Dynamical RAM for                hpsi:     114.35 MB

     Dynamical RAM for                spsi:     114.35 MB

     Dynamical RAM for      wfcinit/wfcrot:      93.90 MB

     Dynamical RAM for           addusdens:     975.89 MB

     Estimated static dynamical RAM per process >     422.14 MB

     Estimated max dynamical RAM per process >       1.37 GB

     Estimated total dynamical RAM >       8.19 GB
     Generating pointlists ...
     new r_m :   0.0252 (alat units)  0.5862 (a.u.) for type    1
     new r_m :   0.0476 (alat units)  1.1095 (a.u.) for type    2
     new r_m :   0.0476 (alat units)  1.1095 (a.u.) for type    3

     Check: negative core charge=   -0.000002

     Initial potential from superposition of free atoms

     starting charge  213.80512, renormalised to  214.00000

     negative rho (up, down):  5.991E-05 1.121E-02


---------------------------------------------------------------------------------
Carrying out rVV10 run using the following parameters:
Nqs =      20    Nr_points =    1024   r_max =   100.000
b_value =  6.30000    beta =  0.00901
     q_mesh =  0.00010000  0.00030000  0.00058939  0.00100810
               0.00161396  0.00249058  0.00375900  0.00559430
               0.00824984  0.01209221  0.01765183  0.02569619
               0.03733578  0.05417739  0.07854596  0.11380545
               0.16482331  0.23864234  0.34545298  0.50000000

Gradients computed in Reciprocal space

---------------------------------------------------------------------------------


     Starting wfcs are  208 randomized atomic wfcs

     total cpu time spent up to now is       72.3 secs

     Self-consistent Calculation

     iteration #  1     ecut=    70.00 Ry     beta= 0.30
     Davidson diagonalization with overlap
     ethr =  1.00E-02,  avg # of iterations =  2.5

     negative rho (up, down):  7.803E-05 1.122E-02

     total cpu time spent up to now is      198.7 secs

     total energy              =    -858.02189655 Ry
     Harris-Foulkes estimate   =    -858.63728030 Ry
     estimated scf accuracy    <      10.27519218 Ry

     total magnetization       =     6.00 Bohr mag/cell
     absolute magnetization    =     6.64 Bohr mag/cell

     iteration #  2     ecut=    70.00 Ry     beta= 0.30
     Davidson diagonalization with overlap
     ethr =  4.80E-03,  avg # of iterations =  2.0

     negative rho (up, down):  1.080E-04 1.184E-02

     total cpu time spent up to now is      289.8 secs

     total energy              =    -858.41738218 Ry
     Harris-Foulkes estimate   =    -858.68916349 Ry
     estimated scf accuracy    <       5.18505715 Ry

     total magnetization       =     4.00 Bohr mag/cell
     absolute magnetization    =     5.61 Bohr mag/cell

     iteration #  3     ecut=    70.00 Ry     beta= 0.30
     Davidson diagonalization with overlap
     ethr =  2.42E-03,  avg # of iterations =  3.0

     negative rho (up, down):  1.975E-04 2.380E-02

     total cpu time spent up to now is      383.6 secs

     total energy              =    -858.66828246 Ry
     Harris-Foulkes estimate   =    -859.59957820 Ry
     estimated scf accuracy    <       9.72315032 Ry

     total magnetization       =     6.00 Bohr mag/cell
     absolute magnetization    =     6.18 Bohr mag/cell

     iteration #  4     ecut=    70.00 Ry     beta= 0.30
     Davidson diagonalization with overlap
     ethr =  2.42E-03,  avg # of iterations =  6.5

     negative rho (up, down):  2.562E-04 3.462E-02

     total cpu time spent up to now is      477.7 secs

     total energy              =    -859.82615402 Ry
     Harris-Foulkes estimate   =    -859.59643362 Ry
     estimated scf accuracy    <       0.91500385 Ry

     total magnetization       =     2.00 Bohr mag/cell
     absolute magnetization    =     3.55 Bohr mag/cell

     iteration #  5     ecut=    70.00 Ry     beta= 0.30
     Davidson diagonalization with overlap
     ethr =  4.28E-04,  avg # of iterations =  6.0

     negative rho (up, down):  3.073E-04 4.024E-02

     total cpu time spent up to now is      576.0 secs

     total energy              =    -859.97515044 Ry
     Harris-Foulkes estimate   =    -859.93825263 Ry
     estimated scf accuracy    <       0.49368126 Ry

     total magnetization       =     2.00 Bohr mag/cell
     absolute magnetization    =     3.03 Bohr mag/cell

     iteration #  6     ecut=    70.00 Ry     beta= 0.30
     Davidson diagonalization with overlap
     ethr =  2.31E-04,  avg # of iterations =  6.0

     negative rho (up, down):  4.312E-04 5.989E-02

     total cpu time spent up to now is      668.8 secs

     total energy              =    -860.02147648 Ry
     Harris-Foulkes estimate   =    -860.00427934 Ry
     estimated scf accuracy    <       0.14469916 Ry

     total magnetization       =     2.00 Bohr mag/cell
     absolute magnetization    =     2.89 Bohr mag/cell

     iteration #  7     ecut=    70.00 Ry     beta= 0.30
     Davidson diagonalization with overlap
     ethr =  6.76E-05,  avg # of iterations =  8.5

     negative rho (up, down):  2.624E-03 9.981E-02

     total cpu time spent up to now is      765.4 secs

     total energy              =    -860.04404193 Ry
     Harris-Foulkes estimate   =    -860.04695527 Ry
     estimated scf accuracy    <       0.14215769 Ry

     total magnetization       =     2.00 Bohr mag/cell
     absolute magnetization    =     2.75 Bohr mag/cell

     iteration #  8     ecut=    70.00 Ry     beta= 0.30
     Davidson diagonalization with overlap
     ethr =  6.64E-05,  avg # of iterations =  2.5

     negative rho (up, down):  2.334E-03 9.062E-02

     total cpu time spent up to now is      857.4 secs

     total energy              =    -860.04682573 Ry
     Harris-Foulkes estimate   =    -860.04848678 Ry
     estimated scf accuracy    <       0.05896131 Ry

     total magnetization       =     1.84 Bohr mag/cell
     absolute magnetization    =     2.70 Bohr mag/cell

     iteration #  9     ecut=    70.00 Ry     beta= 0.30
     Davidson diagonalization with overlap
     ethr =  2.76E-05,  avg # of iterations =  7.0

     negative rho (up, down):  2.286E-03 7.988E-02

     total cpu time spent up to now is      952.7 secs

     total energy              =    -860.04875466 Ry
     Harris-Foulkes estimate   =    -860.05304802 Ry
     estimated scf accuracy    <       0.09740539 Ry

     total magnetization       =     2.00 Bohr mag/cell
     absolute magnetization    =     2.73 Bohr mag/cell

     iteration # 10     ecut=    70.00 Ry     beta= 0.30
     Davidson diagonalization with overlap
     ethr =  2.76E-05,  avg # of iterations =  1.0

     negative rho (up, down):  1.684E-03 6.822E-02

     total cpu time spent up to now is     1043.7 secs

     total energy              =    -860.05435143 Ry
     Harris-Foulkes estimate   =    -860.05206149 Ry
     estimated scf accuracy    <       0.01145644 Ry

     total magnetization       =     1.94 Bohr mag/cell
     absolute magnetization    =     2.71 Bohr mag/cell

     iteration # 11     ecut=    70.00 Ry     beta= 0.30
     Davidson diagonalization with overlap
     ethr =  5.35E-06,  avg # of iterations =  9.0

     negative rho (up, down):  1.380E-03 7.096E-02

     total cpu time spent up to now is     1149.6 secs

     total energy              =    -860.05685098 Ry
     Harris-Foulkes estimate   =    -860.05501305 Ry
     estimated scf accuracy    <       0.01958869 Ry

     total magnetization       =     1.93 Bohr mag/cell
     absolute magnetization    =     2.75 Bohr mag/cell

     iteration # 12     ecut=    70.00 Ry     beta= 0.30
     Davidson diagonalization with overlap
     ethr =  5.35E-06,  avg # of iterations =  2.0

     negative rho (up, down):  1.837E-03 1.260E-01

     total cpu time spent up to now is     1247.2 secs

     total energy              =    -860.05267821 Ry
     Harris-Foulkes estimate   =    -860.05725398 Ry
     estimated scf accuracy    <       0.01845189 Ry

     total magnetization       =     1.99 Bohr mag/cell
     absolute magnetization    =     2.81 Bohr mag/cell

     iteration # 13     ecut=    70.00 Ry     beta= 0.30
     Davidson diagonalization with overlap
     ethr =  5.35E-06,  avg # of iterations =  2.0

     negative rho (up, down):  1.837E-03 1.440E-01

     total cpu time spent up to now is     1351.6 secs

     total energy              =    -860.05157385 Ry
     Harris-Foulkes estimate   =    -860.05402386 Ry
     estimated scf accuracy    <       0.01067601 Ry

     total magnetization       =     1.98 Bohr mag/cell
     absolute magnetization    =     2.75 Bohr mag/cell

     iteration # 14     ecut=    70.00 Ry     beta= 0.30
     Davidson diagonalization with overlap
     ethr =  4.99E-06,  avg # of iterations =  2.0

     negative rho (up, down):  8.915E-04 1.368E-01

     total cpu time spent up to now is     1454.5 secs

     total energy              =    -860.05284997 Ry
     Harris-Foulkes estimate   =    -860.05267443 Ry
     estimated scf accuracy    <       0.00528623 Ry

     total magnetization       =     1.99 Bohr mag/cell
     absolute magnetization    =     2.72 Bohr mag/cell

     iteration # 15     ecut=    70.00 Ry     beta= 0.30
     Davidson diagonalization with overlap
     ethr =  2.47E-06,  avg # of iterations =  8.5

     negative rho (up, down):  9.634E-04 1.097E-01

     total cpu time spent up to now is     1573.0 secs

     total energy              =    -860.05402730 Ry
     Harris-Foulkes estimate   =    -860.05454392 Ry
     estimated scf accuracy    <       0.00296553 Ry

     total magnetization       =     1.80 Bohr mag/cell
     absolute magnetization    =     2.83 Bohr mag/cell

     iteration # 16     ecut=    70.00 Ry     beta= 0.30
     Davidson diagonalization with overlap
     ethr =  1.39E-06,  avg # of iterations =  3.0

     negative rho (up, down):  7.485E-04 9.531E-02

     total cpu time spent up to now is     1672.6 secs

     total energy              =    -860.05480126 Ry
     Harris-Foulkes estimate   =    -860.05442062 Ry
     estimated scf accuracy    <       0.00214655 Ry

     total magnetization       =     1.95 Bohr mag/cell
     absolute magnetization    =     2.80 Bohr mag/cell

     iteration # 17     ecut=    70.00 Ry     beta= 0.30
     Davidson diagonalization with overlap
     ethr =  1.00E-06,  avg # of iterations =  2.0

     negative rho (up, down):  7.421E-04 7.763E-02

     total cpu time spent up to now is     1777.7 secs

     total energy              =    -860.05520923 Ry
     Harris-Foulkes estimate   =    -860.05509183 Ry
     estimated scf accuracy    <       0.00075809 Ry

     total magnetization       =     1.85 Bohr mag/cell
     absolute magnetization    =     2.87 Bohr mag/cell

     iteration # 18     ecut=    70.00 Ry     beta= 0.30
     Davidson diagonalization with overlap
     ethr =  3.54E-07,  avg # of iterations =  1.5

     negative rho (up, down):  7.047E-04 5.816E-02

     total cpu time spent up to now is     1873.3 secs

     total energy              =    -860.05516626 Ry
     Harris-Foulkes estimate   =    -860.05521878 Ry
     estimated scf accuracy    <       0.00084780 Ry

     total magnetization       =     1.88 Bohr mag/cell
     absolute magnetization    =     2.87 Bohr mag/cell

     iteration # 19     ecut=    70.00 Ry     beta= 0.30
     Davidson diagonalization with overlap
     ethr =  3.54E-07,  avg # of iterations =  2.0

     negative rho (up, down):  6.728E-04 5.376E-02

     total cpu time spent up to now is     1976.9 secs

     total energy              =    -860.05529328 Ry
     Harris-Foulkes estimate   =    -860.05524890 Ry
     estimated scf accuracy    <       0.00097023 Ry

     total magnetization       =     1.89 Bohr mag/cell
     absolute magnetization    =     2.87 Bohr mag/cell

     iteration # 20     ecut=    70.00 Ry     beta= 0.30
     Davidson diagonalization with overlap
     ethr =  3.54E-07,  avg # of iterations =  2.0

     negative rho (up, down):  6.658E-04 6.765E-02

     total cpu time spent up to now is     2077.6 secs

     total energy              =    -860.05521040 Ry
     Harris-Foulkes estimate   =    -860.05541763 Ry
     estimated scf accuracy    <       0.00098310 Ry

     total magnetization       =     1.91 Bohr mag/cell
     absolute magnetization    =     2.88 Bohr mag/cell

     iteration # 21     ecut=    70.00 Ry     beta= 0.30
     Davidson diagonalization with overlap
     ethr =  3.54E-07,  avg # of iterations =  2.0

     negative rho (up, down):  6.292E-04 8.970E-02

     total cpu time spent up to now is     2170.9 secs

     total energy              =    -860.05457030 Ry
     Harris-Foulkes estimate   =    -860.05524493 Ry
     estimated scf accuracy    <       0.00075970 Ry

     total magnetization       =     1.92 Bohr mag/cell
     absolute magnetization    =     2.88 Bohr mag/cell

     iteration # 22     ecut=    70.00 Ry     beta= 0.30
     Davidson diagonalization with overlap
     ethr =  3.54E-07,  avg # of iterations =  2.0

     negative rho (up, down):  6.240E-04 8.225E-02

     total cpu time spent up to now is     2273.9 secs

     total energy              =    -860.05464610 Ry
     Harris-Foulkes estimate   =    -860.05480640 Ry
     estimated scf accuracy    <       0.00088815 Ry

     total magnetization       =     1.92 Bohr mag/cell
     absolute magnetization    =     2.87 Bohr mag/cell

     iteration # 23     ecut=    70.00 Ry     beta= 0.30
     Davidson diagonalization with overlap
     ethr =  3.54E-07,  avg # of iterations =  2.0

     negative rho (up, down):  5.814E-04 8.681E-02

     total cpu time spent up to now is     2375.8 secs

     total energy              =    -860.05437086 Ry
     Harris-Foulkes estimate   =    -860.05499339 Ry
     estimated scf accuracy    <       0.00165723 Ry

     total magnetization       =     1.91 Bohr mag/cell
     absolute magnetization    =     2.89 Bohr mag/cell

     iteration # 24     ecut=    70.00 Ry     beta= 0.30
     Davidson diagonalization with overlap
     ethr =  3.54E-07,  avg # of iterations =  2.0

     negative rho (up, down):  5.853E-04 7.254E-02

     total cpu time spent up to now is     2479.1 secs

     total energy              =    -860.05474213 Ry
     Harris-Foulkes estimate   =    -860.05469835 Ry
     estimated scf accuracy    <       0.00040630 Ry

     total magnetization       =     1.91 Bohr mag/cell
     absolute magnetization    =     2.91 Bohr mag/cell

     iteration # 25     ecut=    70.00 Ry     beta= 0.30
     Davidson diagonalization with overlap
     ethr =  1.90E-07,  avg # of iterations =  2.0

     negative rho (up, down):  5.843E-04 5.375E-02

     total cpu time spent up to now is     2579.6 secs

     total energy              =    -860.05486321 Ry
     Harris-Foulkes estimate   =    -860.05482732 Ry
     estimated scf accuracy    <       0.00022024 Ry

     total magnetization       =     1.91 Bohr mag/cell
     absolute magnetization    =     2.92 Bohr mag/cell

     iteration # 26     ecut=    70.00 Ry     beta= 0.30
     Davidson diagonalization with overlap
     ethr =  1.03E-07,  avg # of iterations =  2.0

     negative rho (up, down):  5.815E-04 4.046E-02

     total cpu time spent up to now is     2671.6 secs

     total energy              =    -860.05487953 Ry
     Harris-Foulkes estimate   =    -860.05487059 Ry
     estimated scf accuracy    <       0.00021590 Ry

     total magnetization       =     1.91 Bohr mag/cell
     absolute magnetization    =     2.93 Bohr mag/cell

     iteration # 27     ecut=    70.00 Ry     beta= 0.30
     Davidson diagonalization with overlap
     ethr =  1.01E-07,  avg # of iterations =  2.0

     negative rho (up, down):  5.910E-04 3.497E-02

     total cpu time spent up to now is     2771.2 secs

     total energy              =    -860.05494048 Ry
     Harris-Foulkes estimate   =    -860.05491613 Ry
     estimated scf accuracy    <       0.00020290 Ry

     total magnetization       =     1.92 Bohr mag/cell
     absolute magnetization    =     2.94 Bohr mag/cell

     iteration # 28     ecut=    70.00 Ry     beta= 0.30
     Davidson diagonalization with overlap
     ethr =  9.48E-08,  avg # of iterations =  2.0

     negative rho (up, down):  5.774E-04 4.522E-02

     total cpu time spent up to now is     2865.6 secs

     total energy              =    -860.05486819 Ry
     Harris-Foulkes estimate   =    -860.05495495 Ry
     estimated scf accuracy    <       0.00023493 Ry

     total magnetization       =     1.91 Bohr mag/cell
     absolute magnetization    =     2.93 Bohr mag/cell

     iteration # 29     ecut=    70.00 Ry     beta= 0.30
     Davidson diagonalization with overlap
     ethr =  9.48E-08,  avg # of iterations =  2.5

     negative rho (up, down):  5.719E-04 5.003E-02

     total cpu time spent up to now is     2969.7 secs

     total energy              =    -860.05484258 Ry
     Harris-Foulkes estimate   =    -860.05493192 Ry
     estimated scf accuracy    <       0.00032017 Ry

     total magnetization       =     1.93 Bohr mag/cell
     absolute magnetization    =     2.98 Bohr mag/cell

     iteration # 30     ecut=    70.00 Ry     beta= 0.30
     Davidson diagonalization with overlap
     ethr =  9.48E-08,  avg # of iterations =  2.0

     negative rho (up, down):  5.727E-04 4.358E-02

     total cpu time spent up to now is     3074.7 secs

     total energy              =    -860.05494702 Ry
     Harris-Foulkes estimate   =    -860.05492253 Ry
     estimated scf accuracy    <       0.00026435 Ry

     total magnetization       =     1.92 Bohr mag/cell
     absolute magnetization    =     3.01 Bohr mag/cell

     iteration # 31     ecut=    70.00 Ry     beta= 0.30
     Davidson diagonalization with overlap
     ethr =  9.48E-08,  avg # of iterations =  2.0

     negative rho (up, down):  5.701E-04 4.083E-02

     total cpu time spent up to now is     3175.7 secs

     total energy              =    -860.05488549 Ry
     Harris-Foulkes estimate   =    -860.05495346 Ry
     estimated scf accuracy    <       0.00021012 Ry

     total magnetization       =     1.93 Bohr mag/cell
     absolute magnetization    =     3.02 Bohr mag/cell

     iteration # 32     ecut=    70.00 Ry     beta= 0.30
     Davidson diagonalization with overlap
     ethr =  9.48E-08,  avg # of iterations =  2.0

     negative rho (up, down):  5.708E-04 4.452E-02

     total cpu time spent up to now is     3287.7 secs

     total energy              =    -860.05477878 Ry
     Harris-Foulkes estimate   =    -860.05490240 Ry
     estimated scf accuracy    <       0.00014087 Ry

     total magnetization       =     1.92 Bohr mag/cell
     absolute magnetization    =     3.02 Bohr mag/cell

     iteration # 33     ecut=    70.00 Ry     beta= 0.30
     Davidson diagonalization with overlap
     ethr =  6.58E-08,  avg # of iterations =  2.0

     negative rho (up, down):  5.794E-04 3.527E-02

     total cpu time spent up to now is     3407.2 secs

     total energy              =    -860.05487956 Ry
     Harris-Foulkes estimate   =    -860.05484896 Ry
     estimated scf accuracy    <       0.00012669 Ry

     total magnetization       =     1.93 Bohr mag/cell
     absolute magnetization    =     3.03 Bohr mag/cell

     iteration # 34     ecut=    70.00 Ry     beta= 0.30
     Davidson diagonalization with overlap
     ethr =  5.92E-08,  avg # of iterations =  2.0

     negative rho (up, down):  5.810E-04 3.103E-02

     total cpu time spent up to now is     3518.5 secs

     total energy              =    -860.05490430 Ry
     Harris-Foulkes estimate   =    -860.05489605 Ry
     estimated scf accuracy    <       0.00008893 Ry

     total magnetization       =     1.93 Bohr mag/cell
     absolute magnetization    =     3.03 Bohr mag/cell

     iteration # 35     ecut=    70.00 Ry     beta= 0.30
     Davidson diagonalization with overlap
     ethr =  4.16E-08,  avg # of iterations =  1.0

     negative rho (up, down):  5.832E-04 2.918E-02

     total cpu time spent up to now is     3622.4 secs

     total energy              =    -860.05490564 Ry
     Harris-Foulkes estimate   =    -860.05490474 Ry
     estimated scf accuracy    <       0.00008647 Ry

     total magnetization       =     1.93 Bohr mag/cell
     absolute magnetization    =     3.04 Bohr mag/cell

     iteration # 36     ecut=    70.00 Ry     beta= 0.30
     Davidson diagonalization with overlap
     ethr =  4.04E-08,  avg # of iterations =  2.0

     negative rho (up, down):  5.737E-04 2.924E-02

     total cpu time spent up to now is     3728.4 secs

     total energy              =    -860.05488988 Ry
     Harris-Foulkes estimate   =    -860.05490994 Ry
     estimated scf accuracy    <       0.00007843 Ry

     total magnetization       =     1.93 Bohr mag/cell
     absolute magnetization    =     3.06 Bohr mag/cell

     iteration # 37     ecut=    70.00 Ry     beta= 0.30
     Davidson diagonalization with overlap
     ethr =  3.66E-08,  avg # of iterations =  2.0

     negative rho (up, down):  5.751E-04 2.803E-02

     total cpu time spent up to now is     3844.6 secs

     total energy              =    -860.05490749 Ry
     Harris-Foulkes estimate   =    -860.05490306 Ry
     estimated scf accuracy    <       0.00009603 Ry

     total magnetization       =     1.93 Bohr mag/cell
     absolute magnetization    =     3.04 Bohr mag/cell

     iteration # 38     ecut=    70.00 Ry     beta= 0.30
     Davidson diagonalization with overlap
     ethr =  3.66E-08,  avg # of iterations =  2.0

     negative rho (up, down):  5.754E-04 2.776E-02

     total cpu time spent up to now is     3954.1 secs

     total energy              =    -860.05491363 Ry
     Harris-Foulkes estimate   =    -860.05491255 Ry
     estimated scf accuracy    <       0.00008855 Ry

     total magnetization       =     1.93 Bohr mag/cell
     absolute magnetization    =     3.05 Bohr mag/cell

     iteration # 39     ecut=    70.00 Ry     beta= 0.30
     Davidson diagonalization with overlap
     ethr =  3.66E-08,  avg # of iterations =  1.0

     negative rho (up, down):  5.876E-04 2.308E-02

     total cpu time spent up to now is     4058.3 secs

     total energy              =    -860.05494735 Ry
     Harris-Foulkes estimate   =    -860.05491375 Ry
     estimated scf accuracy    <       0.00008787 Ry

     total magnetization       =     1.93 Bohr mag/cell
     absolute magnetization    =     3.05 Bohr mag/cell

     iteration # 40     ecut=    70.00 Ry     beta= 0.30
     Davidson diagonalization with overlap
     ethr =  3.66E-08,  avg # of iterations =  2.0

     negative rho (up, down):  5.777E-04 3.640E-02

     total cpu time spent up to now is     4172.1 secs

     total energy              =    -860.05481762 Ry
     Harris-Foulkes estimate   =    -860.05495873 Ry
     estimated scf accuracy    <       0.00011311 Ry

     total magnetization       =     1.93 Bohr mag/cell
     absolute magnetization    =     3.07 Bohr mag/cell

     iteration # 41     ecut=    70.00 Ry     beta= 0.30
     Davidson diagonalization with overlap
     ethr =  3.66E-08,  avg # of iterations =  2.0

     negative rho (up, down):  5.745E-04 3.831E-02

     total cpu time spent up to now is     4291.2 secs

     total energy              =    -860.05482498 Ry
     Harris-Foulkes estimate   =    -860.05488081 Ry
     estimated scf accuracy    <       0.00006784 Ry

     total magnetization       =     1.93 Bohr mag/cell
     absolute magnetization    =     3.04 Bohr mag/cell

     iteration # 42     ecut=    70.00 Ry     beta= 0.30
     Davidson diagonalization with overlap
     ethr =  3.17E-08,  avg # of iterations =  2.0

     negative rho (up, down):  5.769E-04 3.010E-02

     total cpu time spent up to now is     4411.4 secs

     total energy              =    -860.05486246 Ry
     Harris-Foulkes estimate   =    -860.05484160 Ry
     estimated scf accuracy    <       0.00004786 Ry

     total magnetization       =     1.93 Bohr mag/cell
     absolute magnetization    =     3.02 Bohr mag/cell

     iteration # 43     ecut=    70.00 Ry     beta= 0.30
     Davidson diagonalization with overlap
     ethr =  2.24E-08,  avg # of iterations =  2.0

     negative rho (up, down):  5.765E-04 2.691E-02

     total cpu time spent up to now is     4528.0 secs

     total energy              =    -860.05486939 Ry
     Harris-Foulkes estimate   =    -860.05486734 Ry
     estimated scf accuracy    <       0.00005177 Ry

     total magnetization       =     1.93 Bohr mag/cell
     absolute magnetization    =     3.02 Bohr mag/cell

     iteration # 44     ecut=    70.00 Ry     beta= 0.30
     Davidson diagonalization with overlap
     ethr =  2.24E-08,  avg # of iterations =  1.0

     negative rho (up, down):  5.772E-04 3.033E-02

     total cpu time spent up to now is     4634.7 secs

     total energy              =    -860.05482850 Ry
     Harris-Foulkes estimate   =    -860.05486941 Ry
     estimated scf accuracy    <       0.00005151 Ry

     total magnetization       =     1.93 Bohr mag/cell
     absolute magnetization    =     3.02 Bohr mag/cell

     iteration # 45     ecut=    70.00 Ry     beta= 0.30
     Davidson diagonalization with overlap
     ethr =  2.24E-08,  avg # of iterations =  2.0

     negative rho (up, down):  5.830E-04 2.618E-02

     total cpu time spent up to now is     4756.1 secs

     total energy              =    -860.05484578 Ry
     Harris-Foulkes estimate   =    -860.05484210 Ry
     estimated scf accuracy    <       0.00004116 Ry

     total magnetization       =     1.93 Bohr mag/cell
     absolute magnetization    =     3.04 Bohr mag/cell

     iteration # 46     ecut=    70.00 Ry     beta= 0.30
     Davidson diagonalization with overlap
     ethr =  1.92E-08,  avg # of iterations =  2.0

     negative rho (up, down):  5.878E-04 2.426E-02

     total cpu time spent up to now is     4874.0 secs

     total energy              =    -860.05485342 Ry
     Harris-Foulkes estimate   =    -860.05485133 Ry
     estimated scf accuracy    <       0.00003387 Ry

     total magnetization       =     1.93 Bohr mag/cell
     absolute magnetization    =     3.06 Bohr mag/cell

     iteration # 47     ecut=    70.00 Ry     beta= 0.30
     Davidson diagonalization with overlap
     ethr =  1.58E-08,  avg # of iterations =  2.0

     negative rho (up, down):  5.904E-04 2.225E-02

     total cpu time spent up to now is     4987.3 secs

     total energy              =    -860.05486069 Ry
     Harris-Foulkes estimate   =    -860.05485609 Ry
     estimated scf accuracy    <       0.00003440 Ry

     total magnetization       =     1.93 Bohr mag/cell
     absolute magnetization    =     3.07 Bohr mag/cell

     iteration # 48     ecut=    70.00 Ry     beta= 0.30
     Davidson diagonalization with overlap
     ethr =  1.58E-08,  avg # of iterations =  1.0

     negative rho (up, down):  5.934E-04 2.066E-02

     total cpu time spent up to now is     5093.2 secs

     total energy              =    -860.05486878 Ry
     Harris-Foulkes estimate   =    -860.05486160 Ry
     estimated scf accuracy    <       0.00003719 Ry

     total magnetization       =     1.93 Bohr mag/cell
     absolute magnetization    =     3.07 Bohr mag/cell

     iteration # 49     ecut=    70.00 Ry     beta= 0.30
     Davidson diagonalization with overlap
     ethr =  1.58E-08,  avg # of iterations =  2.0

     negative rho (up, down):  5.932E-04 1.873E-02

     total cpu time spent up to now is     5203.0 secs

     total energy              =    -860.05487887 Ry
     Harris-Foulkes estimate   =    -860.05486984 Ry
     estimated scf accuracy    <       0.00003610 Ry

     total magnetization       =     1.93 Bohr mag/cell
     absolute magnetization    =     3.08 Bohr mag/cell

     iteration # 50     ecut=    70.00 Ry     beta= 0.30
     Davidson diagonalization with overlap
     ethr =  1.58E-08,  avg # of iterations =  2.0

     negative rho (up, down):  5.911E-04 2.292E-02

     total cpu time spent up to now is     5308.5 secs

     total energy              =    -860.05485286 Ry
     Harris-Foulkes estimate   =    -860.05488170 Ry
     estimated scf accuracy    <       0.00004079 Ry

     total magnetization       =     1.93 Bohr mag/cell
     absolute magnetization    =     3.07 Bohr mag/cell

     iteration # 51     ecut=    70.00 Ry     beta= 0.30
     Davidson diagonalization with overlap
     ethr =  1.58E-08,  avg # of iterations =  2.0

     negative rho (up, down):  5.877E-04 2.542E-02

     total cpu time spent up to now is     5418.6 secs

     total energy              =    -860.05483421 Ry
     Harris-Foulkes estimate   =    -860.05486237 Ry
     estimated scf accuracy    <       0.00004295 Ry

     total magnetization       =     1.93 Bohr mag/cell
     absolute magnetization    =     3.08 Bohr mag/cell

     iteration # 52     ecut=    70.00 Ry     beta= 0.30
     Davidson diagonalization with overlap
     ethr =  1.58E-08,  avg # of iterations =  2.0

     negative rho (up, down):  5.942E-04 2.532E-02

     total cpu time spent up to now is     5527.4 secs

     total energy              =    -860.05483197 Ry
     Harris-Foulkes estimate   =    -860.05484392 Ry
     estimated scf accuracy    <       0.00004143 Ry

     total magnetization       =     1.93 Bohr mag/cell
     absolute magnetization    =     3.07 Bohr mag/cell

     iteration # 53     ecut=    70.00 Ry     beta= 0.30
     Davidson diagonalization with overlap
     ethr =  1.58E-08,  avg # of iterations =  2.0

     negative rho (up, down):  5.943E-04 2.254E-02

     total cpu time spent up to now is     5640.6 secs

     total energy              =    -860.05484525 Ry
     Harris-Foulkes estimate   =    -860.05484387 Ry
     estimated scf accuracy    <       0.00002487 Ry

     total magnetization       =     1.93 Bohr mag/cell
     absolute magnetization    =     3.09 Bohr mag/cell

     iteration # 54     ecut=    70.00 Ry     beta= 0.30
     Davidson diagonalization with overlap
     ethr =  1.16E-08,  avg # of iterations =  1.0

     negative rho (up, down):  5.952E-04 1.935E-02

     total cpu time spent up to now is     5737.7 secs

     total energy              =    -860.05485469 Ry
     Harris-Foulkes estimate   =    -860.05484541 Ry
     estimated scf accuracy    <       0.00002513 Ry

     total magnetization       =     1.94 Bohr mag/cell
     absolute magnetization    =     3.09 Bohr mag/cell

     iteration # 55     ecut=    70.00 Ry     beta= 0.30
     Davidson diagonalization with overlap
     ethr =  1.16E-08,  avg # of iterations =  2.0

     negative rho (up, down):  5.962E-04 1.918E-02

     total cpu time spent up to now is     5837.1 secs

     total energy              =    -860.05485409 Ry
     Harris-Foulkes estimate   =    -860.05485562 Ry
     estimated scf accuracy    <       0.00002832 Ry

     total magnetization       =     1.94 Bohr mag/cell
     absolute magnetization    =     3.09 Bohr mag/cell

     iteration # 56     ecut=    70.00 Ry     beta= 0.30
     Davidson diagonalization with overlap
     ethr =  1.16E-08,  avg # of iterations =  2.0

     negative rho (up, down):  5.985E-04 1.924E-02

     total cpu time spent up to now is     5930.7 secs

     total energy              =    -860.05485429 Ry
     Harris-Foulkes estimate   =    -860.05485453 Ry
     estimated scf accuracy    <       0.00002749 Ry

     total magnetization       =     1.93 Bohr mag/cell
     absolute magnetization    =     3.09 Bohr mag/cell

     iteration # 57     ecut=    70.00 Ry     beta= 0.30
     Davidson diagonalization with overlap
     ethr =  1.16E-08,  avg # of iterations =  2.0

     negative rho (up, down):  5.977E-04 1.927E-02

     total cpu time spent up to now is     6026.3 secs

     total energy              =    -860.05485365 Ry
     Harris-Foulkes estimate   =    -860.05485574 Ry
     estimated scf accuracy    <       0.00002770 Ry

     total magnetization       =     1.93 Bohr mag/cell
     absolute magnetization    =     3.09 Bohr mag/cell

     iteration # 58     ecut=    70.00 Ry     beta= 0.30
     Davidson diagonalization with overlap
     ethr =  1.16E-08,  avg # of iterations =  2.0

     negative rho (up, down):  5.985E-04 2.027E-02

     total cpu time spent up to now is     6118.0 secs

     total energy              =    -860.05484652 Ry
     Harris-Foulkes estimate   =    -860.05485403 Ry
     estimated scf accuracy    <       0.00002629 Ry

     total magnetization       =     1.93 Bohr mag/cell
     absolute magnetization    =     3.09 Bohr mag/cell

     iteration # 59     ecut=    70.00 Ry     beta= 0.30
     Davidson diagonalization with overlap
     ethr =  1.16E-08,  avg # of iterations =  2.0

     negative rho (up, down):  6.001E-04 1.699E-02

     total cpu time spent up to now is     6221.2 secs

     total energy              =    -860.05486501 Ry
     Harris-Foulkes estimate   =    -860.05485113 Ry
     estimated scf accuracy    <       0.00002990 Ry

     total magnetization       =     1.93 Bohr mag/cell
     absolute magnetization    =     3.09 Bohr mag/cell

     iteration # 60     ecut=    70.00 Ry     beta= 0.30
     Davidson diagonalization with overlap
     ethr =  1.16E-08,  avg # of iterations =  2.0

     negative rho (up, down):  5.988E-04 2.048E-02

     total cpu time spent up to now is     6322.3 secs

     total energy              =    -860.05484900 Ry
     Harris-Foulkes estimate   =    -860.05486816 Ry
     estimated scf accuracy    <       0.00003163 Ry

     total magnetization       =     1.93 Bohr mag/cell
     absolute magnetization    =     3.08 Bohr mag/cell

     iteration # 61     ecut=    70.00 Ry     beta= 0.30
     Davidson diagonalization with overlap
     ethr =  1.16E-08,  avg # of iterations =  2.0

     negative rho (up, down):  5.969E-04 2.686E-02

     total cpu time spent up to now is     6426.3 secs

     total energy              =    -860.05480811 Ry
     Harris-Foulkes estimate   =    -860.05485206 Ry
     estimated scf accuracy    <       0.00002347 Ry

     total magnetization       =     1.93 Bohr mag/cell
     absolute magnetization    =     3.09 Bohr mag/cell

     iteration # 62     ecut=    70.00 Ry     beta= 0.30
     Davidson diagonalization with overlap
     ethr =  1.10E-08,  avg # of iterations =  3.0

     negative rho (up, down):  6.003E-04 2.535E-02

     total cpu time spent up to now is     6535.1 secs

     total energy              =    -860.05482677 Ry
     Harris-Foulkes estimate   =    -860.05482597 Ry
     estimated scf accuracy    <       0.00001388 Ry

     total magnetization       =     1.93 Bohr mag/cell
     absolute magnetization    =     3.09 Bohr mag/cell

     iteration # 63     ecut=    70.00 Ry     beta= 0.30
     Davidson diagonalization with overlap
     ethr =  6.49E-09,  avg # of iterations =  3.0

     negative rho (up, down):  6.005E-04 2.041E-02

     total cpu time spent up to now is     6646.5 secs

     total energy              =    -860.05483722 Ry
     Harris-Foulkes estimate   =    -860.05483684 Ry
     estimated scf accuracy    <       0.00000984 Ry

     total magnetization       =     1.93 Bohr mag/cell
     absolute magnetization    =     3.08 Bohr mag/cell

     iteration # 64     ecut=    70.00 Ry     beta= 0.30
     Davidson diagonalization with overlap
     ethr =  4.60E-09,  avg # of iterations =  2.0

     negative rho (up, down):  5.999E-04 1.731E-02

     total cpu time spent up to now is     6742.1 secs

     total energy              =    -860.05483883 Ry
     Harris-Foulkes estimate   =    -860.05483778 Ry
     estimated scf accuracy    <       0.00001131 Ry

     total magnetization       =     1.93 Bohr mag/cell
     absolute magnetization    =     3.08 Bohr mag/cell

     iteration # 65     ecut=    70.00 Ry     beta= 0.30
     Davidson diagonalization with overlap
     ethr =  4.60E-09,  avg # of iterations =  2.0

     negative rho (up, down):  6.005E-04 1.596E-02

     total cpu time spent up to now is     6842.8 secs

     total energy              =    -860.05483779 Ry
     Harris-Foulkes estimate   =    -860.05483987 Ry
     estimated scf accuracy    <       0.00001282 Ry

     total magnetization       =     1.93 Bohr mag/cell
     absolute magnetization    =     3.08 Bohr mag/cell

     iteration # 66     ecut=    70.00 Ry     beta= 0.30
     Davidson diagonalization with overlap
     ethr =  4.60E-09,  avg # of iterations =  2.0

     negative rho (up, down):  6.007E-04 1.482E-02

     total cpu time spent up to now is     6945.8 secs

     total energy              =    -860.05484193 Ry
     Harris-Foulkes estimate   =    -860.05484022 Ry
     estimated scf accuracy    <       0.00001322 Ry

     total magnetization       =     1.93 Bohr mag/cell
     absolute magnetization    =     3.08 Bohr mag/cell

     iteration # 67     ecut=    70.00 Ry     beta= 0.30
     Davidson diagonalization with overlap
     ethr =  4.60E-09,  avg # of iterations =  2.0

     negative rho (up, down):  6.016E-04 1.617E-02

     total cpu time spent up to now is     7042.4 secs

     total energy              =    -860.05483926 Ry
     Harris-Foulkes estimate   =    -860.05484226 Ry
     estimated scf accuracy    <       0.00001466 Ry

     total magnetization       =     1.93 Bohr mag/cell
     absolute magnetization    =     3.08 Bohr mag/cell

     iteration # 68     ecut=    70.00 Ry     beta= 0.30
     Davidson diagonalization with overlap
     ethr =  4.60E-09,  avg # of iterations =  2.0

     negative rho (up, down):  6.009E-04 1.647E-02

     total cpu time spent up to now is     7153.6 secs

     total energy              =    -860.05483069 Ry
     Harris-Foulkes estimate   =    -860.05484495 Ry
     estimated scf accuracy    <       0.00001626 Ry

     total magnetization       =     1.93 Bohr mag/cell
     absolute magnetization    =     3.08 Bohr mag/cell

     iteration # 69     ecut=    70.00 Ry     beta= 0.30
     Davidson diagonalization with overlap
     ethr =  4.60E-09,  avg # of iterations =  2.0

     negative rho (up, down):  6.007E-04 1.563E-02

     total cpu time spent up to now is     7260.6 secs

     total energy              =    -860.05483432 Ry
     Harris-Foulkes estimate   =    -860.05483520 Ry
     estimated scf accuracy    <       0.00001339 Ry

     total magnetization       =     1.93 Bohr mag/cell
     absolute magnetization    =     3.08 Bohr mag/cell

     iteration # 70     ecut=    70.00 Ry     beta= 0.30
     Davidson diagonalization with overlap
     ethr =  4.60E-09,  avg # of iterations =  3.0

     negative rho (up, down):  6.015E-04 1.551E-02

     total cpu time spent up to now is     7366.3 secs

     total energy              =    -860.05483133 Ry
     Harris-Foulkes estimate   =    -860.05483866 Ry
     estimated scf accuracy    <       0.00002687 Ry

     total magnetization       =     1.93 Bohr mag/cell
     absolute magnetization    =     3.08 Bohr mag/cell

     iteration # 71     ecut=    70.00 Ry     beta= 0.30
     Davidson diagonalization with overlap
     ethr =  4.60E-09,  avg # of iterations =  3.0

     negative rho (up, down):  6.024E-04 1.459E-02

     total cpu time spent up to now is     7471.2 secs

     total energy              =    -860.05483721 Ry
     Harris-Foulkes estimate   =    -860.05483515 Ry
     estimated scf accuracy    <       0.00000833 Ry

     total magnetization       =     1.93 Bohr mag/cell
     absolute magnetization    =     3.08 Bohr mag/cell

     iteration # 72     ecut=    70.00 Ry     beta= 0.30
     Davidson diagonalization with overlap
     ethr =  3.89E-09,  avg # of iterations =  2.0

     negative rho (up, down):  6.024E-04 1.383E-02

     total cpu time spent up to now is     7573.8 secs

     total energy              =    -860.05483867 Ry
     Harris-Foulkes estimate   =    -860.05483852 Ry
     estimated scf accuracy    <       0.00000644 Ry

     total magnetization       =     1.93 Bohr mag/cell
     absolute magnetization    =     3.08 Bohr mag/cell

     iteration # 73     ecut=    70.00 Ry     beta= 0.30
     Davidson diagonalization with overlap
     ethr =  3.01E-09,  avg # of iterations =  1.0

     negative rho (up, down):  6.026E-04 1.349E-02

     total cpu time spent up to now is     7667.0 secs

     total energy              =    -860.05483893 Ry
     Harris-Foulkes estimate   =    -860.05483871 Ry
     estimated scf accuracy    <       0.00000658 Ry

     total magnetization       =     1.93 Bohr mag/cell
     absolute magnetization    =     3.08 Bohr mag/cell

     iteration # 74     ecut=    70.00 Ry     beta= 0.30
     Davidson diagonalization with overlap
     ethr =  3.01E-09,  avg # of iterations =  2.0

     negative rho (up, down):  6.027E-04 1.294E-02

     total cpu time spent up to now is     7772.2 secs

     total energy              =    -860.05484078 Ry
     Harris-Foulkes estimate   =    -860.05483951 Ry
     estimated scf accuracy    <       0.00000667 Ry

     total magnetization       =     1.93 Bohr mag/cell
     absolute magnetization    =     3.08 Bohr mag/cell

     iteration # 75     ecut=    70.00 Ry     beta= 0.30
     Davidson diagonalization with overlap
     ethr =  3.01E-09,  avg # of iterations =  2.0

     negative rho (up, down):  6.034E-04 1.296E-02

     total cpu time spent up to now is     7870.7 secs

     total energy              =    -860.05484267 Ry
     Harris-Foulkes estimate   =    -860.05484141 Ry
     estimated scf accuracy    <       0.00000655 Ry

     total magnetization       =     1.93 Bohr mag/cell
     absolute magnetization    =     3.08 Bohr mag/cell

     iteration # 76     ecut=    70.00 Ry     beta= 0.30
     Davidson diagonalization with overlap
     ethr =  3.01E-09,  avg # of iterations =  3.0

     negative rho (up, down):  6.031E-04 1.367E-02

     total cpu time spent up to now is     7975.6 secs

     total energy              =    -860.05484032 Ry
     Harris-Foulkes estimate   =    -860.05484467 Ry
     estimated scf accuracy    <       0.00001707 Ry

     total magnetization       =     1.93 Bohr mag/cell
     absolute magnetization    =     3.08 Bohr mag/cell

     iteration # 77     ecut=    70.00 Ry     beta= 0.30
     Davidson diagonalization with overlap
     ethr =  3.01E-09,  avg # of iterations =  2.5

     negative rho (up, down):  6.029E-04 1.400E-02

     total cpu time spent up to now is     8080.6 secs

     total energy              =    -860.05483837 Ry
     Harris-Foulkes estimate   =    -860.05484225 Ry
     estimated scf accuracy    <       0.00000637 Ry

     total magnetization       =     1.93 Bohr mag/cell
     absolute magnetization    =     3.08 Bohr mag/cell

     iteration # 78     ecut=    70.00 Ry     beta= 0.30
     Davidson diagonalization with overlap
     ethr =  2.98E-09,  avg # of iterations =  2.0

     negative rho (up, down):  6.031E-04 1.452E-02

     total cpu time spent up to now is     8183.8 secs

     total energy              =    -860.05483592 Ry
     Harris-Foulkes estimate   =    -860.05483926 Ry
     estimated scf accuracy    <       0.00000550 Ry

     total magnetization       =     1.93 Bohr mag/cell
     absolute magnetization    =     3.08 Bohr mag/cell

     iteration # 79     ecut=    70.00 Ry     beta= 0.30
     Davidson diagonalization with overlap
     ethr =  2.57E-09,  avg # of iterations =  2.0

     negative rho (up, down):  6.037E-04 1.398E-02

     total cpu time spent up to now is     8288.6 secs

     total energy              =    -860.05483848 Ry
     Harris-Foulkes estimate   =    -860.05483777 Ry
     estimated scf accuracy    <       0.00000595 Ry

     total magnetization       =     1.93 Bohr mag/cell
     absolute magnetization    =     3.08 Bohr mag/cell

     iteration # 80     ecut=    70.00 Ry     beta= 0.30
     Davidson diagonalization with overlap
     ethr =  2.57E-09,  avg # of iterations =  2.0

     negative rho (up, down):  6.045E-04 1.312E-02

     total cpu time spent up to now is     8387.0 secs

     total energy              =    -860.05484055 Ry
     Harris-Foulkes estimate   =    -860.05483886 Ry
     estimated scf accuracy    <       0.00000475 Ry

     total magnetization       =     1.93 Bohr mag/cell
     absolute magnetization    =     3.08 Bohr mag/cell

     iteration # 81     ecut=    70.00 Ry     beta= 0.30
     Davidson diagonalization with overlap
     ethr =  2.22E-09,  avg # of iterations =  3.0

     negative rho (up, down):  6.049E-04 1.246E-02

     total cpu time spent up to now is     8485.3 secs

     total energy              =    -860.05484220 Ry
     Harris-Foulkes estimate   =    -860.05484097 Ry
     estimated scf accuracy    <       0.00000284 Ry

     total magnetization       =     1.93 Bohr mag/cell
     absolute magnetization    =     3.08 Bohr mag/cell

     iteration # 82     ecut=    70.00 Ry     beta= 0.30
     Davidson diagonalization with overlap
     ethr =  1.33E-09,  avg # of iterations =  3.0

     negative rho (up, down):  6.046E-04 1.256E-02

     total cpu time spent up to now is     8594.3 secs

     total energy              =    -860.05484273 Ry
     Harris-Foulkes estimate   =    -860.05484343 Ry
     estimated scf accuracy    <       0.00000446 Ry

     total magnetization       =     1.93 Bohr mag/cell
     absolute magnetization    =     3.08 Bohr mag/cell

     iteration # 83     ecut=    70.00 Ry     beta= 0.30
     Davidson diagonalization with overlap
     ethr =  1.33E-09,  avg # of iterations =  2.0

     negative rho (up, down):  6.048E-04 1.376E-02

     total cpu time spent up to now is     8689.9 secs

     total energy              =    -860.05483625 Ry
     Harris-Foulkes estimate   =    -860.05484290 Ry
     estimated scf accuracy    <       0.00000272 Ry

     total magnetization       =     1.93 Bohr mag/cell
     absolute magnetization    =     3.08 Bohr mag/cell

     iteration # 84     ecut=    70.00 Ry     beta= 0.30
     Davidson diagonalization with overlap
     ethr =  1.27E-09,  avg # of iterations =  3.0

     negative rho (up, down):  6.045E-04 1.304E-02

     total cpu time spent up to now is     8804.6 secs

     total energy              =    -860.05484045 Ry
     Harris-Foulkes estimate   =    -860.05484006 Ry
     estimated scf accuracy    <       0.00000133 Ry

     total magnetization       =     1.93 Bohr mag/cell
     absolute magnetization    =     3.08 Bohr mag/cell

     iteration # 85     ecut=    70.00 Ry     beta= 0.30
     Davidson diagonalization with overlap
     ethr =  6.21E-10,  avg # of iterations =  2.0

     negative rho (up, down):  6.046E-04 1.272E-02

     total cpu time spent up to now is     8901.7 secs

     total energy              =    -860.05484090 Ry
     Harris-Foulkes estimate   =    -860.05484052 Ry
     estimated scf accuracy    <       0.00000208 Ry

     total magnetization       =     1.93 Bohr mag/cell
     absolute magnetization    =     3.08 Bohr mag/cell

     iteration # 86     ecut=    70.00 Ry     beta= 0.30
     Davidson diagonalization with overlap
     ethr =  6.21E-10,  avg # of iterations =  2.0

     negative rho (up, down):  6.048E-04 1.265E-02

     total cpu time spent up to now is     8998.9 secs

     total energy              =    -860.05484061 Ry
     Harris-Foulkes estimate   =    -860.05484096 Ry
     estimated scf accuracy    <       0.00000208 Ry

     total magnetization       =     1.93 Bohr mag/cell
     absolute magnetization    =     3.08 Bohr mag/cell

     iteration # 87     ecut=    70.00 Ry     beta= 0.30
     Davidson diagonalization with overlap
     ethr =  6.21E-10,  avg # of iterations =  2.0

     negative rho (up, down):  6.050E-04 1.258E-02

     total cpu time spent up to now is     9102.8 secs

     total energy              =    -860.05484084 Ry
     Harris-Foulkes estimate   =    -860.05484083 Ry
     estimated scf accuracy    <       0.00000162 Ry

     total magnetization       =     1.93 Bohr mag/cell
     absolute magnetization    =     3.08 Bohr mag/cell

     iteration # 88     ecut=    70.00 Ry     beta= 0.30
     Davidson diagonalization with overlap
     ethr =  6.21E-10,  avg # of iterations =  1.0

     negative rho (up, down):  6.053E-04 1.265E-02

     total cpu time spent up to now is     9196.7 secs

     total energy              =    -860.05484050 Ry
     Harris-Foulkes estimate   =    -860.05484085 Ry
     estimated scf accuracy    <       0.00000142 Ry

     total magnetization       =     1.93 Bohr mag/cell
     absolute magnetization    =     3.08 Bohr mag/cell

     iteration # 89     ecut=    70.00 Ry     beta= 0.30
     Davidson diagonalization with overlap
     ethr =  6.21E-10,  avg # of iterations =  2.0

     negative rho (up, down):  6.056E-04 1.262E-02

     total cpu time spent up to now is     9289.9 secs

     total energy              =    -860.05484037 Ry
     Harris-Foulkes estimate   =    -860.05484054 Ry
     estimated scf accuracy    <       0.00000156 Ry

     total magnetization       =     1.93 Bohr mag/cell
     absolute magnetization    =     3.08 Bohr mag/cell

     iteration # 90     ecut=    70.00 Ry     beta= 0.30
     Davidson diagonalization with overlap
     ethr =  6.21E-10,  avg # of iterations =  2.0

     negative rho (up, down):  6.061E-04 1.248E-02

     total cpu time spent up to now is     9386.0 secs

     total energy              =    -860.05484070 Ry
     Harris-Foulkes estimate   =    -860.05484042 Ry
     estimated scf accuracy    <       0.00000144 Ry

     total magnetization       =     1.93 Bohr mag/cell
     absolute magnetization    =     3.08 Bohr mag/cell

     iteration # 91     ecut=    70.00 Ry     beta= 0.30
     Davidson diagonalization with overlap
     ethr =  6.21E-10,  avg # of iterations =  2.5

     negative rho (up, down):  6.060E-04 1.252E-02

     total cpu time spent up to now is     9488.4 secs

     total energy              =    -860.05484064 Ry
     Harris-Foulkes estimate   =    -860.05484082 Ry
     estimated scf accuracy    <       0.00000130 Ry

     total magnetization       =     1.93 Bohr mag/cell
     absolute magnetization    =     3.08 Bohr mag/cell

     iteration # 92     ecut=    70.00 Ry     beta= 0.30
     Davidson diagonalization with overlap
     ethr =  6.08E-10,  avg # of iterations =  2.0

     negative rho (up, down):  6.052E-04 1.235E-02

     total cpu time spent up to now is     9586.9 secs

     total energy              =    -860.05484138 Ry
     Harris-Foulkes estimate   =    -860.05484073 Ry
     estimated scf accuracy    <       0.00000135 Ry

     total magnetization       =     1.93 Bohr mag/cell
     absolute magnetization    =     3.08 Bohr mag/cell

     iteration # 93     ecut=    70.00 Ry     beta= 0.30
     Davidson diagonalization with overlap
     ethr =  6.08E-10,  avg # of iterations =  2.0

     negative rho (up, down):  6.057E-04 1.249E-02

     total cpu time spent up to now is     9691.2 secs

     total energy              =    -860.05484135 Ry
     Harris-Foulkes estimate   =    -860.05484175 Ry
     estimated scf accuracy    <       0.00000174 Ry

     total magnetization       =     1.93 Bohr mag/cell
     absolute magnetization    =     3.08 Bohr mag/cell

     iteration # 94     ecut=    70.00 Ry     beta= 0.30
     Davidson diagonalization with overlap
     ethr =  6.08E-10,  avg # of iterations =  2.0

     negative rho (up, down):  6.060E-04 1.323E-02

     total cpu time spent up to now is     9793.0 secs

     total energy              =    -860.05483863 Ry
     Harris-Foulkes estimate   =    -860.05484145 Ry
     estimated scf accuracy    <       0.00000247 Ry

     total magnetization       =     1.93 Bohr mag/cell
     absolute magnetization    =     3.08 Bohr mag/cell

     iteration # 95     ecut=    70.00 Ry     beta= 0.30
     Davidson diagonalization with overlap
     ethr =  6.08E-10,  avg # of iterations =  3.0

     negative rho (up, down):  6.056E-04 1.285E-02

     total cpu time spent up to now is     9901.0 secs

     total energy              =    -860.05484015 Ry
     Harris-Foulkes estimate   =    -860.05483984 Ry
     estimated scf accuracy    <       0.00000139 Ry

     total magnetization       =     1.93 Bohr mag/cell
     absolute magnetization    =     3.08 Bohr mag/cell

     iteration # 96     ecut=    70.00 Ry     beta= 0.30
     Davidson diagonalization with overlap
     ethr =  6.08E-10,  avg # of iterations =  2.0

     negative rho (up, down):  6.057E-04 1.267E-02

     total cpu time spent up to now is    10001.9 secs

     total energy              =    -860.05484034 Ry
     Harris-Foulkes estimate   =    -860.05484038 Ry
     estimated scf accuracy    <       0.00000154 Ry

     total magnetization       =     1.93 Bohr mag/cell
     absolute magnetization    =     3.08 Bohr mag/cell

     iteration # 97     ecut=    70.00 Ry     beta= 0.30
     Davidson diagonalization with overlap
     ethr =  6.08E-10,  avg # of iterations =  1.0

     negative rho (up, down):  6.062E-04 1.262E-02

     total cpu time spent up to now is    10095.4 secs

     total energy              =    -860.05483980 Ry
     Harris-Foulkes estimate   =    -860.05484035 Ry
     estimated scf accuracy    <       0.00000149 Ry

     total magnetization       =     1.93 Bohr mag/cell
     absolute magnetization    =     3.08 Bohr mag/cell

     iteration # 98     ecut=    70.00 Ry     beta= 0.30
     Davidson diagonalization with overlap
     ethr =  6.08E-10,  avg # of iterations =  2.0

     negative rho (up, down):  6.059E-04 1.246E-02

     total cpu time spent up to now is    10198.7 secs

     total energy              =    -860.05484029 Ry
     Harris-Foulkes estimate   =    -860.05483996 Ry
     estimated scf accuracy    <       0.00000105 Ry

     total magnetization       =     1.93 Bohr mag/cell
     absolute magnetization    =     3.08 Bohr mag/cell

     iteration # 99     ecut=    70.00 Ry     beta= 0.30
     Davidson diagonalization with overlap
     ethr =  4.91E-10,  avg # of iterations =  2.0

     negative rho (up, down):  6.045E-04 1.219E-02

     Magnetic moment per site:
     atom:    1    charge:    0.2097    magn:    0.0000    constr:    0.0000
     atom:    2    charge:    0.2133    magn:    0.0011    constr:    0.0000
     atom:    3    charge:    1.7171    magn:   -0.0125    constr:    0.0000
     atom:    4    charge:    1.7154    magn:    0.0164    constr:    0.0000
     atom:    5    charge:    1.7176    magn:   -0.0090    constr:    0.0000
     atom:    6    charge:    1.7142    magn:    0.0058    constr:    0.0000
     atom:    7    charge:    1.7176    magn:   -0.0090    constr:    0.0000
     atom:    8    charge:    1.7154    magn:    0.0164    constr:    0.0000
     atom:    9    charge:    1.7171    magn:   -0.0125    constr:    0.0000
     atom:   10    charge:    1.7149    magn:    0.0556    constr:    0.0000
     atom:   11    charge:    1.7173    magn:   -0.0153    constr:    0.0000
     atom:   12    charge:    1.7149    magn:    0.0556    constr:    0.0000
     atom:   13    charge:    1.7172    magn:   -0.0155    constr:    0.0000
     atom:   14    charge:    1.7156    magn:    0.0437    constr:    0.0000
     atom:   15    charge:    1.7138    magn:   -0.0118    constr:    0.0000
     atom:   16    charge:    1.7109    magn:    0.0551    constr:    0.0000
     atom:   17    charge:    1.7229    magn:   -0.0150    constr:    0.0000
     atom:   18    charge:    1.7109    magn:    0.0551    constr:    0.0000
     atom:   19    charge:    1.7138    magn:   -0.0118    constr:    0.0000
     atom:   20    charge:    1.7156    magn:    0.0437    constr:    0.0000
     atom:   21    charge:    1.7172    magn:   -0.0155    constr:    0.0000
     atom:   22    charge:    1.7162    magn:    0.0463    constr:    0.0000
     atom:   23    charge:    1.7166    magn:   -0.0115    constr:    0.0000
     atom:   24    charge:    1.7156    magn:    0.0149    constr:    0.0000
     atom:   25    charge:    1.7137    magn:   -0.0120    constr:    0.0000
     atom:   26    charge:    1.7118    magn:    0.0473    constr:    0.0000
     atom:   27    charge:    1.8524    magn:   -0.0199    constr:    0.0000
     atom:   28    charge:   11.1480    magn:    0.4907    constr:    0.0000
     atom:   29    charge:    1.8525    magn:   -0.0199    constr:    0.0000
     atom:   30    charge:    1.7118    magn:    0.0473    constr:    0.0000
     atom:   31    charge:    1.7137    magn:   -0.0121    constr:    0.0000
     atom:   32    charge:    1.7156    magn:    0.0149    constr:    0.0000
     atom:   33    charge:    1.7175    magn:   -0.0088    constr:    0.0000
     atom:   34    charge:    1.7142    magn:    0.0112    constr:    0.0000
     atom:   35    charge:    1.7175    magn:   -0.0088    constr:    0.0000
     atom:   36    charge:    1.7142    magn:    0.0054    constr:    0.0000
     atom:   37    charge:    1.7222    magn:   -0.0123    constr:    0.0000
     atom:   38    charge:    1.7122    magn:    0.0437    constr:    0.0000
     atom:   39    charge:    1.8519    magn:   -0.0182    constr:    0.0000
     atom:   40    charge:    1.7122    magn:    0.0437    constr:    0.0000
     atom:   41    charge:    1.7222    magn:   -0.0124    constr:    0.0000
     atom:   42    charge:    1.7142    magn:    0.0054    constr:    0.0000
     atom:   43    charge:    1.7176    magn:   -0.0086    constr:    0.0000
     atom:   44    charge:    1.7140    magn:    0.0124    constr:    0.0000
     atom:   45    charge:    1.7232    magn:   -0.0098    constr:    0.0000
     atom:   46    charge:    1.7140    magn:    0.0124    constr:    0.0000
     atom:   47    charge:    1.7176    magn:   -0.0086    constr:    0.0000
     atom:   48    charge:    1.7151    magn:    0.0176    constr:    0.0000
     atom:   49    charge:    1.7133    magn:   -0.0104    constr:    0.0000
     atom:   50    charge:    1.7166    magn:    0.0342    constr:    0.0000
     atom:   51    charge:    1.7133    magn:   -0.0104    constr:    0.0000
     atom:   52    charge:    1.7151    magn:    0.0176    constr:    0.0000

     total cpu time spent up to now is    10296.6 secs

     End of self-consistent calculation

 ------ SPIN UP ------------


          k = 0.0000 0.0000 0.0000 ( 87777 PWs)   bands (ev):

   -88.9069 -55.8011 -55.7265 -54.1509 -19.8581 -19.0344 -19.0124 -18.9310
   -18.9107 -18.9043 -18.5791 -17.1635 -17.1494 -17.1488 -17.0859 -17.0790
   -16.7741 -16.3097 -16.3069 -16.2018 -16.1611 -16.1600 -15.4828 -14.2273
   -14.2066 -14.1277 -14.0740 -14.0707 -13.4188 -13.1462 -13.1398 -13.1147
   -12.8430 -12.8427 -12.4277 -11.9294 -11.9287 -11.7327 -11.4928 -11.4909
   -10.6229  -9.8063  -9.8010  -9.5184  -9.3961  -9.3940  -9.3078  -9.2775
    -9.2768  -9.2645  -8.8102  -8.8101  -8.2856  -8.2822  -8.1797  -8.0116
    -7.9146  -7.5238  -7.5195  -7.3423  -7.2437  -7.2408  -7.0762  -7.0762
    -6.9186  -6.8999  -6.8916  -6.7971  -6.7006  -6.6451  -6.6370  -6.6137
    -6.6044  -6.5981  -6.5558  -6.1883  -5.7540  -5.7409  -5.7322  -5.6993
    -5.4715  -5.4682  -5.3699  -5.0667  -4.9600  -4.8197  -4.7913  -4.7839
    -4.5595  -4.5500  -4.4697  -4.3270  -4.3134  -3.9478  -3.9476  -3.8583
    -3.7622  -3.7608  -3.2033  -2.9213  -2.9067  -1.9484  -1.8801  -1.8770
    -1.4106  -1.3265  -1.2309  -0.9087   0.8464   0.8932   0.8952   1.3986
     1.4127   1.5251   2.2762   2.2817   2.5335   2.6940   2.6965   2.7903
     3.2916   3.3008   3.4422   3.6797   3.6828   3.7403   3.7423   3.7605

     occupation numbers 
     1.0000   1.0000   1.0000   1.0000   1.0000   1.0000   1.0000   1.0000
     1.0000   1.0000   1.0000   1.0000   1.0000   1.0000   1.0000   1.0000
     1.0000   1.0000   1.0000   1.0000   1.0000   1.0000   1.0000   1.0000
     1.0000   1.0000   1.0000   1.0000   1.0000   1.0000   1.0000   1.0000
     1.0000   1.0000   1.0000   1.0000   1.0000   1.0000   1.0000   1.0000
     1.0000   1.0000   1.0000   1.0000   1.0000   1.0000   1.0000   1.0000
     1.0000   1.0000   1.0000   1.0000   1.0000   1.0000   1.0000   1.0000
     1.0000   1.0000   1.0000   1.0000   1.0000   1.0000   1.0000   1.0000
     1.0000   1.0000   1.0000   1.0000   1.0000   1.0000   1.0000   1.0000
     1.0000   1.0000   1.0000   1.0000   1.0000   1.0000   1.0000   1.0000
     1.0000   1.0000   1.0000   1.0000   1.0000   1.0000   1.0000   1.0000
     1.0000   1.0000   1.0000   1.0000   1.0000   1.0000   1.0000   1.0000
     1.0000   1.0000   1.0000   1.0000   1.0000   1.0000   1.0000   1.0000
     1.0000   1.0000   1.0000   0.9663   0.0000   0.0000   0.0000   0.0000
     0.0000   0.0000   0.0000   0.0000   0.0000   0.0000   0.0000   0.0000
     0.0000   0.0000   0.0000   0.0000   0.0000   0.0000   0.0000   0.0000

 ------ SPIN DOWN ----------


          k = 0.0000 0.0000 0.0000 ( 87777 PWs)   bands (ev):

   -88.1249 -55.1410 -55.1196 -53.1700 -19.8219 -18.9900 -18.9721 -18.8974
   -18.8898 -18.8832 -18.5281 -17.1302 -17.1240 -17.1198 -17.0384 -17.0334
   -16.7483 -16.2687 -16.2684 -16.1746 -16.1231 -16.1220 -15.4605 -14.1595
   -14.1482 -14.0750 -14.0653 -14.0609 -13.4297 -13.1220 -13.1182 -13.0875
   -12.8262 -12.8252 -12.3996 -11.8963 -11.8940 -11.7135 -11.4722 -11.4720
   -10.5999  -9.7542  -9.7516  -9.4899  -9.3675  -9.3673  -9.2927  -9.2576
    -9.2568  -9.2497  -8.7983  -8.7983  -8.2480  -8.2442  -8.1578  -7.9278
    -7.8996  -7.5115  -7.5067  -7.3076  -7.0982  -7.0805  -7.0283  -7.0262
    -6.8472  -6.8450  -6.8255  -6.7835  -6.6300  -6.6230  -6.6225  -6.6043
    -6.5932  -6.5871  -6.5402  -6.1388  -5.6917  -5.6873  -5.5029  -5.4855
    -5.4294  -5.4269  -5.2411  -5.0540  -4.9523  -4.7516  -4.7130  -4.7104
    -4.4757  -4.4686  -4.4065  -4.2066  -4.2058  -3.8326  -3.8312  -3.7814
    -3.7488  -3.7472  -3.1629  -2.6993  -2.6924  -1.8566  -1.8536  -1.8118
    -0.9571  -0.9257  -0.8462  -0.8128   0.9333   0.9362   0.9795   1.5466
     1.5469   1.6349   2.4394   2.4494   2.5458   2.8150   2.8164   2.8493
     3.4376   3.4415   3.5257   3.6953   3.6980   3.7453   3.7506   3.7641

     occupation numbers 
     1.0000   1.0000   1.0000   1.0000   1.0000   1.0000   1.0000   1.0000
     1.0000   1.0000   1.0000   1.0000   1.0000   1.0000   1.0000   1.0000
     1.0000   1.0000   1.0000   1.0000   1.0000   1.0000   1.0000   1.0000
     1.0000   1.0000   1.0000   1.0000   1.0000   1.0000   1.0000   1.0000
     1.0000   1.0000   1.0000   1.0000   1.0000   1.0000   1.0000   1.0000
     1.0000   1.0000   1.0000   1.0000   1.0000   1.0000   1.0000   1.0000
     1.0000   1.0000   1.0000   1.0000   1.0000   1.0000   1.0000   1.0000
     1.0000   1.0000   1.0000   1.0000   1.0000   1.0000   1.0000   1.0000
     1.0000   1.0000   1.0000   1.0000   1.0000   1.0000   1.0000   1.0000
     1.0000   1.0000   1.0000   1.0000   1.0000   1.0000   1.0000   1.0000
     1.0000   1.0000   1.0000   1.0000   1.0000   1.0000   1.0000   1.0000
     1.0000   1.0000   1.0000   1.0000   1.0000   1.0000   1.0000   1.0000
     1.0000   1.0000   1.0000   1.0000   1.0000   1.0000   1.0000   1.0000
     1.0000   1.0337   0.0000   0.0000   0.0000   0.0000   0.0000   0.0000
     0.0000   0.0000   0.0000   0.0000   0.0000   0.0000   0.0000   0.0000
     0.0000   0.0000   0.0000   0.0000   0.0000   0.0000   0.0000   0.0000

     the Fermi energy is    -0.8972 ev

!    total energy              =    -860.05484142 Ry
     Harris-Foulkes estimate   =    -860.05484036 Ry
     estimated scf accuracy    <       0.00000096 Ry

     The total energy is the sum of the following terms:

     one-electron contribution =   -2798.99964982 Ry
     hartree contribution      =    1443.34150560 Ry
     xc contribution           =    -259.33854491 Ry
     ewald contribution        =     754.94171420 Ry
     smearing contrib. (-TS)   =       0.00013351 Ry

     total magnetization       =     1.93 Bohr mag/cell
     absolute magnetization    =     3.08 Bohr mag/cell

     convergence has been achieved in  99 iterations

     Writing output data file distance-2.6.save/

     init_run     :     69.84s CPU     71.11s WALL (       1 calls)
     electrons    :  10026.09s CPU  10224.50s WALL (       1 calls)

     Called by init_run:
     wfcinit      :     41.58s CPU     41.89s WALL (       1 calls)
     wfcinit:atom :      0.04s CPU      0.08s WALL (       2 calls)
     wfcinit:wfcr :     41.13s CPU     41.31s WALL (       2 calls)
     potinit      :     11.80s CPU     12.21s WALL (       1 calls)
     hinit0       :      8.01s CPU      8.06s WALL (       1 calls)

     Called by electrons:
     c_bands      :   6348.55s CPU   6387.01s WALL (      99 calls)
     sum_band     :   2151.63s CPU   2212.02s WALL (      99 calls)
     v_of_rho     :    738.16s CPU    780.60s WALL (     100 calls)
     v_h          :      7.82s CPU      8.06s WALL (     100 calls)
     v_xc         :    730.34s CPU    772.54s WALL (     100 calls)
     newd         :    738.81s CPU    795.31s WALL (     100 calls)
     mix_rho      :     39.40s CPU     40.21s WALL (      99 calls)

     Called by c_bands:
     init_us_2    :     19.14s CPU     19.22s WALL (     398 calls)
     cegterg      :   6295.01s CPU   6333.17s WALL (     198 calls)

     Called by sum_band:
     sum_band:bec :      0.17s CPU      0.17s WALL (     198 calls)
     addusdens    :   1321.00s CPU   1376.06s WALL (      99 calls)

     Called by *egterg:
     h_psi        :   3346.26s CPU   3373.33s WALL (     679 calls)
     s_psi        :   1113.76s CPU   1114.33s WALL (     679 calls)
     g_psi        :      3.50s CPU      3.52s WALL (     479 calls)
     cdiaghg      :     43.80s CPU     43.83s WALL (     677 calls)
     cegterg:over :    722.70s CPU    723.12s WALL (     479 calls)
     cegterg:upda :    434.53s CPU    437.45s WALL (     479 calls)
     cegterg:last :    332.78s CPU    332.90s WALL (     198 calls)

     Called by h_psi:
     h_psi:pot    :   3342.69s CPU   3365.31s WALL (     679 calls)
     h_psi:calbec :   1104.11s CPU   1104.60s WALL (     679 calls)
     vloc_psi     :   1124.27s CPU   1145.96s WALL (     679 calls)
     add_vuspsi   :   1114.30s CPU   1114.74s WALL (     679 calls)

     General routines
     calbec       :   1600.18s CPU   1600.92s WALL (     877 calls)
     fft          :    432.15s CPU    448.66s WALL (    7494 calls)
     ffts         :      7.87s CPU      8.19s WALL (     398 calls)
     fftw         :   1208.21s CPU   1231.87s WALL (  138642 calls)
     interpolate  :     17.68s CPU     18.24s WALL (     200 calls)

     Parallel routines
     fft_scatt_xy :    299.12s CPU    303.36s WALL (  146534 calls)
     fft_scatt_yz :    554.06s CPU    581.54s WALL (  146534 calls)

     PWSCF        :      2h48m CPU      2h51m WALL


   This run was terminated on:  11: 5: 4   7Nov2022            

=------------------------------------------------------------------------------=
   JOB DONE.
=------------------------------------------------------------------------------=
