
     Program PWSCF v.6.4.1 starts on  6Nov2022 at 16:47:21 

     This program is part of the open-source Quantum ESPRESSO suite
     for quantum simulation of materials; please cite
         "P. Giannozzi et al., J. Phys.:Condens. Matter 21 395502 (2009);
         "P. Giannozzi et al., J. Phys.:Condens. Matter 29 465901 (2017);
          URL http://www.quantum-espresso.org", 
     in publications or presentations arising from this work. More details at
     http://www.quantum-espresso.org/quote

     Parallel version (MPI), running on     6 processors

     MPI processes distributed on     1 nodes
     R & G space division:  proc/nbgrp/npool/nimage =       6
     Reading input from distance-4.0.in

     Current dimensions of program PWSCF are:
     Max number of different atomic species (ntypx) = 10
     Max number of k-points (npk) =  40000
     Max angular momentum in pseudopotentials (lmaxx) =  3

     IMPORTANT: XC functional enforced from input :
     Exchange-correlation      = RVV10 ( 1  4 13  4 3 0)
     Any further DFT definition will be discarded
     Please, verify this is what you really want

               file H.pbe-rrkjus.UPF: wavefunction(s)  1S renormalized

     Subspace diagonalization in iterative solution of the eigenvalue problem:
     a serial algorithm will be used


     Parallelization info
     --------------------
     sticks:   dense  smooth     PW     G-vecs:    dense   smooth      PW
     Min        3051    1746    432               270999   117096   14629
     Max        3053    1747    437               271001   117099   14630
     Sum       18313   10477   2611              1626001   702581   87777



     bravais-lattice index     =            4
     lattice parameter (alat)  =      23.2937  a.u.
     unit-cell volume          =    8879.8548 (a.u.)^3
     number of atoms/cell      =           52
     number of atomic types    =            3
     number of electrons       =       214.00
     number of Kohn-Sham states=          128
     kinetic-energy cutoff     =      70.0000  Ry
     charge density cutoff     =     490.0000  Ry
     convergence threshold     =      1.0E-06
     mixing beta               =       0.3000
     number of iterations used =            4  plain     mixing
     Exchange-correlation      = RVV10 ( 1  4 13  4 3 0)

     celldm(1)=  23.293684  celldm(2)=   0.000000  celldm(3)=   0.811261
     celldm(4)=   0.000000  celldm(5)=   0.000000  celldm(6)=   0.000000

     crystal axes: (cart. coord. in units of alat)
               a(1) = (   1.000000   0.000000   0.000000 )  
               a(2) = (  -0.500000   0.866025   0.000000 )  
               a(3) = (   0.000000   0.000000   0.811261 )  

     reciprocal axes: (cart. coord. in units 2 pi/alat)
               b(1) = (  1.000000  0.577350 -0.000000 )  
               b(2) = (  0.000000  1.154701  0.000000 )  
               b(3) = (  0.000000 -0.000000  1.232649 )  


     PseudoPot. # 1 for H  read from file:
     /home/cristian/Escritorio/Proyecto_Grafeno/pseudopotenciales/H.pbe-rrkjus.UPF
     MD5 check sum: 7cc9d459525c9a0585f487a71c3c9563
     Pseudo is Ultrasoft, Zval =  1.0
     Generated by new atomic code, or converted to UPF format
     Using radial grid of 1061 points,  2 beta functions with: 
                l(1) =   0
                l(2) =   0
     Q(r) pseudized with 0 coefficients 


     PseudoPot. # 2 for C  read from file:
     /home/cristian/Escritorio/Proyecto_Grafeno/pseudopotenciales/C.pbe-n-rrkjus_psl.1.0.0.UPF
     MD5 check sum: 1fdd950c42eb37d8afe3dd2f8d12311e
     Pseudo is Ultrasoft + core correction, Zval =  4.0
     Generated using "atomic" code by A. Dal Corso v.6.3MaX
     Using radial grid of 1073 points,  4 beta functions with: 
                l(1) =   0
                l(2) =   0
                l(3) =   1
                l(4) =   1
     Q(r) pseudized with 0 coefficients 


     PseudoPot. # 3 for Fe read from file:
     /home/cristian/Escritorio/Proyecto_Grafeno/pseudopotenciales/Fe.pbe-spn-rrkjus_psl.1.0.0.UPF
     MD5 check sum: 72ea77fed8e64ab3a2ccf2804dfc1862
     Pseudo is Ultrasoft + core correction, Zval = 16.0
     Generated using "atomic" code by A. Dal Corso v.6.3
     Using radial grid of 1191 points,  6 beta functions with: 
                l(1) =   0
                l(2) =   0
                l(3) =   1
                l(4) =   1
                l(5) =   2
                l(6) =   2
     Q(r) pseudized with 0 coefficients 


     vdW kernel table read from file rVV10_kernel_table
     MD5 check sum: b8e2538accc0c0b3206b45ba4daaba6c

     atomic species   valence    mass     pseudopotential
        H              1.00     1.00794     H ( 1.00)
        C              4.00    12.01070     C ( 1.00)
        Fe            16.00    55.84500     Fe( 1.00)

     Starting magnetic structure 
     atomic species   magnetization
        H            0.500
        C            0.300
        Fe           0.800

     No symmetry found


                                    s                        frac. trans.

      isym =  1     identity                                     

 cryst.   s( 1) = (     1          0          0      )
                  (     0          1          0      )
                  (     0          0          1      )

 cart.    s( 1) = (  1.0000000  0.0000000  0.0000000 )
                  (  0.0000000  1.0000000  0.0000000 )
                  (  0.0000000  0.0000000  1.0000000 )


     point group C_1 (1)    
     there are  1 classes
     the character table:

       E    
A      1.00

     the symmetry operations in each class and the name of the first element:

     E        1
          identity                                               

   Cartesian axes

     site n.     atom                  positions (alat units)
         1           H   tau(   1) = (   0.2500000   0.4907477   0.3245045  )
         2           H   tau(   2) = (   0.2500000   0.4907477   0.3855171  )
         3           C   tau(   3) = (   0.0000000   0.0000000   0.0000000  )
         4           C   tau(   4) = (   0.0000000   0.1154701   0.0000000  )
         5           C   tau(   5) = (  -0.1000000   0.1732051   0.0000000  )
         6           C   tau(   6) = (  -0.1000000   0.2886751   0.0000000  )
         7           C   tau(   7) = (  -0.2000000   0.3464102   0.0000000  )
         8           C   tau(   8) = (  -0.2000000   0.4618802   0.0000000  )
         9           C   tau(   9) = (  -0.3000000   0.5196152   0.0000000  )
        10           C   tau(  10) = (  -0.3000000   0.6350853   0.0000000  )
        11           C   tau(  11) = (  -0.4000000   0.6928203   0.0000000  )
        12           C   tau(  12) = (  -0.4000000   0.8082904   0.0000000  )
        13           C   tau(  13) = (   0.2000000   0.0000000   0.0000000  )
        14           C   tau(  14) = (   0.2000000   0.1154701   0.0000000  )
        15           C   tau(  15) = (   0.1000000   0.1732051   0.0000000  )
        16           C   tau(  16) = (   0.1000000   0.2886751   0.0000000  )
        17           C   tau(  17) = (   0.0000000   0.3464102   0.0000000  )
        18           C   tau(  18) = (   0.0000000   0.4618802   0.0000000  )
        19           C   tau(  19) = (  -0.1000000   0.5196152   0.0000000  )
        20           C   tau(  20) = (  -0.1000000   0.6350853   0.0000000  )
        21           C   tau(  21) = (  -0.2000000   0.6928203   0.0000000  )
        22           C   tau(  22) = (  -0.2000000   0.8082904   0.0000000  )
        23           C   tau(  23) = (   0.4000000   0.0000000   0.0000000  )
        24           C   tau(  24) = (   0.4000000   0.1154701   0.0000000  )
        25           C   tau(  25) = (   0.3000000   0.1732051   0.0000000  )
        26           C   tau(  26) = (   0.3000000   0.2886751   0.0000000  )
        27           C   tau(  27) = (   0.2000000   0.3464102   0.0000000  )
        28           Fe  tau(  28) = (   0.2000000   0.4618802   0.0000000  )
        29           C   tau(  29) = (   0.1000000   0.5196152   0.0000000  )
        30           C   tau(  30) = (   0.1000000   0.6350853   0.0000000  )
        31           C   tau(  31) = (   0.0000000   0.6928203   0.0000000  )
        32           C   tau(  32) = (   0.0000000   0.8082904   0.0000000  )
        33           C   tau(  33) = (   0.6000000   0.0000000   0.0000000  )
        34           C   tau(  34) = (   0.6000000   0.1154701   0.0000000  )
        35           C   tau(  35) = (   0.5000000   0.1732051   0.0000000  )
        36           C   tau(  36) = (   0.5000000   0.2886751   0.0000000  )
        37           C   tau(  37) = (   0.4000000   0.3464102   0.0000000  )
        38           C   tau(  38) = (   0.4000000   0.4618802   0.0000000  )
        39           C   tau(  39) = (   0.3000000   0.5196152   0.0000000  )
        40           C   tau(  40) = (   0.3000000   0.6350853   0.0000000  )
        41           C   tau(  41) = (   0.2000000   0.6928203   0.0000000  )
        42           C   tau(  42) = (   0.2000000   0.8082904   0.0000000  )
        43           C   tau(  43) = (   0.8000000   0.0000000   0.0000000  )
        44           C   tau(  44) = (   0.8000000   0.1154701   0.0000000  )
        45           C   tau(  45) = (   0.7000000   0.1732051   0.0000000  )
        46           C   tau(  46) = (   0.7000000   0.2886751   0.0000000  )
        47           C   tau(  47) = (   0.6000000   0.3464102   0.0000000  )
        48           C   tau(  48) = (   0.6000000   0.4618802   0.0000000  )
        49           C   tau(  49) = (   0.5000000   0.5196152   0.0000000  )
        50           C   tau(  50) = (   0.5000000   0.6350853   0.0000000  )
        51           C   tau(  51) = (   0.4000000   0.6928203   0.0000000  )
        52           C   tau(  52) = (   0.4000000   0.8082904   0.0000000  )

   Crystallographic axes

     site n.     atom                  positions (cryst. coord.)
         1           H   tau(   1) = (  0.5333333  0.5666667  0.4000000  )
         2           H   tau(   2) = (  0.5333333  0.5666667  0.4752072  )
         3           C   tau(   3) = (  0.0000000  0.0000000  0.0000000  )
         4           C   tau(   4) = (  0.0666667  0.1333333  0.0000000  )
         5           C   tau(   5) = (  0.0000000  0.2000000  0.0000000  )
         6           C   tau(   6) = (  0.0666667  0.3333333  0.0000000  )
         7           C   tau(   7) = (  0.0000000  0.4000000  0.0000000  )
         8           C   tau(   8) = (  0.0666667  0.5333333  0.0000000  )
         9           C   tau(   9) = (  0.0000000  0.6000000  0.0000000  )
        10           C   tau(  10) = (  0.0666667  0.7333333  0.0000000  )
        11           C   tau(  11) = (  0.0000000  0.8000000  0.0000000  )
        12           C   tau(  12) = (  0.0666667  0.9333333  0.0000000  )
        13           C   tau(  13) = (  0.2000000  0.0000000  0.0000000  )
        14           C   tau(  14) = (  0.2666667  0.1333333  0.0000000  )
        15           C   tau(  15) = (  0.2000000  0.2000000  0.0000000  )
        16           C   tau(  16) = (  0.2666667  0.3333333  0.0000000  )
        17           C   tau(  17) = (  0.2000000  0.4000000  0.0000000  )
        18           C   tau(  18) = (  0.2666667  0.5333333  0.0000000  )
        19           C   tau(  19) = (  0.2000000  0.6000000  0.0000000  )
        20           C   tau(  20) = (  0.2666667  0.7333333  0.0000000  )
        21           C   tau(  21) = (  0.2000000  0.8000000  0.0000000  )
        22           C   tau(  22) = (  0.2666667  0.9333333  0.0000000  )
        23           C   tau(  23) = (  0.4000000  0.0000000  0.0000000  )
        24           C   tau(  24) = (  0.4666667  0.1333333  0.0000000  )
        25           C   tau(  25) = (  0.4000000  0.2000000  0.0000000  )
        26           C   tau(  26) = (  0.4666667  0.3333333  0.0000000  )
        27           C   tau(  27) = (  0.4000000  0.4000000  0.0000000  )
        28           Fe  tau(  28) = (  0.4666667  0.5333333  0.0000000  )
        29           C   tau(  29) = (  0.4000000  0.6000000  0.0000000  )
        30           C   tau(  30) = (  0.4666667  0.7333333  0.0000000  )
        31           C   tau(  31) = (  0.4000000  0.8000000  0.0000000  )
        32           C   tau(  32) = (  0.4666667  0.9333333  0.0000000  )
        33           C   tau(  33) = (  0.6000000  0.0000000  0.0000000  )
        34           C   tau(  34) = (  0.6666667  0.1333333  0.0000000  )
        35           C   tau(  35) = (  0.6000000  0.2000000  0.0000000  )
        36           C   tau(  36) = (  0.6666667  0.3333333  0.0000000  )
        37           C   tau(  37) = (  0.6000000  0.4000000  0.0000000  )
        38           C   tau(  38) = (  0.6666667  0.5333333  0.0000000  )
        39           C   tau(  39) = (  0.6000000  0.6000000  0.0000000  )
        40           C   tau(  40) = (  0.6666667  0.7333333  0.0000000  )
        41           C   tau(  41) = (  0.6000000  0.8000000  0.0000000  )
        42           C   tau(  42) = (  0.6666667  0.9333333  0.0000000  )
        43           C   tau(  43) = (  0.8000000  0.0000000  0.0000000  )
        44           C   tau(  44) = (  0.8666667  0.1333333  0.0000000  )
        45           C   tau(  45) = (  0.8000000  0.2000000  0.0000000  )
        46           C   tau(  46) = (  0.8666667  0.3333333  0.0000000  )
        47           C   tau(  47) = (  0.8000000  0.4000000  0.0000000  )
        48           C   tau(  48) = (  0.8666667  0.5333333  0.0000000  )
        49           C   tau(  49) = (  0.8000000  0.6000000  0.0000000  )
        50           C   tau(  50) = (  0.8666667  0.7333333  0.0000000  )
        51           C   tau(  51) = (  0.8000000  0.8000000  0.0000000  )
        52           C   tau(  52) = (  0.8666667  0.9333333  0.0000000  )

     number of k points=     1  Marzari-Vanderbilt smearing, width (Ry)=  0.0010
                       cart. coord. in units 2pi/alat
        k(    1) = (   0.0000000   0.0000000   0.0000000), wk =   1.0000000

                       cryst. coord.
        k(    1) = (   0.0000000   0.0000000   0.0000000), wk =   1.0000000

     Dense  grid:  1626001 G-vectors     FFT dimensions: ( 180, 180, 135)

     Smooth grid:   702581 G-vectors     FFT dimensions: ( 125, 125, 108)

     Dynamical RAM for                 wfc:      28.59 MB

     Dynamical RAM for     wfc (w. buffer):      85.76 MB

     Dynamical RAM for           str. fact:      12.41 MB

     Dynamical RAM for           local pot:       0.00 MB

     Dynamical RAM for          nlocal pot:      92.46 MB

     Dynamical RAM for                qrad:      19.73 MB

     Dynamical RAM for          rho,v,vnew:      58.92 MB

     Dynamical RAM for               rhoin:      19.64 MB

     Dynamical RAM for            rho*nmix:      66.16 MB

     Dynamical RAM for           G-vectors:      16.40 MB

     Dynamical RAM for          h,s,v(r/c):      12.00 MB

     Dynamical RAM for          <psi|beta>:       0.81 MB

     Dynamical RAM for                 psi:     114.35 MB

     Dynamical RAM for                hpsi:     114.35 MB

     Dynamical RAM for                spsi:     114.35 MB

     Dynamical RAM for      wfcinit/wfcrot:      93.90 MB

     Dynamical RAM for           addusdens:     975.89 MB

     Estimated static dynamical RAM per process >     422.14 MB

     Estimated max dynamical RAM per process >       1.37 GB

     Estimated total dynamical RAM >       8.19 GB
     Generating pointlists ...
     new r_m :   0.0252 (alat units)  0.5862 (a.u.) for type    1
     new r_m :   0.0476 (alat units)  1.1095 (a.u.) for type    2
     new r_m :   0.0476 (alat units)  1.1095 (a.u.) for type    3

     Check: negative core charge=   -0.000002

     Initial potential from superposition of free atoms

     starting charge  213.80512, renormalised to  214.00000

     negative rho (up, down):  6.316E-05 9.227E-03


---------------------------------------------------------------------------------
Carrying out rVV10 run using the following parameters:
Nqs =      20    Nr_points =    1024   r_max =   100.000
b_value =  6.30000    beta =  0.00901
     q_mesh =  0.00010000  0.00030000  0.00058939  0.00100810
               0.00161396  0.00249058  0.00375900  0.00559430
               0.00824984  0.01209221  0.01765183  0.02569619
               0.03733578  0.05417739  0.07854596  0.11380545
               0.16482331  0.23864234  0.34545298  0.50000000

Gradients computed in Reciprocal space

---------------------------------------------------------------------------------


     Starting wfcs are  208 randomized atomic wfcs

     total cpu time spent up to now is       77.4 secs

     Self-consistent Calculation

     iteration #  1     ecut=    70.00 Ry     beta= 0.30
     Davidson diagonalization with overlap
     ethr =  1.00E-02,  avg # of iterations =  2.5

     negative rho (up, down):  7.467E-05 9.312E-03

     total cpu time spent up to now is      200.5 secs

     total energy              =    -858.10905490 Ry
     Harris-Foulkes estimate   =    -858.63145889 Ry
     estimated scf accuracy    <      10.05982393 Ry

     total magnetization       =     6.00 Bohr mag/cell
     absolute magnetization    =     6.66 Bohr mag/cell

     iteration #  2     ecut=    70.00 Ry     beta= 0.30
     Davidson diagonalization with overlap
     ethr =  4.70E-03,  avg # of iterations =  2.0

     negative rho (up, down):  1.015E-04 1.081E-02

     total cpu time spent up to now is      289.4 secs

     total energy              =    -858.50141088 Ry
     Harris-Foulkes estimate   =    -858.65048546 Ry
     estimated scf accuracy    <       4.89697115 Ry

     total magnetization       =     4.00 Bohr mag/cell
     absolute magnetization    =     5.61 Bohr mag/cell

     iteration #  3     ecut=    70.00 Ry     beta= 0.30
     Davidson diagonalization with overlap
     ethr =  2.29E-03,  avg # of iterations =  3.5

     negative rho (up, down):  1.814E-04 2.267E-02

     total cpu time spent up to now is      383.0 secs

     total energy              =    -858.71970124 Ry
     Harris-Foulkes estimate   =    -859.79358038 Ry
     estimated scf accuracy    <      10.87702656 Ry

     total magnetization       =     6.00 Bohr mag/cell
     absolute magnetization    =     6.17 Bohr mag/cell

     iteration #  4     ecut=    70.00 Ry     beta= 0.30
     Davidson diagonalization with overlap
     ethr =  2.29E-03,  avg # of iterations =  3.0

     negative rho (up, down):  2.293E-04 3.053E-02

     total cpu time spent up to now is      473.3 secs

     total energy              =    -859.84557424 Ry
     Harris-Foulkes estimate   =    -859.59418950 Ry
     estimated scf accuracy    <       0.73688554 Ry

     total magnetization       =     2.00 Bohr mag/cell
     absolute magnetization    =     3.44 Bohr mag/cell

     iteration #  5     ecut=    70.00 Ry     beta= 0.30
     Davidson diagonalization with overlap
     ethr =  3.44E-04,  avg # of iterations = 11.5

     negative rho (up, down):  2.707E-04 3.542E-02

     total cpu time spent up to now is      575.3 secs

     total energy              =    -859.97021794 Ry
     Harris-Foulkes estimate   =    -859.95133668 Ry
     estimated scf accuracy    <       0.57368885 Ry

     total magnetization       =     2.00 Bohr mag/cell
     absolute magnetization    =     3.01 Bohr mag/cell

     iteration #  6     ecut=    70.00 Ry     beta= 0.30
     Davidson diagonalization with overlap
     ethr =  2.68E-04,  avg # of iterations =  1.5

     negative rho (up, down):  5.213E-04 6.424E-02

     total cpu time spent up to now is      664.0 secs

     total energy              =    -860.02162802 Ry
     Harris-Foulkes estimate   =    -860.00234683 Ry
     estimated scf accuracy    <       0.14877317 Ry

     total magnetization       =     2.00 Bohr mag/cell
     absolute magnetization    =     2.89 Bohr mag/cell

     iteration #  7     ecut=    70.00 Ry     beta= 0.30
     Davidson diagonalization with overlap
     ethr =  6.95E-05,  avg # of iterations =  6.0

     negative rho (up, down):  3.023E-03 9.819E-02

     total cpu time spent up to now is      757.2 secs

     total energy              =    -860.04330560 Ry
     Harris-Foulkes estimate   =    -860.04782107 Ry
     estimated scf accuracy    <       0.13168482 Ry

     total magnetization       =     2.00 Bohr mag/cell
     absolute magnetization    =     2.75 Bohr mag/cell

     iteration #  8     ecut=    70.00 Ry     beta= 0.30
     Davidson diagonalization with overlap
     ethr =  6.15E-05,  avg # of iterations =  2.5

     negative rho (up, down):  2.374E-03 8.701E-02

     total cpu time spent up to now is      846.7 secs

     total energy              =    -860.04652547 Ry
     Harris-Foulkes estimate   =    -860.04736170 Ry
     estimated scf accuracy    <       0.05208900 Ry

     total magnetization       =     1.97 Bohr mag/cell
     absolute magnetization    =     2.74 Bohr mag/cell

     iteration #  9     ecut=    70.00 Ry     beta= 0.30
     Davidson diagonalization with overlap
     ethr =  2.43E-05,  avg # of iterations =  9.5

     negative rho (up, down):  2.182E-03 7.811E-02

     total cpu time spent up to now is      943.0 secs

     total energy              =    -860.04464179 Ry
     Harris-Foulkes estimate   =    -860.05004615 Ry
     estimated scf accuracy    <       0.10757968 Ry

     total magnetization       =     2.00 Bohr mag/cell
     absolute magnetization    =     2.74 Bohr mag/cell

     iteration # 10     ecut=    70.00 Ry     beta= 0.30
     Davidson diagonalization with overlap
     ethr =  2.43E-05,  avg # of iterations =  1.0

     negative rho (up, down):  2.130E-03 7.571E-02

     total cpu time spent up to now is     1031.5 secs

     total energy              =    -860.05041166 Ry
     Harris-Foulkes estimate   =    -860.05148417 Ry
     estimated scf accuracy    <       0.05834203 Ry

     total magnetization       =     1.21 Bohr mag/cell
     absolute magnetization    =     2.60 Bohr mag/cell

     iteration # 11     ecut=    70.00 Ry     beta= 0.30
     Davidson diagonalization with overlap
     ethr =  2.43E-05,  avg # of iterations =  1.0

     negative rho (up, down):  1.274E-03 6.111E-02

     total cpu time spent up to now is     1119.8 secs

     total energy              =    -860.05296473 Ry
     Harris-Foulkes estimate   =    -860.05149549 Ry
     estimated scf accuracy    <       0.03114413 Ry

     total magnetization       =     2.00 Bohr mag/cell
     absolute magnetization    =     2.75 Bohr mag/cell

     iteration # 12     ecut=    70.00 Ry     beta= 0.30
     Davidson diagonalization with overlap
     ethr =  1.46E-05,  avg # of iterations =  1.5

     negative rho (up, down):  1.137E-03 5.994E-02

     total cpu time spent up to now is     1208.3 secs

     total energy              =    -860.05385408 Ry
     Harris-Foulkes estimate   =    -860.05344318 Ry
     estimated scf accuracy    <       0.02177204 Ry

     total magnetization       =     2.00 Bohr mag/cell
     absolute magnetization    =     2.78 Bohr mag/cell

     iteration # 13     ecut=    70.00 Ry     beta= 0.30
     Davidson diagonalization with overlap
     ethr =  1.02E-05,  avg # of iterations =  1.5

     negative rho (up, down):  1.225E-03 7.648E-02

     total cpu time spent up to now is     1297.1 secs

     total energy              =    -860.05355985 Ry
     Harris-Foulkes estimate   =    -860.05401454 Ry
     estimated scf accuracy    <       0.01878518 Ry

     total magnetization       =     1.99 Bohr mag/cell
     absolute magnetization    =     2.81 Bohr mag/cell

     iteration # 14     ecut=    70.00 Ry     beta= 0.30
     Davidson diagonalization with overlap
     ethr =  8.78E-06,  avg # of iterations =  5.0

     negative rho (up, down):  3.105E-04 3.864E-02

     total cpu time spent up to now is     1387.0 secs

     total energy              =    -860.05060290 Ry
     Harris-Foulkes estimate   =    -860.05362175 Ry
     estimated scf accuracy    <       0.02031240 Ry

     total magnetization       =     1.98 Bohr mag/cell
     absolute magnetization    =     2.81 Bohr mag/cell

     iteration # 15     ecut=    70.00 Ry     beta= 0.30
     Davidson diagonalization with overlap
     ethr =  8.78E-06,  avg # of iterations =  4.0

     negative rho (up, down):  5.590E-04 1.122E-01

     total cpu time spent up to now is     1497.3 secs

     total energy              =    -860.03598007 Ry
     Harris-Foulkes estimate   =    -860.06286670 Ry
     estimated scf accuracy    <       0.25295421 Ry

     total magnetization       =     2.00 Bohr mag/cell
     absolute magnetization    =     3.08 Bohr mag/cell

     iteration # 16     ecut=    70.00 Ry     beta= 0.30
     Davidson diagonalization with overlap
     ethr =  8.78E-06,  avg # of iterations =  3.5

     negative rho (up, down):  5.749E-04 1.005E-01

     total cpu time spent up to now is     1606.6 secs

     total energy              =    -860.05397660 Ry
     Harris-Foulkes estimate   =    -860.05415570 Ry
     estimated scf accuracy    <       0.02251806 Ry

     total magnetization       =     1.94 Bohr mag/cell
     absolute magnetization    =     2.84 Bohr mag/cell

     iteration # 17     ecut=    70.00 Ry     beta= 0.30
     Davidson diagonalization with overlap
     ethr =  8.78E-06,  avg # of iterations =  1.0

     negative rho (up, down):  4.211E-04 7.058E-02

     total cpu time spent up to now is     1694.9 secs

     total energy              =    -860.05410661 Ry
     Harris-Foulkes estimate   =    -860.05404990 Ry
     estimated scf accuracy    <       0.02206017 Ry

     total magnetization       =     1.96 Bohr mag/cell
     absolute magnetization    =     2.83 Bohr mag/cell

     iteration # 18     ecut=    70.00 Ry     beta= 0.30
     Davidson diagonalization with overlap
     ethr =  8.78E-06,  avg # of iterations =  1.5

     negative rho (up, down):  4.825E-04 7.131E-02

     total cpu time spent up to now is     1783.6 secs

     total energy              =    -860.05437726 Ry
     Harris-Foulkes estimate   =    -860.05444789 Ry
     estimated scf accuracy    <       0.01418040 Ry

     total magnetization       =     2.11 Bohr mag/cell
     absolute magnetization    =     2.86 Bohr mag/cell

     iteration # 19     ecut=    70.00 Ry     beta= 0.30
     Davidson diagonalization with overlap
     ethr =  6.63E-06,  avg # of iterations =  1.0

     negative rho (up, down):  5.566E-04 5.501E-02

     total cpu time spent up to now is     1872.0 secs

     total energy              =    -860.05437394 Ry
     Harris-Foulkes estimate   =    -860.05439989 Ry
     estimated scf accuracy    <       0.01564837 Ry

     total magnetization       =     2.16 Bohr mag/cell
     absolute magnetization    =     2.85 Bohr mag/cell

     iteration # 20     ecut=    70.00 Ry     beta= 0.30
     Davidson diagonalization with overlap
     ethr =  6.63E-06,  avg # of iterations =  2.0

     negative rho (up, down):  3.040E-04 4.284E-02

     total cpu time spent up to now is     1963.3 secs

     total energy              =    -860.04995805 Ry
     Harris-Foulkes estimate   =    -860.05492005 Ry
     estimated scf accuracy    <       0.01421465 Ry

     total magnetization       =     2.17 Bohr mag/cell
     absolute magnetization    =     2.86 Bohr mag/cell

     iteration # 21     ecut=    70.00 Ry     beta= 0.30
     Davidson diagonalization with overlap
     ethr =  6.63E-06,  avg # of iterations =  3.0

     negative rho (up, down):  4.236E-04 7.150E-02

     total cpu time spent up to now is     2064.2 secs

     total energy              =    -860.05191357 Ry
     Harris-Foulkes estimate   =    -860.05367147 Ry
     estimated scf accuracy    <       0.00949273 Ry

     total magnetization       =     2.00 Bohr mag/cell
     absolute magnetization    =     3.14 Bohr mag/cell

     iteration # 22     ecut=    70.00 Ry     beta= 0.30
     Davidson diagonalization with overlap
     ethr =  4.44E-06,  avg # of iterations =  3.0

     negative rho (up, down):  3.938E-04 5.901E-02

     total cpu time spent up to now is     2162.5 secs

     total energy              =    -860.05411864 Ry
     Harris-Foulkes estimate   =    -860.05437088 Ry
     estimated scf accuracy    <       0.01330306 Ry

     total magnetization       =     2.03 Bohr mag/cell
     absolute magnetization    =     2.95 Bohr mag/cell

     iteration # 23     ecut=    70.00 Ry     beta= 0.30
     Davidson diagonalization with overlap
     ethr =  4.44E-06,  avg # of iterations =  1.0

     negative rho (up, down):  3.719E-04 4.899E-02

     total cpu time spent up to now is     2251.1 secs

     total energy              =    -860.05443668 Ry
     Harris-Foulkes estimate   =    -860.05426512 Ry
     estimated scf accuracy    <       0.00156000 Ry

     total magnetization       =     2.00 Bohr mag/cell
     absolute magnetization    =     3.11 Bohr mag/cell

     iteration # 24     ecut=    70.00 Ry     beta= 0.30
     Davidson diagonalization with overlap
     ethr =  7.29E-07,  avg # of iterations =  2.0

     negative rho (up, down):  3.799E-04 3.661E-02

     total cpu time spent up to now is     2342.2 secs

     total energy              =    -860.05503703 Ry
     Harris-Foulkes estimate   =    -860.05452120 Ry
     estimated scf accuracy    <       0.00139905 Ry

     total magnetization       =     2.00 Bohr mag/cell
     absolute magnetization    =     3.17 Bohr mag/cell

     iteration # 25     ecut=    70.00 Ry     beta= 0.30
     Davidson diagonalization with overlap
     ethr =  6.54E-07,  avg # of iterations =  2.0

     negative rho (up, down):  3.800E-04 6.673E-02

     total cpu time spent up to now is     2437.2 secs

     total energy              =    -860.05378898 Ry
     Harris-Foulkes estimate   =    -860.05516598 Ry
     estimated scf accuracy    <       0.00188753 Ry

     total magnetization       =     2.00 Bohr mag/cell
     absolute magnetization    =     3.13 Bohr mag/cell

     iteration # 26     ecut=    70.00 Ry     beta= 0.30
     Davidson diagonalization with overlap
     ethr =  6.54E-07,  avg # of iterations =  2.0

     negative rho (up, down):  3.961E-04 6.938E-02

     total cpu time spent up to now is     2539.2 secs

     total energy              =    -860.05422959 Ry
     Harris-Foulkes estimate   =    -860.05430347 Ry
     estimated scf accuracy    <       0.01111501 Ry

     total magnetization       =     2.05 Bohr mag/cell
     absolute magnetization    =     3.01 Bohr mag/cell

     iteration # 27     ecut=    70.00 Ry     beta= 0.30
     Davidson diagonalization with overlap
     ethr =  6.54E-07,  avg # of iterations =  2.0

     negative rho (up, down):  4.131E-04 6.274E-02

     total cpu time spent up to now is     2637.4 secs

     total energy              =    -860.05463333 Ry
     Harris-Foulkes estimate   =    -860.05446230 Ry
     estimated scf accuracy    <       0.00661999 Ry

     total magnetization       =     2.15 Bohr mag/cell
     absolute magnetization    =     3.06 Bohr mag/cell

     iteration # 28     ecut=    70.00 Ry     beta= 0.30
     Davidson diagonalization with overlap
     ethr =  6.54E-07,  avg # of iterations =  1.5

     negative rho (up, down):  4.111E-04 5.920E-02

     total cpu time spent up to now is     2726.0 secs

     total energy              =    -860.05443071 Ry
     Harris-Foulkes estimate   =    -860.05464551 Ry
     estimated scf accuracy    <       0.00703709 Ry

     total magnetization       =     2.16 Bohr mag/cell
     absolute magnetization    =     3.06 Bohr mag/cell

     iteration # 29     ecut=    70.00 Ry     beta= 0.30
     Davidson diagonalization with overlap
     ethr =  6.54E-07,  avg # of iterations =  2.0

     negative rho (up, down):  4.242E-04 5.431E-02

     total cpu time spent up to now is     2815.3 secs

     total energy              =    -860.05459489 Ry
     Harris-Foulkes estimate   =    -860.05443835 Ry
     estimated scf accuracy    <       0.01032660 Ry

     total magnetization       =     2.12 Bohr mag/cell
     absolute magnetization    =     3.05 Bohr mag/cell

     iteration # 30     ecut=    70.00 Ry     beta= 0.30
     Davidson diagonalization with overlap
     ethr =  6.54E-07,  avg # of iterations =  2.0

     negative rho (up, down):  4.625E-04 7.305E-02

     total cpu time spent up to now is     2909.3 secs

     total energy              =    -860.05412769 Ry
     Harris-Foulkes estimate   =    -860.05469748 Ry
     estimated scf accuracy    <       0.00994369 Ry

     total magnetization       =     2.17 Bohr mag/cell
     absolute magnetization    =     3.07 Bohr mag/cell

     iteration # 31     ecut=    70.00 Ry     beta= 0.30
     Davidson diagonalization with overlap
     ethr =  6.54E-07,  avg # of iterations =  2.0

     negative rho (up, down):  4.510E-04 7.389E-02

     total cpu time spent up to now is     3009.1 secs

     total energy              =    -860.05429628 Ry
     Harris-Foulkes estimate   =    -860.05447614 Ry
     estimated scf accuracy    <       0.00581235 Ry

     total magnetization       =     2.16 Bohr mag/cell
     absolute magnetization    =     3.07 Bohr mag/cell

     iteration # 32     ecut=    70.00 Ry     beta= 0.30
     Davidson diagonalization with overlap
     ethr =  6.54E-07,  avg # of iterations =  2.0

     negative rho (up, down):  5.223E-04 6.736E-02

     total cpu time spent up to now is     3103.1 secs

     total energy              =    -860.05520862 Ry
     Harris-Foulkes estimate   =    -860.05441977 Ry
     estimated scf accuracy    <       0.00717273 Ry

     total magnetization       =     2.11 Bohr mag/cell
     absolute magnetization    =     3.09 Bohr mag/cell

     iteration # 33     ecut=    70.00 Ry     beta= 0.30
     Davidson diagonalization with overlap
     ethr =  6.54E-07,  avg # of iterations =  3.0

     negative rho (up, down):  4.840E-04 9.339E-02

     total cpu time spent up to now is     3210.4 secs

     total energy              =    -860.05127076 Ry
     Harris-Foulkes estimate   =    -860.05626654 Ry
     estimated scf accuracy    <       0.01098309 Ry

     total magnetization       =     1.99 Bohr mag/cell
     absolute magnetization    =     3.12 Bohr mag/cell

     iteration # 34     ecut=    70.00 Ry     beta= 0.30
     Davidson diagonalization with overlap
     ethr =  6.54E-07,  avg # of iterations =  3.0

     negative rho (up, down):  4.086E-04 7.566E-02

     total cpu time spent up to now is     3323.2 secs

     total energy              =    -860.05305389 Ry
     Harris-Foulkes estimate   =    -860.05418946 Ry
     estimated scf accuracy    <       0.01137032 Ry

     total magnetization       =     1.83 Bohr mag/cell
     absolute magnetization    =     3.20 Bohr mag/cell

     iteration # 35     ecut=    70.00 Ry     beta= 0.30
     Davidson diagonalization with overlap
     ethr =  6.54E-07,  avg # of iterations =  3.0

     negative rho (up, down):  3.738E-04 5.547E-02

     total cpu time spent up to now is     3429.1 secs

     total energy              =    -860.05261333 Ry
     Harris-Foulkes estimate   =    -860.05390934 Ry
     estimated scf accuracy    <       0.00467935 Ry

     total magnetization       =     2.01 Bohr mag/cell
     absolute magnetization    =     3.08 Bohr mag/cell

     iteration # 36     ecut=    70.00 Ry     beta= 0.30
     Davidson diagonalization with overlap
     ethr =  6.54E-07,  avg # of iterations =  4.0

     negative rho (up, down):  3.832E-04 4.363E-02

     total cpu time spent up to now is     3544.7 secs

     total energy              =    -860.05389578 Ry
     Harris-Foulkes estimate   =    -860.05403972 Ry
     estimated scf accuracy    <       0.00349845 Ry

     total magnetization       =     2.00 Bohr mag/cell
     absolute magnetization    =     3.05 Bohr mag/cell

     iteration # 37     ecut=    70.00 Ry     beta= 0.30
     Davidson diagonalization with overlap
     ethr =  6.54E-07,  avg # of iterations =  2.5

     negative rho (up, down):  4.108E-04 3.801E-02

     total cpu time spent up to now is     3635.1 secs

     total energy              =    -860.05452248 Ry
     Harris-Foulkes estimate   =    -860.05418358 Ry
     estimated scf accuracy    <       0.00076711 Ry

     total magnetization       =     2.00 Bohr mag/cell
     absolute magnetization    =     3.09 Bohr mag/cell

     iteration # 38     ecut=    70.00 Ry     beta= 0.30
     Davidson diagonalization with overlap
     ethr =  3.58E-07,  avg # of iterations =  2.0

     negative rho (up, down):  4.153E-04 3.681E-02

     total cpu time spent up to now is     3726.1 secs

     total energy              =    -860.05464011 Ry
     Harris-Foulkes estimate   =    -860.05456776 Ry
     estimated scf accuracy    <       0.00087344 Ry

     total magnetization       =     2.00 Bohr mag/cell
     absolute magnetization    =     3.11 Bohr mag/cell

     iteration # 39     ecut=    70.00 Ry     beta= 0.30
     Davidson diagonalization with overlap
     ethr =  3.58E-07,  avg # of iterations =  1.0

     negative rho (up, down):  4.042E-04 5.537E-02

     total cpu time spent up to now is     3814.4 secs

     total energy              =    -860.05406798 Ry
     Harris-Foulkes estimate   =    -860.05464541 Ry
     estimated scf accuracy    <       0.00092277 Ry

     total magnetization       =     2.00 Bohr mag/cell
     absolute magnetization    =     3.12 Bohr mag/cell

     iteration # 40     ecut=    70.00 Ry     beta= 0.30
     Davidson diagonalization with overlap
     ethr =  3.58E-07,  avg # of iterations =  2.0

     negative rho (up, down):  4.030E-04 4.817E-02

     total cpu time spent up to now is     3915.4 secs

     total energy              =    -860.05431330 Ry
     Harris-Foulkes estimate   =    -860.05433277 Ry
     estimated scf accuracy    <       0.00073156 Ry

     total magnetization       =     2.00 Bohr mag/cell
     absolute magnetization    =     3.11 Bohr mag/cell

     iteration # 41     ecut=    70.00 Ry     beta= 0.30
     Davidson diagonalization with overlap
     ethr =  3.42E-07,  avg # of iterations =  2.0

     negative rho (up, down):  4.054E-04 4.972E-02

     total cpu time spent up to now is     4005.1 secs

     total energy              =    -860.05426563 Ry
     Harris-Foulkes estimate   =    -860.05432821 Ry
     estimated scf accuracy    <       0.00066612 Ry

     total magnetization       =     2.00 Bohr mag/cell
     absolute magnetization    =     3.11 Bohr mag/cell

     iteration # 42     ecut=    70.00 Ry     beta= 0.30
     Davidson diagonalization with overlap
     ethr =  3.11E-07,  avg # of iterations =  2.0

     negative rho (up, down):  4.119E-04 4.497E-02

     total cpu time spent up to now is     4101.7 secs

     total energy              =    -860.05447635 Ry
     Harris-Foulkes estimate   =    -860.05434262 Ry
     estimated scf accuracy    <       0.00059266 Ry

     total magnetization       =     2.00 Bohr mag/cell
     absolute magnetization    =     3.14 Bohr mag/cell

     iteration # 43     ecut=    70.00 Ry     beta= 0.30
     Davidson diagonalization with overlap
     ethr =  2.77E-07,  avg # of iterations =  1.5

     negative rho (up, down):  4.304E-04 3.709E-02

     total cpu time spent up to now is     4190.3 secs

     total energy              =    -860.05471994 Ry
     Harris-Foulkes estimate   =    -860.05448116 Ry
     estimated scf accuracy    <       0.00066776 Ry

     total magnetization       =     2.00 Bohr mag/cell
     absolute magnetization    =     3.13 Bohr mag/cell

     iteration # 44     ecut=    70.00 Ry     beta= 0.30
     Davidson diagonalization with overlap
     ethr =  2.77E-07,  avg # of iterations =  2.0

     negative rho (up, down):  3.998E-04 6.319E-02

     total cpu time spent up to now is     4285.6 secs

     total energy              =    -860.05369388 Ry
     Harris-Foulkes estimate   =    -860.05478304 Ry
     estimated scf accuracy    <       0.00080576 Ry

     total magnetization       =     2.00 Bohr mag/cell
     absolute magnetization    =     3.16 Bohr mag/cell

     iteration # 45     ecut=    70.00 Ry     beta= 0.30
     Davidson diagonalization with overlap
     ethr =  2.77E-07,  avg # of iterations =  2.0

     negative rho (up, down):  4.501E-04 7.821E-02

     total cpu time spent up to now is     4388.8 secs

     total energy              =    -860.05365041 Ry
     Harris-Foulkes estimate   =    -860.05399880 Ry
     estimated scf accuracy    <       0.00043611 Ry

     total magnetization       =     2.00 Bohr mag/cell
     absolute magnetization    =     3.11 Bohr mag/cell

     iteration # 46     ecut=    70.00 Ry     beta= 0.30
     Davidson diagonalization with overlap
     ethr =  2.04E-07,  avg # of iterations =  2.5

     negative rho (up, down):  5.446E-04 7.885E-02

     total cpu time spent up to now is     4492.8 secs

     total energy              =    -860.05395518 Ry
     Harris-Foulkes estimate   =    -860.05391210 Ry
     estimated scf accuracy    <       0.00019110 Ry

     total magnetization       =     2.00 Bohr mag/cell
     absolute magnetization    =     3.10 Bohr mag/cell

     iteration # 47     ecut=    70.00 Ry     beta= 0.30
     Davidson diagonalization with overlap
     ethr =  8.93E-08,  avg # of iterations =  3.0

     negative rho (up, down):  5.148E-04 5.643E-02

     total cpu time spent up to now is     4600.3 secs

     total energy              =    -860.05407666 Ry
     Harris-Foulkes estimate   =    -860.05409397 Ry
     estimated scf accuracy    <       0.00035912 Ry

     total magnetization       =     2.00 Bohr mag/cell
     absolute magnetization    =     3.11 Bohr mag/cell

     iteration # 48     ecut=    70.00 Ry     beta= 0.30
     Davidson diagonalization with overlap
     ethr =  8.93E-08,  avg # of iterations =  2.0

     negative rho (up, down):  4.796E-04 4.246E-02

     total cpu time spent up to now is     4700.7 secs

     total energy              =    -860.05409264 Ry
     Harris-Foulkes estimate   =    -860.05414993 Ry
     estimated scf accuracy    <       0.00020647 Ry

     total magnetization       =     2.00 Bohr mag/cell
     absolute magnetization    =     3.13 Bohr mag/cell

     iteration # 49     ecut=    70.00 Ry     beta= 0.30
     Davidson diagonalization with overlap
     ethr =  8.93E-08,  avg # of iterations =  2.0

     negative rho (up, down):  4.871E-04 3.487E-02

     total cpu time spent up to now is     4790.5 secs

     total energy              =    -860.05410367 Ry
     Harris-Foulkes estimate   =    -860.05410238 Ry
     estimated scf accuracy    <       0.00010319 Ry

     total magnetization       =     2.00 Bohr mag/cell
     absolute magnetization    =     3.12 Bohr mag/cell

     iteration # 50     ecut=    70.00 Ry     beta= 0.30
     Davidson diagonalization with overlap
     ethr =  4.82E-08,  avg # of iterations =  2.5

     negative rho (up, down):  5.236E-04 2.837E-02

     total cpu time spent up to now is     4887.8 secs

     total energy              =    -860.05417285 Ry
     Harris-Foulkes estimate   =    -860.05412061 Ry
     estimated scf accuracy    <       0.00005700 Ry

     total magnetization       =     2.00 Bohr mag/cell
     absolute magnetization    =     3.12 Bohr mag/cell

     iteration # 51     ecut=    70.00 Ry     beta= 0.30
     Davidson diagonalization with overlap
     ethr =  2.66E-08,  avg # of iterations =  3.0

     negative rho (up, down):  5.428E-04 2.104E-02

     total cpu time spent up to now is     4991.3 secs

     total energy              =    -860.05422628 Ry
     Harris-Foulkes estimate   =    -860.05419231 Ry
     estimated scf accuracy    <       0.00003562 Ry

     total magnetization       =     2.00 Bohr mag/cell
     absolute magnetization    =     3.13 Bohr mag/cell

     iteration # 52     ecut=    70.00 Ry     beta= 0.30
     Davidson diagonalization with overlap
     ethr =  1.66E-08,  avg # of iterations =  3.0

     negative rho (up, down):  5.392E-04 1.682E-02

     total cpu time spent up to now is     5090.0 secs

     total energy              =    -860.05421836 Ry
     Harris-Foulkes estimate   =    -860.05423420 Ry
     estimated scf accuracy    <       0.00003940 Ry

     total magnetization       =     2.00 Bohr mag/cell
     absolute magnetization    =     3.15 Bohr mag/cell

     iteration # 53     ecut=    70.00 Ry     beta= 0.30
     Davidson diagonalization with overlap
     ethr =  1.66E-08,  avg # of iterations =  2.0

     negative rho (up, down):  5.327E-04 1.263E-02

     total cpu time spent up to now is     5184.9 secs

     total energy              =    -860.05423092 Ry
     Harris-Foulkes estimate   =    -860.05422253 Ry
     estimated scf accuracy    <       0.00003607 Ry

     total magnetization       =     2.00 Bohr mag/cell
     absolute magnetization    =     3.14 Bohr mag/cell

     iteration # 54     ecut=    70.00 Ry     beta= 0.30
     Davidson diagonalization with overlap
     ethr =  1.66E-08,  avg # of iterations =  2.0

     negative rho (up, down):  5.656E-04 1.603E-02

     total cpu time spent up to now is     5275.1 secs

     total energy              =    -860.05421010 Ry
     Harris-Foulkes estimate   =    -860.05423198 Ry
     estimated scf accuracy    <       0.00004275 Ry

     total magnetization       =     2.00 Bohr mag/cell
     absolute magnetization    =     3.15 Bohr mag/cell

     iteration # 55     ecut=    70.00 Ry     beta= 0.30
     Davidson diagonalization with overlap
     ethr =  1.66E-08,  avg # of iterations =  2.0

     negative rho (up, down):  5.687E-04 1.798E-02

     total cpu time spent up to now is     5375.5 secs

     total energy              =    -860.05420898 Ry
     Harris-Foulkes estimate   =    -860.05422140 Ry
     estimated scf accuracy    <       0.00003090 Ry

     total magnetization       =     2.00 Bohr mag/cell
     absolute magnetization    =     3.15 Bohr mag/cell

     iteration # 56     ecut=    70.00 Ry     beta= 0.30
     Davidson diagonalization with overlap
     ethr =  1.44E-08,  avg # of iterations =  2.0

     negative rho (up, down):  5.556E-04 1.619E-02

     total cpu time spent up to now is     5470.6 secs

     total energy              =    -860.05422061 Ry
     Harris-Foulkes estimate   =    -860.05421337 Ry
     estimated scf accuracy    <       0.00001702 Ry

     total magnetization       =     2.00 Bohr mag/cell
     absolute magnetization    =     3.15 Bohr mag/cell

     iteration # 57     ecut=    70.00 Ry     beta= 0.30
     Davidson diagonalization with overlap
     ethr =  7.95E-09,  avg # of iterations =  2.5

     negative rho (up, down):  5.464E-04 1.267E-02

     total cpu time spent up to now is     5570.2 secs

     total energy              =    -860.05423337 Ry
     Harris-Foulkes estimate   =    -860.05422548 Ry
     estimated scf accuracy    <       0.00001385 Ry

     total magnetization       =     2.00 Bohr mag/cell
     absolute magnetization    =     3.16 Bohr mag/cell

     iteration # 58     ecut=    70.00 Ry     beta= 0.30
     Davidson diagonalization with overlap
     ethr =  6.47E-09,  avg # of iterations =  2.0

     negative rho (up, down):  5.499E-04 1.238E-02

     total cpu time spent up to now is     5663.9 secs

     total energy              =    -860.05422937 Ry
     Harris-Foulkes estimate   =    -860.05423511 Ry
     estimated scf accuracy    <       0.00001726 Ry

     total magnetization       =     2.00 Bohr mag/cell
     absolute magnetization    =     3.16 Bohr mag/cell

     iteration # 59     ecut=    70.00 Ry     beta= 0.30
     Davidson diagonalization with overlap
     ethr =  6.47E-09,  avg # of iterations =  2.0

     negative rho (up, down):  5.537E-04 1.352E-02

     total cpu time spent up to now is     5756.4 secs

     total energy              =    -860.05422701 Ry
     Harris-Foulkes estimate   =    -860.05423044 Ry
     estimated scf accuracy    <       0.00001526 Ry

     total magnetization       =     2.00 Bohr mag/cell
     absolute magnetization    =     3.16 Bohr mag/cell

     iteration # 60     ecut=    70.00 Ry     beta= 0.30
     Davidson diagonalization with overlap
     ethr =  6.47E-09,  avg # of iterations =  2.0

     negative rho (up, down):  5.530E-04 1.173E-02

     total cpu time spent up to now is     5851.7 secs

     total energy              =    -860.05423071 Ry
     Harris-Foulkes estimate   =    -860.05422888 Ry
     estimated scf accuracy    <       0.00001319 Ry

     total magnetization       =     2.00 Bohr mag/cell
     absolute magnetization    =     3.16 Bohr mag/cell

     iteration # 61     ecut=    70.00 Ry     beta= 0.30
     Davidson diagonalization with overlap
     ethr =  6.17E-09,  avg # of iterations =  1.0

     negative rho (up, down):  5.524E-04 1.144E-02

     total cpu time spent up to now is     5940.4 secs

     total energy              =    -860.05423117 Ry
     Harris-Foulkes estimate   =    -860.05423085 Ry
     estimated scf accuracy    <       0.00001339 Ry

     total magnetization       =     2.00 Bohr mag/cell
     absolute magnetization    =     3.16 Bohr mag/cell

     iteration # 62     ecut=    70.00 Ry     beta= 0.30
     Davidson diagonalization with overlap
     ethr =  6.17E-09,  avg # of iterations =  1.0

     negative rho (up, down):  5.467E-04 1.044E-02

     total cpu time spent up to now is     6028.4 secs

     total energy              =    -860.05423594 Ry
     Harris-Foulkes estimate   =    -860.05423125 Ry
     estimated scf accuracy    <       0.00001335 Ry

     total magnetization       =     2.00 Bohr mag/cell
     absolute magnetization    =     3.16 Bohr mag/cell

     iteration # 63     ecut=    70.00 Ry     beta= 0.30
     Davidson diagonalization with overlap
     ethr =  6.17E-09,  avg # of iterations =  2.0

     negative rho (up, down):  5.517E-04 1.305E-02

     total cpu time spent up to now is     6124.8 secs

     total energy              =    -860.05422368 Ry
     Harris-Foulkes estimate   =    -860.05423782 Ry
     estimated scf accuracy    <       0.00001750 Ry

     total magnetization       =     2.00 Bohr mag/cell
     absolute magnetization    =     3.16 Bohr mag/cell

     iteration # 64     ecut=    70.00 Ry     beta= 0.30
     Davidson diagonalization with overlap
     ethr =  6.17E-09,  avg # of iterations =  2.0

     negative rho (up, down):  5.528E-04 1.503E-02

     total cpu time spent up to now is     6223.6 secs

     total energy              =    -860.05421819 Ry
     Harris-Foulkes estimate   =    -860.05422705 Ry
     estimated scf accuracy    <       0.00001056 Ry

     total magnetization       =     2.00 Bohr mag/cell
     absolute magnetization    =     3.16 Bohr mag/cell

     iteration # 65     ecut=    70.00 Ry     beta= 0.30
     Davidson diagonalization with overlap
     ethr =  4.93E-09,  avg # of iterations =  2.0

     negative rho (up, down):  5.477E-04 1.456E-02

     total cpu time spent up to now is     6323.3 secs

     total energy              =    -860.05422318 Ry
     Harris-Foulkes estimate   =    -860.05422216 Ry
     estimated scf accuracy    <       0.00000590 Ry

     total magnetization       =     2.00 Bohr mag/cell
     absolute magnetization    =     3.16 Bohr mag/cell

     iteration # 66     ecut=    70.00 Ry     beta= 0.30
     Davidson diagonalization with overlap
     ethr =  2.76E-09,  avg # of iterations =  3.0

     negative rho (up, down):  5.446E-04 1.190E-02

     total cpu time spent up to now is     6424.7 secs

     total energy              =    -860.05422903 Ry
     Harris-Foulkes estimate   =    -860.05422566 Ry
     estimated scf accuracy    <       0.00000490 Ry

     total magnetization       =     2.00 Bohr mag/cell
     absolute magnetization    =     3.16 Bohr mag/cell

     iteration # 67     ecut=    70.00 Ry     beta= 0.30
     Davidson diagonalization with overlap
     ethr =  2.29E-09,  avg # of iterations =  2.0

     negative rho (up, down):  5.443E-04 9.816E-03

     total cpu time spent up to now is     6515.3 secs

     total energy              =    -860.05423051 Ry
     Harris-Foulkes estimate   =    -860.05422927 Ry
     estimated scf accuracy    <       0.00000485 Ry

     total magnetization       =     2.00 Bohr mag/cell
     absolute magnetization    =     3.17 Bohr mag/cell

     iteration # 68     ecut=    70.00 Ry     beta= 0.30
     Davidson diagonalization with overlap
     ethr =  2.27E-09,  avg # of iterations =  2.0

     negative rho (up, down):  5.429E-04 9.134E-03

     total cpu time spent up to now is     6604.9 secs

     total energy              =    -860.05423051 Ry
     Harris-Foulkes estimate   =    -860.05423066 Ry
     estimated scf accuracy    <       0.00000501 Ry

     total magnetization       =     2.00 Bohr mag/cell
     absolute magnetization    =     3.17 Bohr mag/cell

     iteration # 69     ecut=    70.00 Ry     beta= 0.30
     Davidson diagonalization with overlap
     ethr =  2.27E-09,  avg # of iterations =  2.0

     negative rho (up, down):  5.423E-04 8.591E-03

     total cpu time spent up to now is     6699.5 secs

     total energy              =    -860.05423191 Ry
     Harris-Foulkes estimate   =    -860.05423103 Ry
     estimated scf accuracy    <       0.00000485 Ry

     total magnetization       =     2.00 Bohr mag/cell
     absolute magnetization    =     3.17 Bohr mag/cell

     iteration # 70     ecut=    70.00 Ry     beta= 0.30
     Davidson diagonalization with overlap
     ethr =  2.26E-09,  avg # of iterations =  2.0

     negative rho (up, down):  5.422E-04 9.008E-03

     total cpu time spent up to now is     6789.3 secs

     total energy              =    -860.05423141 Ry
     Harris-Foulkes estimate   =    -860.05423205 Ry
     estimated scf accuracy    <       0.00000528 Ry

     total magnetization       =     2.00 Bohr mag/cell
     absolute magnetization    =     3.17 Bohr mag/cell

     iteration # 71     ecut=    70.00 Ry     beta= 0.30
     Davidson diagonalization with overlap
     ethr =  2.26E-09,  avg # of iterations =  2.0

     negative rho (up, down):  5.418E-04 8.753E-03

     total cpu time spent up to now is     6886.1 secs

     total energy              =    -860.05423256 Ry
     Harris-Foulkes estimate   =    -860.05423228 Ry
     estimated scf accuracy    <       0.00000549 Ry

     total magnetization       =     2.00 Bohr mag/cell
     absolute magnetization    =     3.17 Bohr mag/cell

     iteration # 72     ecut=    70.00 Ry     beta= 0.30
     Davidson diagonalization with overlap
     ethr =  2.26E-09,  avg # of iterations =  1.0

     negative rho (up, down):  5.413E-04 8.756E-03

     total cpu time spent up to now is     6975.0 secs

     total energy              =    -860.05423262 Ry
     Harris-Foulkes estimate   =    -860.05423257 Ry
     estimated scf accuracy    <       0.00000560 Ry

     total magnetization       =     2.00 Bohr mag/cell
     absolute magnetization    =     3.17 Bohr mag/cell

     iteration # 73     ecut=    70.00 Ry     beta= 0.30
     Davidson diagonalization with overlap
     ethr =  2.26E-09,  avg # of iterations =  1.5

     negative rho (up, down):  5.406E-04 9.493E-03

     total cpu time spent up to now is     7063.5 secs

     total energy              =    -860.05423158 Ry
     Harris-Foulkes estimate   =    -860.05423282 Ry
     estimated scf accuracy    <       0.00000538 Ry

     total magnetization       =     2.00 Bohr mag/cell
     absolute magnetization    =     3.17 Bohr mag/cell

     iteration # 74     ecut=    70.00 Ry     beta= 0.30
     Davidson diagonalization with overlap
     ethr =  2.26E-09,  avg # of iterations =  3.0

     negative rho (up, down):  5.408E-04 8.581E-03

     total cpu time spent up to now is     7162.0 secs

     total energy              =    -860.05423436 Ry
     Harris-Foulkes estimate   =    -860.05423290 Ry
     estimated scf accuracy    <       0.00000505 Ry

     total magnetization       =     2.00 Bohr mag/cell
     absolute magnetization    =     3.17 Bohr mag/cell

     iteration # 75     ecut=    70.00 Ry     beta= 0.30
     Davidson diagonalization with overlap
     ethr =  2.26E-09,  avg # of iterations =  2.0

     negative rho (up, down):  5.400E-04 1.056E-02

     total cpu time spent up to now is     7256.6 secs

     total energy              =    -860.05422541 Ry
     Harris-Foulkes estimate   =    -860.05423490 Ry
     estimated scf accuracy    <       0.00000638 Ry

     total magnetization       =     2.00 Bohr mag/cell
     absolute magnetization    =     3.17 Bohr mag/cell

     iteration # 76     ecut=    70.00 Ry     beta= 0.30
     Davidson diagonalization with overlap
     ethr =  2.26E-09,  avg # of iterations =  2.0

     negative rho (up, down):  5.392E-04 9.722E-03

     total cpu time spent up to now is     7360.7 secs

     total energy              =    -860.05423090 Ry
     Harris-Foulkes estimate   =    -860.05423015 Ry
     estimated scf accuracy    <       0.00000300 Ry

     total magnetization       =     2.00 Bohr mag/cell
     absolute magnetization    =     3.17 Bohr mag/cell

     iteration # 77     ecut=    70.00 Ry     beta= 0.30
     Davidson diagonalization with overlap
     ethr =  1.40E-09,  avg # of iterations =  2.0

     negative rho (up, down):  5.393E-04 8.996E-03

     total cpu time spent up to now is     7451.4 secs

     total energy              =    -860.05423121 Ry
     Harris-Foulkes estimate   =    -860.05423109 Ry
     estimated scf accuracy    <       0.00000293 Ry

     total magnetization       =     2.00 Bohr mag/cell
     absolute magnetization    =     3.17 Bohr mag/cell

     iteration # 78     ecut=    70.00 Ry     beta= 0.30
     Davidson diagonalization with overlap
     ethr =  1.37E-09,  avg # of iterations =  2.0

     negative rho (up, down):  5.387E-04 8.261E-03

     total cpu time spent up to now is     7540.5 secs

     total energy              =    -860.05423318 Ry
     Harris-Foulkes estimate   =    -860.05423139 Ry
     estimated scf accuracy    <       0.00000270 Ry

     total magnetization       =     2.00 Bohr mag/cell
     absolute magnetization    =     3.17 Bohr mag/cell

     iteration # 79     ecut=    70.00 Ry     beta= 0.30
     Davidson diagonalization with overlap
     ethr =  1.26E-09,  avg # of iterations =  2.0

     negative rho (up, down):  5.393E-04 8.995E-03

     total cpu time spent up to now is     7637.8 secs

     total energy              =    -860.05422925 Ry
     Harris-Foulkes estimate   =    -860.05423363 Ry
     estimated scf accuracy    <       0.00000368 Ry

     total magnetization       =     2.00 Bohr mag/cell
     absolute magnetization    =     3.18 Bohr mag/cell

     iteration # 80     ecut=    70.00 Ry     beta= 0.30
     Davidson diagonalization with overlap
     ethr =  1.26E-09,  avg # of iterations =  2.0

     negative rho (up, down):  5.387E-04 8.831E-03

     total cpu time spent up to now is     7741.1 secs

     total energy              =    -860.05423091 Ry
     Harris-Foulkes estimate   =    -860.05423093 Ry
     estimated scf accuracy    <       0.00000239 Ry

     total magnetization       =     2.00 Bohr mag/cell
     absolute magnetization    =     3.17 Bohr mag/cell

     iteration # 81     ecut=    70.00 Ry     beta= 0.30
     Davidson diagonalization with overlap
     ethr =  1.12E-09,  avg # of iterations =  2.0

     negative rho (up, down):  5.384E-04 8.404E-03

     total cpu time spent up to now is     7839.1 secs

     total energy              =    -860.05423214 Ry
     Harris-Foulkes estimate   =    -860.05423145 Ry
     estimated scf accuracy    <       0.00000170 Ry

     total magnetization       =     2.00 Bohr mag/cell
     absolute magnetization    =     3.18 Bohr mag/cell

     iteration # 82     ecut=    70.00 Ry     beta= 0.30
     Davidson diagonalization with overlap
     ethr =  7.92E-10,  avg # of iterations =  2.0

     negative rho (up, down):  5.384E-04 8.208E-03

     total cpu time spent up to now is     7930.3 secs

     total energy              =    -860.05423219 Ry
     Harris-Foulkes estimate   =    -860.05423223 Ry
     estimated scf accuracy    <       0.00000188 Ry

     total magnetization       =     2.00 Bohr mag/cell
     absolute magnetization    =     3.18 Bohr mag/cell

     iteration # 83     ecut=    70.00 Ry     beta= 0.30
     Davidson diagonalization with overlap
     ethr =  7.92E-10,  avg # of iterations =  2.0

     negative rho (up, down):  5.385E-04 8.154E-03

     total cpu time spent up to now is     8019.7 secs

     total energy              =    -860.05423214 Ry
     Harris-Foulkes estimate   =    -860.05423225 Ry
     estimated scf accuracy    <       0.00000194 Ry

     total magnetization       =     2.00 Bohr mag/cell
     absolute magnetization    =     3.18 Bohr mag/cell

     iteration # 84     ecut=    70.00 Ry     beta= 0.30
     Davidson diagonalization with overlap
     ethr =  7.92E-10,  avg # of iterations =  1.0

     negative rho (up, down):  5.382E-04 8.054E-03

     total cpu time spent up to now is     8108.1 secs

     total energy              =    -860.05423260 Ry
     Harris-Foulkes estimate   =    -860.05423215 Ry
     estimated scf accuracy    <       0.00000199 Ry

     total magnetization       =     2.00 Bohr mag/cell
     absolute magnetization    =     3.18 Bohr mag/cell

     iteration # 85     ecut=    70.00 Ry     beta= 0.30
     Davidson diagonalization with overlap
     ethr =  7.92E-10,  avg # of iterations =  2.0

     negative rho (up, down):  5.382E-04 8.128E-03

     total cpu time spent up to now is     8202.7 secs

     total energy              =    -860.05423281 Ry
     Harris-Foulkes estimate   =    -860.05423281 Ry
     estimated scf accuracy    <       0.00000209 Ry

     total magnetization       =     2.00 Bohr mag/cell
     absolute magnetization    =     3.18 Bohr mag/cell

     iteration # 86     ecut=    70.00 Ry     beta= 0.30
     Davidson diagonalization with overlap
     ethr =  7.92E-10,  avg # of iterations =  1.0

     negative rho (up, down):  5.378E-04 7.993E-03

     total cpu time spent up to now is     8291.0 secs

     total energy              =    -860.05423362 Ry
     Harris-Foulkes estimate   =    -860.05423282 Ry
     estimated scf accuracy    <       0.00000209 Ry

     total magnetization       =     2.00 Bohr mag/cell
     absolute magnetization    =     3.18 Bohr mag/cell

     iteration # 87     ecut=    70.00 Ry     beta= 0.30
     Davidson diagonalization with overlap
     ethr =  7.92E-10,  avg # of iterations =  2.0

     negative rho (up, down):  5.387E-04 8.667E-03

     total cpu time spent up to now is     8389.3 secs

     total energy              =    -860.05423048 Ry
     Harris-Foulkes estimate   =    -860.05423401 Ry
     estimated scf accuracy    <       0.00000260 Ry

     total magnetization       =     2.00 Bohr mag/cell
     absolute magnetization    =     3.18 Bohr mag/cell

     iteration # 88     ecut=    70.00 Ry     beta= 0.30
     Davidson diagonalization with overlap
     ethr =  7.92E-10,  avg # of iterations =  3.0

     negative rho (up, down):  5.387E-04 8.384E-03

     total cpu time spent up to now is     8495.6 secs

     total energy              =    -860.05423189 Ry
     Harris-Foulkes estimate   =    -860.05423171 Ry
     estimated scf accuracy    <       0.00000188 Ry

     total magnetization       =     2.00 Bohr mag/cell
     absolute magnetization    =     3.18 Bohr mag/cell

     iteration # 89     ecut=    70.00 Ry     beta= 0.30
     Davidson diagonalization with overlap
     ethr =  7.92E-10,  avg # of iterations =  1.0

     negative rho (up, down):  5.384E-04 8.206E-03

     total cpu time spent up to now is     8583.9 secs

     total energy              =    -860.05423256 Ry
     Harris-Foulkes estimate   =    -860.05423193 Ry
     estimated scf accuracy    <       0.00000217 Ry

     total magnetization       =     2.00 Bohr mag/cell
     absolute magnetization    =     3.18 Bohr mag/cell

     iteration # 90     ecut=    70.00 Ry     beta= 0.30
     Davidson diagonalization with overlap
     ethr =  7.92E-10,  avg # of iterations =  2.0

     negative rho (up, down):  5.382E-04 8.197E-03

     total cpu time spent up to now is     8676.5 secs

     total energy              =    -860.05423303 Ry
     Harris-Foulkes estimate   =    -860.05423270 Ry
     estimated scf accuracy    <       0.00000248 Ry

     total magnetization       =     2.00 Bohr mag/cell
     absolute magnetization    =     3.18 Bohr mag/cell

     iteration # 91     ecut=    70.00 Ry     beta= 0.30
     Davidson diagonalization with overlap
     ethr =  7.92E-10,  avg # of iterations =  2.0

     negative rho (up, down):  5.381E-04 8.145E-03

     total cpu time spent up to now is     8767.1 secs

     total energy              =    -860.05423321 Ry
     Harris-Foulkes estimate   =    -860.05423313 Ry
     estimated scf accuracy    <       0.00000243 Ry

     total magnetization       =     2.00 Bohr mag/cell
     absolute magnetization    =     3.18 Bohr mag/cell

     iteration # 92     ecut=    70.00 Ry     beta= 0.30
     Davidson diagonalization with overlap
     ethr =  7.92E-10,  avg # of iterations =  2.0

     negative rho (up, down):  5.381E-04 8.203E-03

     total cpu time spent up to now is     8860.2 secs

     total energy              =    -860.05423341 Ry
     Harris-Foulkes estimate   =    -860.05423334 Ry
     estimated scf accuracy    <       0.00000237 Ry

     total magnetization       =     2.00 Bohr mag/cell
     absolute magnetization    =     3.18 Bohr mag/cell

     iteration # 93     ecut=    70.00 Ry     beta= 0.30
     Davidson diagonalization with overlap
     ethr =  7.92E-10,  avg # of iterations =  1.0

     negative rho (up, down):  5.385E-04 8.428E-03

     total cpu time spent up to now is     8948.6 secs

     total energy              =    -860.05423228 Ry
     Harris-Foulkes estimate   =    -860.05423342 Ry
     estimated scf accuracy    <       0.00000241 Ry

     total magnetization       =     2.00 Bohr mag/cell
     absolute magnetization    =     3.18 Bohr mag/cell

     iteration # 94     ecut=    70.00 Ry     beta= 0.30
     Davidson diagonalization with overlap
     ethr =  7.92E-10,  avg # of iterations =  2.0

     negative rho (up, down):  5.383E-04 8.548E-03

     total cpu time spent up to now is     9047.4 secs

     total energy              =    -860.05423212 Ry
     Harris-Foulkes estimate   =    -860.05423272 Ry
     estimated scf accuracy    <       0.00000260 Ry

     total magnetization       =     2.00 Bohr mag/cell
     absolute magnetization    =     3.18 Bohr mag/cell

     iteration # 95     ecut=    70.00 Ry     beta= 0.30
     Davidson diagonalization with overlap
     ethr =  7.92E-10,  avg # of iterations =  2.0

     negative rho (up, down):  5.379E-04 8.334E-03

     total cpu time spent up to now is     9145.1 secs

     total energy              =    -860.05423340 Ry
     Harris-Foulkes estimate   =    -860.05423249 Ry
     estimated scf accuracy    <       0.00000206 Ry

     total magnetization       =     2.00 Bohr mag/cell
     absolute magnetization    =     3.18 Bohr mag/cell

     iteration # 96     ecut=    70.00 Ry     beta= 0.30
     Davidson diagonalization with overlap
     ethr =  7.92E-10,  avg # of iterations =  2.5

     negative rho (up, down):  5.379E-04 8.086E-03

     total cpu time spent up to now is     9247.3 secs

     total energy              =    -860.05423398 Ry
     Harris-Foulkes estimate   =    -860.05423429 Ry
     estimated scf accuracy    <       0.00000270 Ry

     total magnetization       =     2.00 Bohr mag/cell
     absolute magnetization    =     3.18 Bohr mag/cell

     iteration # 97     ecut=    70.00 Ry     beta= 0.30
     Davidson diagonalization with overlap
     ethr =  7.92E-10,  avg # of iterations =  2.0

     negative rho (up, down):  5.379E-04 8.255E-03

     total cpu time spent up to now is     9344.8 secs

     total energy              =    -860.05423429 Ry
     Harris-Foulkes estimate   =    -860.05423434 Ry
     estimated scf accuracy    <       0.00000336 Ry

     total magnetization       =     2.00 Bohr mag/cell
     absolute magnetization    =     3.18 Bohr mag/cell

     iteration # 98     ecut=    70.00 Ry     beta= 0.30
     Davidson diagonalization with overlap
     ethr =  7.92E-10,  avg # of iterations =  1.0

     negative rho (up, down):  5.384E-04 8.744E-03

     total cpu time spent up to now is     9433.2 secs

     total energy              =    -860.05423225 Ry
     Harris-Foulkes estimate   =    -860.05423429 Ry
     estimated scf accuracy    <       0.00000338 Ry

     total magnetization       =     2.00 Bohr mag/cell
     absolute magnetization    =     3.18 Bohr mag/cell

     iteration # 99     ecut=    70.00 Ry     beta= 0.30
     Davidson diagonalization with overlap
     ethr =  7.92E-10,  avg # of iterations =  2.0

     negative rho (up, down):  5.384E-04 8.630E-03

     total cpu time spent up to now is     9532.9 secs

     total energy              =    -860.05423281 Ry
     Harris-Foulkes estimate   =    -860.05423283 Ry
     estimated scf accuracy    <       0.00000240 Ry

     total magnetization       =     2.00 Bohr mag/cell
     absolute magnetization    =     3.18 Bohr mag/cell

     iteration #100     ecut=    70.00 Ry     beta= 0.30
     Davidson diagonalization with overlap
     ethr =  7.92E-10,  avg # of iterations =  2.0

     negative rho (up, down):  5.383E-04 8.288E-03

     Magnetic moment per site:
     atom:    1    charge:    0.2107    magn:   -0.0000    constr:    0.0000
     atom:    2    charge:    0.2119    magn:   -0.0000    constr:    0.0000
     atom:    3    charge:    1.7171    magn:   -0.0127    constr:    0.0000
     atom:    4    charge:    1.7153    magn:    0.0178    constr:    0.0000
     atom:    5    charge:    1.7177    magn:   -0.0085    constr:    0.0000
     atom:    6    charge:    1.7142    magn:    0.0056    constr:    0.0000
     atom:    7    charge:    1.7177    magn:   -0.0085    constr:    0.0000
     atom:    8    charge:    1.7153    magn:    0.0178    constr:    0.0000
     atom:    9    charge:    1.7171    magn:   -0.0127    constr:    0.0000
     atom:   10    charge:    1.7149    magn:    0.0589    constr:    0.0000
     atom:   11    charge:    1.7176    magn:   -0.0173    constr:    0.0000
     atom:   12    charge:    1.7149    magn:    0.0589    constr:    0.0000
     atom:   13    charge:    1.7176    magn:   -0.0174    constr:    0.0000
     atom:   14    charge:    1.7155    magn:    0.0461    constr:    0.0000
     atom:   15    charge:    1.7140    magn:   -0.0137    constr:    0.0000
     atom:   16    charge:    1.7106    magn:    0.0554    constr:    0.0000
     atom:   17    charge:    1.7228    magn:   -0.0120    constr:    0.0000
     atom:   18    charge:    1.7106    magn:    0.0554    constr:    0.0000
     atom:   19    charge:    1.7140    magn:   -0.0137    constr:    0.0000
     atom:   20    charge:    1.7155    magn:    0.0461    constr:    0.0000
     atom:   21    charge:    1.7176    magn:   -0.0174    constr:    0.0000
     atom:   22    charge:    1.7149    magn:    0.0589    constr:    0.0000
     atom:   23    charge:    1.7171    magn:   -0.0127    constr:    0.0000
     atom:   24    charge:    1.7153    magn:    0.0178    constr:    0.0000
     atom:   25    charge:    1.7140    magn:   -0.0136    constr:    0.0000
     atom:   26    charge:    1.7106    magn:    0.0553    constr:    0.0000
     atom:   27    charge:    1.8518    magn:   -0.0190    constr:    0.0000
     atom:   28    charge:   11.1427    magn:    0.4497    constr:    0.0000
     atom:   29    charge:    1.8518    magn:   -0.0190    constr:    0.0000
     atom:   30    charge:    1.7106    magn:    0.0553    constr:    0.0000
     atom:   31    charge:    1.7140    magn:   -0.0136    constr:    0.0000
     atom:   32    charge:    1.7153    magn:    0.0178    constr:    0.0000
     atom:   33    charge:    1.7177    magn:   -0.0085    constr:    0.0000
     atom:   34    charge:    1.7139    magn:    0.0123    constr:    0.0000
     atom:   35    charge:    1.7177    magn:   -0.0085    constr:    0.0000
     atom:   36    charge:    1.7142    magn:    0.0055    constr:    0.0000
     atom:   37    charge:    1.7228    magn:   -0.0119    constr:    0.0000
     atom:   38    charge:    1.7106    magn:    0.0552    constr:    0.0000
     atom:   39    charge:    1.8518    magn:   -0.0188    constr:    0.0000
     atom:   40    charge:    1.7106    magn:    0.0551    constr:    0.0000
     atom:   41    charge:    1.7228    magn:   -0.0119    constr:    0.0000
     atom:   42    charge:    1.7142    magn:    0.0055    constr:    0.0000
     atom:   43    charge:    1.7177    magn:   -0.0085    constr:    0.0000
     atom:   44    charge:    1.7139    magn:    0.0123    constr:    0.0000
     atom:   45    charge:    1.7236    magn:   -0.0046    constr:    0.0000
     atom:   46    charge:    1.7139    magn:    0.0123    constr:    0.0000
     atom:   47    charge:    1.7177    magn:   -0.0085    constr:    0.0000
     atom:   48    charge:    1.7153    magn:    0.0178    constr:    0.0000
     atom:   49    charge:    1.7140    magn:   -0.0135    constr:    0.0000
     atom:   50    charge:    1.7155    magn:    0.0460    constr:    0.0000
     atom:   51    charge:    1.7140    magn:   -0.0135    constr:    0.0000
     atom:   52    charge:    1.7153    magn:    0.0178    constr:    0.0000

     total cpu time spent up to now is     9622.3 secs

     total energy              =    -860.05423386 Ry
     Harris-Foulkes estimate   =    -860.05423285 Ry
     estimated scf accuracy    <       0.00000234 Ry

     total magnetization       =     2.00 Bohr mag/cell
     absolute magnetization    =     3.18 Bohr mag/cell

     iteration #101     ecut=    70.00 Ry     beta= 0.30
     Davidson diagonalization with overlap
     ethr =  7.92E-10,  avg # of iterations =  2.0

     negative rho (up, down):  5.385E-04 8.654E-03

     total cpu time spent up to now is     9722.3 secs

     total energy              =    -860.05423267 Ry
     Harris-Foulkes estimate   =    -860.05423438 Ry
     estimated scf accuracy    <       0.00000321 Ry

     total magnetization       =     2.00 Bohr mag/cell
     absolute magnetization    =     3.18 Bohr mag/cell

     iteration #102     ecut=    70.00 Ry     beta= 0.30
     Davidson diagonalization with overlap
     ethr =  7.92E-10,  avg # of iterations =  2.0

     negative rho (up, down):  5.386E-04 9.388E-03

     total cpu time spent up to now is     9821.3 secs

     total energy              =    -860.05423001 Ry
     Harris-Foulkes estimate   =    -860.05423303 Ry
     estimated scf accuracy    <       0.00000289 Ry

     total magnetization       =     2.00 Bohr mag/cell
     absolute magnetization    =     3.18 Bohr mag/cell

     iteration #103     ecut=    70.00 Ry     beta= 0.30
     Davidson diagonalization with overlap
     ethr =  7.92E-10,  avg # of iterations =  2.5

     negative rho (up, down):  5.387E-04 8.902E-03

     total cpu time spent up to now is     9925.7 secs

     total energy              =    -860.05423081 Ry
     Harris-Foulkes estimate   =    -860.05423142 Ry
     estimated scf accuracy    <       0.00000200 Ry

     total magnetization       =     2.00 Bohr mag/cell
     absolute magnetization    =     3.18 Bohr mag/cell

     iteration #104     ecut=    70.00 Ry     beta= 0.30
     Davidson diagonalization with overlap
     ethr =  7.92E-10,  avg # of iterations =  2.0

     negative rho (up, down):  5.386E-04 8.553E-03

     total cpu time spent up to now is    10024.4 secs

     total energy              =    -860.05423142 Ry
     Harris-Foulkes estimate   =    -860.05423124 Ry
     estimated scf accuracy    <       0.00000171 Ry

     total magnetization       =     2.00 Bohr mag/cell
     absolute magnetization    =     3.18 Bohr mag/cell

     iteration #105     ecut=    70.00 Ry     beta= 0.30
     Davidson diagonalization with overlap
     ethr =  7.92E-10,  avg # of iterations =  2.0

     negative rho (up, down):  5.384E-04 8.146E-03

     total cpu time spent up to now is    10117.4 secs

     total energy              =    -860.05423222 Ry
     Harris-Foulkes estimate   =    -860.05423154 Ry
     estimated scf accuracy    <       0.00000170 Ry

     total magnetization       =     2.00 Bohr mag/cell
     absolute magnetization    =     3.18 Bohr mag/cell

     iteration #106     ecut=    70.00 Ry     beta= 0.30
     Davidson diagonalization with overlap
     ethr =  7.92E-10,  avg # of iterations =  2.0

     negative rho (up, down):  5.385E-04 8.302E-03

     total cpu time spent up to now is    10210.0 secs

     total energy              =    -860.05423141 Ry
     Harris-Foulkes estimate   =    -860.05423235 Ry
     estimated scf accuracy    <       0.00000205 Ry

     total magnetization       =     2.00 Bohr mag/cell
     absolute magnetization    =     3.18 Bohr mag/cell

     iteration #107     ecut=    70.00 Ry     beta= 0.30
     Davidson diagonalization with overlap
     ethr =  7.92E-10,  avg # of iterations =  2.0

     negative rho (up, down):  5.388E-04 8.823E-03

     total cpu time spent up to now is    10307.6 secs

     total energy              =    -860.05423051 Ry
     Harris-Foulkes estimate   =    -860.05423176 Ry
     estimated scf accuracy    <       0.00000172 Ry

     total magnetization       =     2.00 Bohr mag/cell
     absolute magnetization    =     3.18 Bohr mag/cell

     iteration #108     ecut=    70.00 Ry     beta= 0.30
     Davidson diagonalization with overlap
     ethr =  7.92E-10,  avg # of iterations =  3.0

     negative rho (up, down):  5.384E-04 8.206E-03

     total cpu time spent up to now is    10407.0 secs

     total energy              =    -860.05423199 Ry
     Harris-Foulkes estimate   =    -860.05423121 Ry
     estimated scf accuracy    <       0.00000114 Ry

     total magnetization       =     2.00 Bohr mag/cell
     absolute magnetization    =     3.18 Bohr mag/cell

     iteration #109     ecut=    70.00 Ry     beta= 0.30
     Davidson diagonalization with overlap
     ethr =  5.31E-10,  avg # of iterations =  2.0

     negative rho (up, down):  5.387E-04 8.559E-03

     total cpu time spent up to now is    10498.8 secs

     total energy              =    -860.05423042 Ry
     Harris-Foulkes estimate   =    -860.05423207 Ry
     estimated scf accuracy    <       0.00000134 Ry

     total magnetization       =     2.00 Bohr mag/cell
     absolute magnetization    =     3.18 Bohr mag/cell

     iteration #110     ecut=    70.00 Ry     beta= 0.30
     Davidson diagonalization with overlap
     ethr =  5.31E-10,  avg # of iterations =  2.0

     negative rho (up, down):  5.375E-04 7.547E-03

     Magnetic moment per site:
     atom:    1    charge:    0.2107    magn:   -0.0000    constr:    0.0000
     atom:    2    charge:    0.2119    magn:   -0.0000    constr:    0.0000
     atom:    3    charge:    1.7171    magn:   -0.0127    constr:    0.0000
     atom:    4    charge:    1.7153    magn:    0.0179    constr:    0.0000
     atom:    5    charge:    1.7177    magn:   -0.0086    constr:    0.0000
     atom:    6    charge:    1.7142    magn:    0.0056    constr:    0.0000
     atom:    7    charge:    1.7177    magn:   -0.0086    constr:    0.0000
     atom:    8    charge:    1.7153    magn:    0.0179    constr:    0.0000
     atom:    9    charge:    1.7171    magn:   -0.0127    constr:    0.0000
     atom:   10    charge:    1.7149    magn:    0.0589    constr:    0.0000
     atom:   11    charge:    1.7176    magn:   -0.0173    constr:    0.0000
     atom:   12    charge:    1.7149    magn:    0.0589    constr:    0.0000
     atom:   13    charge:    1.7176    magn:   -0.0174    constr:    0.0000
     atom:   14    charge:    1.7155    magn:    0.0461    constr:    0.0000
     atom:   15    charge:    1.7140    magn:   -0.0137    constr:    0.0000
     atom:   16    charge:    1.7106    magn:    0.0555    constr:    0.0000
     atom:   17    charge:    1.7228    magn:   -0.0121    constr:    0.0000
     atom:   18    charge:    1.7106    magn:    0.0555    constr:    0.0000
     atom:   19    charge:    1.7140    magn:   -0.0137    constr:    0.0000
     atom:   20    charge:    1.7155    magn:    0.0461    constr:    0.0000
     atom:   21    charge:    1.7176    magn:   -0.0174    constr:    0.0000
     atom:   22    charge:    1.7149    magn:    0.0589    constr:    0.0000
     atom:   23    charge:    1.7171    magn:   -0.0127    constr:    0.0000
     atom:   24    charge:    1.7153    magn:    0.0178    constr:    0.0000
     atom:   25    charge:    1.7140    magn:   -0.0137    constr:    0.0000
     atom:   26    charge:    1.7106    magn:    0.0554    constr:    0.0000
     atom:   27    charge:    1.8518    magn:   -0.0192    constr:    0.0000
     atom:   28    charge:   11.1426    magn:    0.4510    constr:    0.0000
     atom:   29    charge:    1.8518    magn:   -0.0193    constr:    0.0000
     atom:   30    charge:    1.7106    magn:    0.0554    constr:    0.0000
     atom:   31    charge:    1.7140    magn:   -0.0137    constr:    0.0000
     atom:   32    charge:    1.7153    magn:    0.0178    constr:    0.0000
     atom:   33    charge:    1.7177    magn:   -0.0086    constr:    0.0000
     atom:   34    charge:    1.7139    magn:    0.0124    constr:    0.0000
     atom:   35    charge:    1.7177    magn:   -0.0086    constr:    0.0000
     atom:   36    charge:    1.7142    magn:    0.0056    constr:    0.0000
     atom:   37    charge:    1.7228    magn:   -0.0120    constr:    0.0000
     atom:   38    charge:    1.7106    magn:    0.0553    constr:    0.0000
     atom:   39    charge:    1.8519    magn:   -0.0191    constr:    0.0000
     atom:   40    charge:    1.7106    magn:    0.0553    constr:    0.0000
     atom:   41    charge:    1.7228    magn:   -0.0120    constr:    0.0000
     atom:   42    charge:    1.7142    magn:    0.0056    constr:    0.0000
     atom:   43    charge:    1.7177    magn:   -0.0086    constr:    0.0000
     atom:   44    charge:    1.7139    magn:    0.0124    constr:    0.0000
     atom:   45    charge:    1.7236    magn:   -0.0049    constr:    0.0000
     atom:   46    charge:    1.7139    magn:    0.0124    constr:    0.0000
     atom:   47    charge:    1.7177    magn:   -0.0086    constr:    0.0000
     atom:   48    charge:    1.7153    magn:    0.0178    constr:    0.0000
     atom:   49    charge:    1.7140    magn:   -0.0136    constr:    0.0000
     atom:   50    charge:    1.7155    magn:    0.0460    constr:    0.0000
     atom:   51    charge:    1.7140    magn:   -0.0136    constr:    0.0000
     atom:   52    charge:    1.7153    magn:    0.0178    constr:    0.0000

     total cpu time spent up to now is    10599.6 secs

     End of self-consistent calculation

 ------ SPIN UP ------------


          k = 0.0000 0.0000 0.0000 ( 87777 PWs)   bands (ev):

   -88.6916 -55.5800 -55.5798 -53.8644 -19.8879 -19.0531 -19.0528 -18.9667
   -18.9282 -18.9281 -18.5846 -17.1778 -17.1778 -17.1777 -17.1062 -17.1061
   -16.8007 -16.3314 -16.3313 -16.2300 -16.1780 -16.1778 -15.4864 -14.2337
   -14.2335 -14.1481 -14.1011 -14.1010 -13.4328 -13.1652 -13.1651 -13.1408
   -12.8606 -12.8605 -12.4518 -11.9439 -11.9439 -11.7558 -11.5084 -11.5083
   -10.6271  -9.7936  -9.7936  -9.5308  -9.4218  -9.4218  -9.3390  -9.3078
    -9.3078  -9.2951  -8.8287  -8.8287  -8.2854  -8.2854  -8.1969  -8.0355
    -7.9373  -7.5480  -7.5480  -7.3410  -7.2248  -7.2241  -7.0804  -7.0803
    -6.9471  -6.9234  -6.9233  -6.8125  -6.6699  -6.6698  -6.6395  -6.6269
    -6.6268  -6.5859  -6.5800  -6.2780  -5.7360  -5.7359  -5.6705  -5.6699
    -5.4814  -5.4814  -5.2755  -5.0925  -4.9822  -4.8451  -4.8191  -4.8189
    -4.5341  -4.5339  -4.5043  -4.3367  -4.3366  -3.9819  -3.9817  -3.8951
    -3.7859  -3.7859  -3.2101  -2.8964  -2.8963  -1.9779  -1.9076  -1.9075
    -1.3008  -1.3004  -1.0614  -0.8913   0.8194   0.8673   0.8675   1.3954
     1.3958   1.5053   2.3855   2.3866   2.5221   2.6618   2.6618   2.7612
     3.2960   3.2967   3.4169   3.6584   3.6732   3.7229   3.7490   3.8852

     occupation numbers 
     1.0000   1.0000   1.0000   1.0000   1.0000   1.0000   1.0000   1.0000
     1.0000   1.0000   1.0000   1.0000   1.0000   1.0000   1.0000   1.0000
     1.0000   1.0000   1.0000   1.0000   1.0000   1.0000   1.0000   1.0000
     1.0000   1.0000   1.0000   1.0000   1.0000   1.0000   1.0000   1.0000
     1.0000   1.0000   1.0000   1.0000   1.0000   1.0000   1.0000   1.0000
     1.0000   1.0000   1.0000   1.0000   1.0000   1.0000   1.0000   1.0000
     1.0000   1.0000   1.0000   1.0000   1.0000   1.0000   1.0000   1.0000
     1.0000   1.0000   1.0000   1.0000   1.0000   1.0000   1.0000   1.0000
     1.0000   1.0000   1.0000   1.0000   1.0000   1.0000   1.0000   1.0000
     1.0000   1.0000   1.0000   1.0000   1.0000   1.0000   1.0000   1.0000
     1.0000   1.0000   1.0000   1.0000   1.0000   1.0000   1.0000   1.0000
     1.0000   1.0000   1.0000   1.0000   1.0000   1.0000   1.0000   1.0000
     1.0000   1.0000   1.0000   1.0000   1.0000   1.0000   1.0000   1.0000
     1.0000   1.0000   1.0000   1.0000   0.0000   0.0000   0.0000   0.0000
     0.0000   0.0000   0.0000   0.0000   0.0000   0.0000   0.0000   0.0000
     0.0000   0.0000   0.0000   0.0000   0.0000   0.0000   0.0000   0.0000

 ------ SPIN DOWN ----------


          k = 0.0000 0.0000 0.0000 ( 87777 PWs)   bands (ev):

   -87.9757 -54.9967 -54.9963 -52.9758 -19.8459 -19.0066 -19.0063 -18.9269
   -18.9019 -18.9018 -18.5255 -17.1502 -17.1414 -17.1413 -17.0523 -17.0522
   -16.7704 -16.2859 -16.2859 -16.1958 -16.1345 -16.1344 -15.4617 -14.1625
   -14.1624 -14.0911 -14.0910 -14.0856 -13.4389 -13.1403 -13.1403 -13.1084
   -12.8416 -12.8416 -12.4210 -11.9064 -11.9063 -11.7328 -11.4863 -11.4862
   -10.6041  -9.7451  -9.7450  -9.4992  -9.3897  -9.3897  -9.3218  -9.2843
    -9.2843  -9.2770  -8.8162  -8.8161  -8.2501  -8.2501  -8.1774  -7.9378
    -7.9203  -7.5334  -7.5333  -7.3090  -7.0603  -7.0595  -7.0345  -7.0344
    -6.8640  -6.8639  -6.8470  -6.7972  -6.6534  -6.6533  -6.6289  -6.6133
    -6.6132  -6.5620  -6.4508  -6.2763  -5.6908  -5.6907  -5.4396  -5.4396
    -5.4364  -5.4359  -5.1964  -5.0787  -4.9725  -4.7704  -4.7264  -4.7263
    -4.4514  -4.4512  -4.4305  -4.2107  -4.2106  -3.8473  -3.8469  -3.7979
    -3.7712  -3.7712  -3.1659  -2.6661  -2.6660  -1.8804  -1.8803  -1.8166
    -0.9047  -0.8530  -0.7933  -0.7926   0.9145   0.9146   0.9767   1.5514
     1.5515   1.6283   2.5318   2.5328   2.5364   2.8031   2.8034   2.8359
     3.4536   3.4546   3.5081   3.6761   3.6887   3.7344   3.7545   3.8975

     occupation numbers 
     1.0000   1.0000   1.0000   1.0000   1.0000   1.0000   1.0000   1.0000
     1.0000   1.0000   1.0000   1.0000   1.0000   1.0000   1.0000   1.0000
     1.0000   1.0000   1.0000   1.0000   1.0000   1.0000   1.0000   1.0000
     1.0000   1.0000   1.0000   1.0000   1.0000   1.0000   1.0000   1.0000
     1.0000   1.0000   1.0000   1.0000   1.0000   1.0000   1.0000   1.0000
     1.0000   1.0000   1.0000   1.0000   1.0000   1.0000   1.0000   1.0000
     1.0000   1.0000   1.0000   1.0000   1.0000   1.0000   1.0000   1.0000
     1.0000   1.0000   1.0000   1.0000   1.0000   1.0000   1.0000   1.0000
     1.0000   1.0000   1.0000   1.0000   1.0000   1.0000   1.0000   1.0000
     1.0000   1.0000   1.0000   1.0000   1.0000   1.0000   1.0000   1.0000
     1.0000   1.0000   1.0000   1.0000   1.0000   1.0000   1.0000   1.0000
     1.0000   1.0000   1.0000   1.0000   1.0000   1.0000   1.0000   1.0000
     1.0000   1.0000   1.0000   1.0000   1.0000   1.0000   1.0000   1.0000
     1.0000   1.0000   0.0000   0.0000   0.0000   0.0000   0.0000   0.0000
     0.0000   0.0000   0.0000   0.0000   0.0000   0.0000   0.0000   0.0000
     0.0000   0.0000   0.0000   0.0000   0.0000   0.0000   0.0000   0.0000

     the Fermi energy is    -0.8404 ev

!    total energy              =    -860.05423234 Ry
     Harris-Foulkes estimate   =    -860.05423090 Ry
     estimated scf accuracy    <       0.00000092 Ry

     The total energy is the sum of the following terms:

     one-electron contribution =   -2780.29294697 Ry
     hartree contribution      =    1433.93470019 Ry
     xc contribution           =    -259.29932648 Ry
     ewald contribution        =     745.60325928 Ry
     smearing contrib. (-TS)   =       0.00008164 Ry

     total magnetization       =     2.00 Bohr mag/cell
     absolute magnetization    =     3.18 Bohr mag/cell

     convergence has been achieved in 110 iterations

     Writing output data file distance-4.0.save/

     init_run     :     74.97s CPU     76.31s WALL (       1 calls)
     electrons    :  10317.56s CPU  10522.36s WALL (       1 calls)

     Called by init_run:
     wfcinit      :     40.65s CPU     40.94s WALL (       1 calls)
     wfcinit:atom :      0.05s CPU      0.08s WALL (       2 calls)
     wfcinit:wfcr :     40.30s CPU     40.48s WALL (       2 calls)
     potinit      :     14.07s CPU     14.52s WALL (       1 calls)
     hinit0       :     12.08s CPU     12.12s WALL (       1 calls)

     Called by electrons:
     c_bands      :   6547.99s CPU   6588.23s WALL (     110 calls)
     sum_band     :   2187.78s CPU   2249.94s WALL (     110 calls)
     v_of_rho     :    774.41s CPU    819.31s WALL (     111 calls)
     v_h          :      8.22s CPU      8.42s WALL (     111 calls)
     v_xc         :    766.18s CPU    810.89s WALL (     111 calls)
     newd         :    756.05s CPU    813.21s WALL (     111 calls)
     mix_rho      :     40.66s CPU     41.32s WALL (     110 calls)

     Called by c_bands:
     init_us_2    :     19.55s CPU     19.62s WALL (     442 calls)
     cegterg      :   6491.63s CPU   6531.59s WALL (     220 calls)

     Called by sum_band:
     sum_band:bec :      0.17s CPU      0.18s WALL (     220 calls)
     addusdens    :   1340.14s CPU   1396.89s WALL (     110 calls)

     Called by *egterg:
     h_psi        :   3417.78s CPU   3445.05s WALL (     723 calls)
     s_psi        :   1160.17s CPU   1160.72s WALL (     723 calls)
     g_psi        :      3.60s CPU      3.61s WALL (     501 calls)
     cdiaghg      :     44.66s CPU     44.69s WALL (     721 calls)
     cegterg:over :    755.24s CPU    755.60s WALL (     501 calls)
     cegterg:upda :    451.80s CPU    455.14s WALL (     501 calls)
     cegterg:last :    342.50s CPU    342.59s WALL (     220 calls)

     Called by h_psi:
     h_psi:pot    :   3413.96s CPU   3436.70s WALL (     723 calls)
     h_psi:calbec :   1154.90s CPU   1155.53s WALL (     723 calls)
     vloc_psi     :   1097.19s CPU   1118.93s WALL (     723 calls)
     add_vuspsi   :   1161.85s CPU   1162.24s WALL (     723 calls)

     General routines
     calbec       :   1672.66s CPU   1673.59s WALL (     943 calls)
     fft          :    446.53s CPU    463.24s WALL (    8319 calls)
     ffts         :      7.63s CPU      7.91s WALL (     442 calls)
     fftw         :   1178.70s CPU   1202.55s WALL (  154116 calls)
     interpolate  :     18.13s CPU     18.64s WALL (     222 calls)

     Parallel routines
     fft_scatt_xy :    282.63s CPU    287.12s WALL (  162877 calls)
     fft_scatt_yz :    559.53s CPU    587.30s WALL (  162877 calls)

     PWSCF        :      2h53m CPU      2h56m WALL


   This run was terminated on:  19:44: 1   6Nov2022            

=------------------------------------------------------------------------------=
   JOB DONE.
=------------------------------------------------------------------------------=
