
     Program PWSCF v.6.4.1 starts on  7Nov2022 at 12:52:35 

     This program is part of the open-source Quantum ESPRESSO suite
     for quantum simulation of materials; please cite
         "P. Giannozzi et al., J. Phys.:Condens. Matter 21 395502 (2009);
         "P. Giannozzi et al., J. Phys.:Condens. Matter 29 465901 (2017);
          URL http://www.quantum-espresso.org", 
     in publications or presentations arising from this work. More details at
     http://www.quantum-espresso.org/quote

     Parallel version (MPI), running on     6 processors

     MPI processes distributed on     1 nodes
     R & G space division:  proc/nbgrp/npool/nimage =       6
     Reading input from distance-2.2.in

     Current dimensions of program PWSCF are:
     Max number of different atomic species (ntypx) = 10
     Max number of k-points (npk) =  40000
     Max angular momentum in pseudopotentials (lmaxx) =  3

     IMPORTANT: XC functional enforced from input :
     Exchange-correlation      = RVV10 ( 1  4 13  4 3 0)
     Any further DFT definition will be discarded
     Please, verify this is what you really want

               file H.pbe-rrkjus.UPF: wavefunction(s)  1S renormalized

     Subspace diagonalization in iterative solution of the eigenvalue problem:
     a serial algorithm will be used


     Parallelization info
     --------------------
     sticks:   dense  smooth     PW     G-vecs:    dense   smooth      PW
     Min        3051    1746    432               270999   117096   14629
     Max        3053    1747    437               271001   117099   14630
     Sum       18313   10477   2611              1626001   702581   87777



     bravais-lattice index     =            4
     lattice parameter (alat)  =      23.2937  a.u.
     unit-cell volume          =    8879.8548 (a.u.)^3
     number of atoms/cell      =           52
     number of atomic types    =            3
     number of electrons       =       214.00
     number of Kohn-Sham states=          128
     kinetic-energy cutoff     =      70.0000  Ry
     charge density cutoff     =     490.0000  Ry
     convergence threshold     =      1.0E-06
     mixing beta               =       0.3000
     number of iterations used =            4  plain     mixing
     Exchange-correlation      = RVV10 ( 1  4 13  4 3 0)

     celldm(1)=  23.293684  celldm(2)=   0.000000  celldm(3)=   0.811261
     celldm(4)=   0.000000  celldm(5)=   0.000000  celldm(6)=   0.000000

     crystal axes: (cart. coord. in units of alat)
               a(1) = (   1.000000   0.000000   0.000000 )  
               a(2) = (  -0.500000   0.866025   0.000000 )  
               a(3) = (   0.000000   0.000000   0.811261 )  

     reciprocal axes: (cart. coord. in units 2 pi/alat)
               b(1) = (  1.000000  0.577350 -0.000000 )  
               b(2) = (  0.000000  1.154701  0.000000 )  
               b(3) = (  0.000000 -0.000000  1.232649 )  


     PseudoPot. # 1 for H  read from file:
     /home/cristian/Escritorio/Proyecto_Grafeno/pseudopotenciales/H.pbe-rrkjus.UPF
     MD5 check sum: 7cc9d459525c9a0585f487a71c3c9563
     Pseudo is Ultrasoft, Zval =  1.0
     Generated by new atomic code, or converted to UPF format
     Using radial grid of 1061 points,  2 beta functions with: 
                l(1) =   0
                l(2) =   0
     Q(r) pseudized with 0 coefficients 


     PseudoPot. # 2 for C  read from file:
     /home/cristian/Escritorio/Proyecto_Grafeno/pseudopotenciales/C.pbe-n-rrkjus_psl.1.0.0.UPF
     MD5 check sum: 1fdd950c42eb37d8afe3dd2f8d12311e
     Pseudo is Ultrasoft + core correction, Zval =  4.0
     Generated using "atomic" code by A. Dal Corso v.6.3MaX
     Using radial grid of 1073 points,  4 beta functions with: 
                l(1) =   0
                l(2) =   0
                l(3) =   1
                l(4) =   1
     Q(r) pseudized with 0 coefficients 


     PseudoPot. # 3 for Fe read from file:
     /home/cristian/Escritorio/Proyecto_Grafeno/pseudopotenciales/Fe.pbe-spn-rrkjus_psl.1.0.0.UPF
     MD5 check sum: 72ea77fed8e64ab3a2ccf2804dfc1862
     Pseudo is Ultrasoft + core correction, Zval = 16.0
     Generated using "atomic" code by A. Dal Corso v.6.3
     Using radial grid of 1191 points,  6 beta functions with: 
                l(1) =   0
                l(2) =   0
                l(3) =   1
                l(4) =   1
                l(5) =   2
                l(6) =   2
     Q(r) pseudized with 0 coefficients 


     vdW kernel table read from file rVV10_kernel_table
     MD5 check sum: b8e2538accc0c0b3206b45ba4daaba6c

     atomic species   valence    mass     pseudopotential
        H              1.00     1.00794     H ( 1.00)
        C              4.00    12.01070     C ( 1.00)
        Fe            16.00    55.84500     Fe( 1.00)

     Starting magnetic structure 
     atomic species   magnetization
        H            0.500
        C            0.300
        Fe           0.800

     No symmetry found


                                    s                        frac. trans.

      isym =  1     identity                                     

 cryst.   s( 1) = (     1          0          0      )
                  (     0          1          0      )
                  (     0          0          1      )

 cart.    s( 1) = (  1.0000000  0.0000000  0.0000000 )
                  (  0.0000000  1.0000000  0.0000000 )
                  (  0.0000000  0.0000000  1.0000000 )


     point group C_1 (1)    
     there are  1 classes
     the character table:

       E    
A      1.00

     the symmetry operations in each class and the name of the first element:

     E        1
          identity                                               

   Cartesian axes

     site n.     atom                  positions (alat units)
         1           H   tau(   1) = (   0.2500000   0.4907477   0.1784775  )
         2           H   tau(   2) = (   0.2500000   0.4907477   0.2394901  )
         3           C   tau(   3) = (   0.0000000   0.0000000   0.0000000  )
         4           C   tau(   4) = (   0.0000000   0.1154701   0.0000000  )
         5           C   tau(   5) = (  -0.1000000   0.1732051   0.0000000  )
         6           C   tau(   6) = (  -0.1000000   0.2886751   0.0000000  )
         7           C   tau(   7) = (  -0.2000000   0.3464102   0.0000000  )
         8           C   tau(   8) = (  -0.2000000   0.4618802   0.0000000  )
         9           C   tau(   9) = (  -0.3000000   0.5196152   0.0000000  )
        10           C   tau(  10) = (  -0.3000000   0.6350853   0.0000000  )
        11           C   tau(  11) = (  -0.4000000   0.6928203   0.0000000  )
        12           C   tau(  12) = (  -0.4000000   0.8082904   0.0000000  )
        13           C   tau(  13) = (   0.2000000   0.0000000   0.0000000  )
        14           C   tau(  14) = (   0.2000000   0.1154701   0.0000000  )
        15           C   tau(  15) = (   0.1000000   0.1732051   0.0000000  )
        16           C   tau(  16) = (   0.1000000   0.2886751   0.0000000  )
        17           C   tau(  17) = (   0.0000000   0.3464102   0.0000000  )
        18           C   tau(  18) = (   0.0000000   0.4618802   0.0000000  )
        19           C   tau(  19) = (  -0.1000000   0.5196152   0.0000000  )
        20           C   tau(  20) = (  -0.1000000   0.6350853   0.0000000  )
        21           C   tau(  21) = (  -0.2000000   0.6928203   0.0000000  )
        22           C   tau(  22) = (  -0.2000000   0.8082904   0.0000000  )
        23           C   tau(  23) = (   0.4000000   0.0000000   0.0000000  )
        24           C   tau(  24) = (   0.4000000   0.1154701   0.0000000  )
        25           C   tau(  25) = (   0.3000000   0.1732051   0.0000000  )
        26           C   tau(  26) = (   0.3000000   0.2886751   0.0000000  )
        27           C   tau(  27) = (   0.2000000   0.3464102   0.0000000  )
        28           Fe  tau(  28) = (   0.2000000   0.4618802   0.0000000  )
        29           C   tau(  29) = (   0.1000000   0.5196152   0.0000000  )
        30           C   tau(  30) = (   0.1000000   0.6350853   0.0000000  )
        31           C   tau(  31) = (   0.0000000   0.6928203   0.0000000  )
        32           C   tau(  32) = (   0.0000000   0.8082904   0.0000000  )
        33           C   tau(  33) = (   0.6000000   0.0000000   0.0000000  )
        34           C   tau(  34) = (   0.6000000   0.1154701   0.0000000  )
        35           C   tau(  35) = (   0.5000000   0.1732051   0.0000000  )
        36           C   tau(  36) = (   0.5000000   0.2886751   0.0000000  )
        37           C   tau(  37) = (   0.4000000   0.3464102   0.0000000  )
        38           C   tau(  38) = (   0.4000000   0.4618802   0.0000000  )
        39           C   tau(  39) = (   0.3000000   0.5196152   0.0000000  )
        40           C   tau(  40) = (   0.3000000   0.6350853   0.0000000  )
        41           C   tau(  41) = (   0.2000000   0.6928203   0.0000000  )
        42           C   tau(  42) = (   0.2000000   0.8082904   0.0000000  )
        43           C   tau(  43) = (   0.8000000   0.0000000   0.0000000  )
        44           C   tau(  44) = (   0.8000000   0.1154701   0.0000000  )
        45           C   tau(  45) = (   0.7000000   0.1732051   0.0000000  )
        46           C   tau(  46) = (   0.7000000   0.2886751   0.0000000  )
        47           C   tau(  47) = (   0.6000000   0.3464102   0.0000000  )
        48           C   tau(  48) = (   0.6000000   0.4618802   0.0000000  )
        49           C   tau(  49) = (   0.5000000   0.5196152   0.0000000  )
        50           C   tau(  50) = (   0.5000000   0.6350853   0.0000000  )
        51           C   tau(  51) = (   0.4000000   0.6928203   0.0000000  )
        52           C   tau(  52) = (   0.4000000   0.8082904   0.0000000  )

   Crystallographic axes

     site n.     atom                  positions (cryst. coord.)
         1           H   tau(   1) = (  0.5333333  0.5666667  0.2200000  )
         2           H   tau(   2) = (  0.5333333  0.5666667  0.2952072  )
         3           C   tau(   3) = (  0.0000000  0.0000000  0.0000000  )
         4           C   tau(   4) = (  0.0666667  0.1333333  0.0000000  )
         5           C   tau(   5) = (  0.0000000  0.2000000  0.0000000  )
         6           C   tau(   6) = (  0.0666667  0.3333333  0.0000000  )
         7           C   tau(   7) = (  0.0000000  0.4000000  0.0000000  )
         8           C   tau(   8) = (  0.0666667  0.5333333  0.0000000  )
         9           C   tau(   9) = (  0.0000000  0.6000000  0.0000000  )
        10           C   tau(  10) = (  0.0666667  0.7333333  0.0000000  )
        11           C   tau(  11) = (  0.0000000  0.8000000  0.0000000  )
        12           C   tau(  12) = (  0.0666667  0.9333333  0.0000000  )
        13           C   tau(  13) = (  0.2000000  0.0000000  0.0000000  )
        14           C   tau(  14) = (  0.2666667  0.1333333  0.0000000  )
        15           C   tau(  15) = (  0.2000000  0.2000000  0.0000000  )
        16           C   tau(  16) = (  0.2666667  0.3333333  0.0000000  )
        17           C   tau(  17) = (  0.2000000  0.4000000  0.0000000  )
        18           C   tau(  18) = (  0.2666667  0.5333333  0.0000000  )
        19           C   tau(  19) = (  0.2000000  0.6000000  0.0000000  )
        20           C   tau(  20) = (  0.2666667  0.7333333  0.0000000  )
        21           C   tau(  21) = (  0.2000000  0.8000000  0.0000000  )
        22           C   tau(  22) = (  0.2666667  0.9333333  0.0000000  )
        23           C   tau(  23) = (  0.4000000  0.0000000  0.0000000  )
        24           C   tau(  24) = (  0.4666667  0.1333333  0.0000000  )
        25           C   tau(  25) = (  0.4000000  0.2000000  0.0000000  )
        26           C   tau(  26) = (  0.4666667  0.3333333  0.0000000  )
        27           C   tau(  27) = (  0.4000000  0.4000000  0.0000000  )
        28           Fe  tau(  28) = (  0.4666667  0.5333333  0.0000000  )
        29           C   tau(  29) = (  0.4000000  0.6000000  0.0000000  )
        30           C   tau(  30) = (  0.4666667  0.7333333  0.0000000  )
        31           C   tau(  31) = (  0.4000000  0.8000000  0.0000000  )
        32           C   tau(  32) = (  0.4666667  0.9333333  0.0000000  )
        33           C   tau(  33) = (  0.6000000  0.0000000  0.0000000  )
        34           C   tau(  34) = (  0.6666667  0.1333333  0.0000000  )
        35           C   tau(  35) = (  0.6000000  0.2000000  0.0000000  )
        36           C   tau(  36) = (  0.6666667  0.3333333  0.0000000  )
        37           C   tau(  37) = (  0.6000000  0.4000000  0.0000000  )
        38           C   tau(  38) = (  0.6666667  0.5333333  0.0000000  )
        39           C   tau(  39) = (  0.6000000  0.6000000  0.0000000  )
        40           C   tau(  40) = (  0.6666667  0.7333333  0.0000000  )
        41           C   tau(  41) = (  0.6000000  0.8000000  0.0000000  )
        42           C   tau(  42) = (  0.6666667  0.9333333  0.0000000  )
        43           C   tau(  43) = (  0.8000000  0.0000000  0.0000000  )
        44           C   tau(  44) = (  0.8666667  0.1333333  0.0000000  )
        45           C   tau(  45) = (  0.8000000  0.2000000  0.0000000  )
        46           C   tau(  46) = (  0.8666667  0.3333333  0.0000000  )
        47           C   tau(  47) = (  0.8000000  0.4000000  0.0000000  )
        48           C   tau(  48) = (  0.8666667  0.5333333  0.0000000  )
        49           C   tau(  49) = (  0.8000000  0.6000000  0.0000000  )
        50           C   tau(  50) = (  0.8666667  0.7333333  0.0000000  )
        51           C   tau(  51) = (  0.8000000  0.8000000  0.0000000  )
        52           C   tau(  52) = (  0.8666667  0.9333333  0.0000000  )

     number of k points=     1  Marzari-Vanderbilt smearing, width (Ry)=  0.0010
                       cart. coord. in units 2pi/alat
        k(    1) = (   0.0000000   0.0000000   0.0000000), wk =   1.0000000

                       cryst. coord.
        k(    1) = (   0.0000000   0.0000000   0.0000000), wk =   1.0000000

     Dense  grid:  1626001 G-vectors     FFT dimensions: ( 180, 180, 135)

     Smooth grid:   702581 G-vectors     FFT dimensions: ( 125, 125, 108)

     Dynamical RAM for                 wfc:      28.59 MB

     Dynamical RAM for     wfc (w. buffer):      85.76 MB

     Dynamical RAM for           str. fact:      12.41 MB

     Dynamical RAM for           local pot:       0.00 MB

     Dynamical RAM for          nlocal pot:      92.46 MB

     Dynamical RAM for                qrad:      19.73 MB

     Dynamical RAM for          rho,v,vnew:      58.92 MB

     Dynamical RAM for               rhoin:      19.64 MB

     Dynamical RAM for            rho*nmix:      66.16 MB

     Dynamical RAM for           G-vectors:      16.40 MB

     Dynamical RAM for          h,s,v(r/c):      12.00 MB

     Dynamical RAM for          <psi|beta>:       0.81 MB

     Dynamical RAM for                 psi:     114.35 MB

     Dynamical RAM for                hpsi:     114.35 MB

     Dynamical RAM for                spsi:     114.35 MB

     Dynamical RAM for      wfcinit/wfcrot:      93.90 MB

     Dynamical RAM for           addusdens:     975.89 MB

     Estimated static dynamical RAM per process >     422.14 MB

     Estimated max dynamical RAM per process >       1.37 GB

     Estimated total dynamical RAM >       8.19 GB
     Generating pointlists ...
     new r_m :   0.0252 (alat units)  0.5862 (a.u.) for type    1
     new r_m :   0.0476 (alat units)  1.1095 (a.u.) for type    2
     new r_m :   0.0476 (alat units)  1.1095 (a.u.) for type    3

     Check: negative core charge=   -0.000002

     Initial potential from superposition of free atoms

     starting charge  213.80512, renormalised to  214.00000

     negative rho (up, down):  6.439E-05 1.239E-02


---------------------------------------------------------------------------------
Carrying out rVV10 run using the following parameters:
Nqs =      20    Nr_points =    1024   r_max =   100.000
b_value =  6.30000    beta =  0.00901
     q_mesh =  0.00010000  0.00030000  0.00058939  0.00100810
               0.00161396  0.00249058  0.00375900  0.00559430
               0.00824984  0.01209221  0.01765183  0.02569619
               0.03733578  0.05417739  0.07854596  0.11380545
               0.16482331  0.23864234  0.34545298  0.50000000

Gradients computed in Reciprocal space

---------------------------------------------------------------------------------


     Starting wfcs are  208 randomized atomic wfcs

     total cpu time spent up to now is       72.4 secs

     Self-consistent Calculation

     iteration #  1     ecut=    70.00 Ry     beta= 0.30
     Davidson diagonalization with overlap
     ethr =  1.00E-02,  avg # of iterations =  2.5

     negative rho (up, down):  8.361E-05 1.239E-02

     total cpu time spent up to now is      198.7 secs

     total energy              =    -857.94134365 Ry
     Harris-Foulkes estimate   =    -858.67138597 Ry
     estimated scf accuracy    <      10.53546603 Ry

     total magnetization       =     6.00 Bohr mag/cell
     absolute magnetization    =     6.62 Bohr mag/cell

     iteration #  2     ecut=    70.00 Ry     beta= 0.30
     Davidson diagonalization with overlap
     ethr =  4.92E-03,  avg # of iterations =  2.0

     negative rho (up, down):  1.140E-04 1.330E-02

     total cpu time spent up to now is      289.5 secs

     total energy              =    -858.34600035 Ry
     Harris-Foulkes estimate   =    -858.71379608 Ry
     estimated scf accuracy    <       5.43377955 Ry

     total magnetization       =     4.00 Bohr mag/cell
     absolute magnetization    =     5.62 Bohr mag/cell

     iteration #  3     ecut=    70.00 Ry     beta= 0.30
     Davidson diagonalization with overlap
     ethr =  2.54E-03,  avg # of iterations =  2.5

     negative rho (up, down):  2.063E-04 2.438E-02

     total cpu time spent up to now is      383.2 secs

     total energy              =    -858.63139615 Ry
     Harris-Foulkes estimate   =    -859.49036600 Ry
     estimated scf accuracy    <       9.14220670 Ry

     total magnetization       =     6.00 Bohr mag/cell
     absolute magnetization    =     6.18 Bohr mag/cell

     iteration #  4     ecut=    70.00 Ry     beta= 0.30
     Davidson diagonalization with overlap
     ethr =  2.54E-03,  avg # of iterations =  4.5

     negative rho (up, down):  2.702E-04 3.632E-02

     total cpu time spent up to now is      476.9 secs

     total energy              =    -859.81050790 Ry
     Harris-Foulkes estimate   =    -859.59337182 Ry
     estimated scf accuracy    <       1.04127986 Ry

     total magnetization       =     2.00 Bohr mag/cell
     absolute magnetization    =     3.57 Bohr mag/cell

     iteration #  5     ecut=    70.00 Ry     beta= 0.30
     Davidson diagonalization with overlap
     ethr =  4.87E-04,  avg # of iterations = 12.5

     negative rho (up, down):  3.246E-04 4.286E-02

     total cpu time spent up to now is      579.8 secs

     total energy              =    -859.96679327 Ry
     Harris-Foulkes estimate   =    -859.91679501 Ry
     estimated scf accuracy    <       0.43439594 Ry

     total magnetization       =     2.00 Bohr mag/cell
     absolute magnetization    =     2.99 Bohr mag/cell

     iteration #  6     ecut=    70.00 Ry     beta= 0.30
     Davidson diagonalization with overlap
     ethr =  2.03E-04,  avg # of iterations =  1.5

     negative rho (up, down):  4.257E-04 5.890E-02

     total cpu time spent up to now is      671.0 secs

     total energy              =    -860.01556337 Ry
     Harris-Foulkes estimate   =    -860.00128932 Ry
     estimated scf accuracy    <       0.14083623 Ry

     total magnetization       =     2.00 Bohr mag/cell
     absolute magnetization    =     2.85 Bohr mag/cell

     iteration #  7     ecut=    70.00 Ry     beta= 0.30
     Davidson diagonalization with overlap
     ethr =  6.58E-05,  avg # of iterations =  2.5

     negative rho (up, down):  2.218E-03 9.873E-02

     total cpu time spent up to now is      763.1 secs

     total energy              =    -860.03386236 Ry
     Harris-Foulkes estimate   =    -860.03495270 Ry
     estimated scf accuracy    <       0.12634129 Ry

     total magnetization       =     2.00 Bohr mag/cell
     absolute magnetization    =     2.72 Bohr mag/cell

     iteration #  8     ecut=    70.00 Ry     beta= 0.30
     Davidson diagonalization with overlap
     ethr =  5.90E-05,  avg # of iterations =  6.0

     negative rho (up, down):  1.921E-03 8.239E-02

     total cpu time spent up to now is      857.8 secs

     total energy              =    -860.03944252 Ry
     Harris-Foulkes estimate   =    -860.04120846 Ry
     estimated scf accuracy    <       0.02773650 Ry

     total magnetization       =     2.16 Bohr mag/cell
     absolute magnetization    =     2.67 Bohr mag/cell

     iteration #  9     ecut=    70.00 Ry     beta= 0.30
     Davidson diagonalization with overlap
     ethr =  1.30E-05,  avg # of iterations =  6.5

     negative rho (up, down):  2.139E-03 8.083E-02

     total cpu time spent up to now is      954.1 secs

     total energy              =    -860.04248541 Ry
     Harris-Foulkes estimate   =    -860.04331198 Ry
     estimated scf accuracy    <       0.03924487 Ry

     total magnetization       =     1.79 Bohr mag/cell
     absolute magnetization    =     2.43 Bohr mag/cell

     iteration # 10     ecut=    70.00 Ry     beta= 0.30
     Davidson diagonalization with overlap
     ethr =  1.30E-05,  avg # of iterations =  2.0

     negative rho (up, down):  1.888E-03 7.665E-02

     total cpu time spent up to now is     1046.3 secs

     total energy              =    -860.04542676 Ry
     Harris-Foulkes estimate   =    -860.04437259 Ry
     estimated scf accuracy    <       0.00969609 Ry

     total magnetization       =     2.15 Bohr mag/cell
     absolute magnetization    =     2.68 Bohr mag/cell

     iteration # 11     ecut=    70.00 Ry     beta= 0.30
     Davidson diagonalization with overlap
     ethr =  4.53E-06,  avg # of iterations = 10.0

     negative rho (up, down):  1.466E-03 7.773E-02

     total cpu time spent up to now is     1147.1 secs

     total energy              =    -860.04803671 Ry
     Harris-Foulkes estimate   =    -860.04618722 Ry
     estimated scf accuracy    <       0.01026529 Ry

     total magnetization       =     1.79 Bohr mag/cell
     absolute magnetization    =     2.58 Bohr mag/cell

     iteration # 12     ecut=    70.00 Ry     beta= 0.30
     Davidson diagonalization with overlap
     ethr =  4.53E-06,  avg # of iterations =  2.5

     negative rho (up, down):  1.749E-03 1.169E-01

     total cpu time spent up to now is     1241.5 secs

     total energy              =    -860.04702936 Ry
     Harris-Foulkes estimate   =    -860.04846147 Ry
     estimated scf accuracy    <       0.01258230 Ry

     total magnetization       =     2.00 Bohr mag/cell
     absolute magnetization    =     2.65 Bohr mag/cell

     iteration # 13     ecut=    70.00 Ry     beta= 0.30
     Davidson diagonalization with overlap
     ethr =  4.53E-06,  avg # of iterations =  2.0

     negative rho (up, down):  2.209E-03 1.435E-01

     total cpu time spent up to now is     1334.4 secs

     total energy              =    -860.04378699 Ry
     Harris-Foulkes estimate   =    -860.04727955 Ry
     estimated scf accuracy    <       0.01489535 Ry

     total magnetization       =     1.87 Bohr mag/cell
     absolute magnetization    =     2.64 Bohr mag/cell

     iteration # 14     ecut=    70.00 Ry     beta= 0.30
     Davidson diagonalization with overlap
     ethr =  4.53E-06,  avg # of iterations =  2.0

     negative rho (up, down):  1.948E-03 1.460E-01

     total cpu time spent up to now is     1431.9 secs

     total energy              =    -860.04384013 Ry
     Harris-Foulkes estimate   =    -860.04506782 Ry
     estimated scf accuracy    <       0.00685380 Ry

     total magnetization       =     1.35 Bohr mag/cell
     absolute magnetization    =     2.49 Bohr mag/cell

     iteration # 15     ecut=    70.00 Ry     beta= 0.30
     Davidson diagonalization with overlap
     ethr =  3.20E-06,  avg # of iterations =  2.0

     negative rho (up, down):  1.692E-03 1.425E-01

     total cpu time spent up to now is     1526.8 secs

     total energy              =    -860.04438667 Ry
     Harris-Foulkes estimate   =    -860.04475403 Ry
     estimated scf accuracy    <       0.00470978 Ry

     total magnetization       =     1.95 Bohr mag/cell
     absolute magnetization    =     2.62 Bohr mag/cell

     iteration # 16     ecut=    70.00 Ry     beta= 0.30
     Davidson diagonalization with overlap
     ethr =  2.20E-06,  avg # of iterations =  2.0

     negative rho (up, down):  1.299E-03 1.272E-01

     total cpu time spent up to now is     1624.0 secs

     total energy              =    -860.04525818 Ry
     Harris-Foulkes estimate   =    -860.04474417 Ry
     estimated scf accuracy    <       0.00260776 Ry

     total magnetization       =     1.88 Bohr mag/cell
     absolute magnetization    =     2.60 Bohr mag/cell

     iteration # 17     ecut=    70.00 Ry     beta= 0.30
     Davidson diagonalization with overlap
     ethr =  1.22E-06,  avg # of iterations =  9.5

     negative rho (up, down):  9.929E-04 1.057E-01

     total cpu time spent up to now is     1722.6 secs

     total energy              =    -860.04609365 Ry
     Harris-Foulkes estimate   =    -860.04540414 Ry
     estimated scf accuracy    <       0.00165267 Ry

     total magnetization       =     1.84 Bohr mag/cell
     absolute magnetization    =     2.61 Bohr mag/cell

     iteration # 18     ecut=    70.00 Ry     beta= 0.30
     Davidson diagonalization with overlap
     ethr =  7.72E-07,  avg # of iterations =  2.5

     negative rho (up, down):  9.351E-04 9.160E-02

     total cpu time spent up to now is     1823.0 secs

     total energy              =    -860.04639316 Ry
     Harris-Foulkes estimate   =    -860.04629301 Ry
     estimated scf accuracy    <       0.00214166 Ry

     total magnetization       =     1.92 Bohr mag/cell
     absolute magnetization    =     2.65 Bohr mag/cell

     iteration # 19     ecut=    70.00 Ry     beta= 0.30
     Davidson diagonalization with overlap
     ethr =  7.72E-07,  avg # of iterations =  1.0

     negative rho (up, down):  1.030E-03 1.143E-01

     total cpu time spent up to now is     1913.7 secs

     total energy              =    -860.04497441 Ry
     Harris-Foulkes estimate   =    -860.04644367 Ry
     estimated scf accuracy    <       0.00407722 Ry

     total magnetization       =     1.95 Bohr mag/cell
     absolute magnetization    =     2.67 Bohr mag/cell

     iteration # 20     ecut=    70.00 Ry     beta= 0.30
     Davidson diagonalization with overlap
     ethr =  7.72E-07,  avg # of iterations =  2.0

     negative rho (up, down):  9.567E-04 9.116E-02

     total cpu time spent up to now is     2016.1 secs

     total energy              =    -860.04558370 Ry
     Harris-Foulkes estimate   =    -860.04547444 Ry
     estimated scf accuracy    <       0.00091589 Ry

     total magnetization       =     1.54 Bohr mag/cell
     absolute magnetization    =     2.55 Bohr mag/cell

     iteration # 21     ecut=    70.00 Ry     beta= 0.30
     Davidson diagonalization with overlap
     ethr =  4.28E-07,  avg # of iterations =  2.0

     negative rho (up, down):  8.546E-04 1.216E-01

     total cpu time spent up to now is     2111.3 secs

     total energy              =    -860.04460154 Ry
     Harris-Foulkes estimate   =    -860.04585299 Ry
     estimated scf accuracy    <       0.00325611 Ry

     total magnetization       =     1.98 Bohr mag/cell
     absolute magnetization    =     2.67 Bohr mag/cell

     iteration # 22     ecut=    70.00 Ry     beta= 0.30
     Davidson diagonalization with overlap
     ethr =  4.28E-07,  avg # of iterations =  2.0

     negative rho (up, down):  8.219E-04 1.019E-01

     total cpu time spent up to now is     2219.5 secs

     total energy              =    -860.04538409 Ry
     Harris-Foulkes estimate   =    -860.04537763 Ry
     estimated scf accuracy    <       0.00344237 Ry

     total magnetization       =     1.97 Bohr mag/cell
     absolute magnetization    =     2.68 Bohr mag/cell

     iteration # 23     ecut=    70.00 Ry     beta= 0.30
     Davidson diagonalization with overlap
     ethr =  4.28E-07,  avg # of iterations =  2.0

     negative rho (up, down):  7.815E-04 7.730E-02

     total cpu time spent up to now is     2312.0 secs

     total energy              =    -860.04549332 Ry
     Harris-Foulkes estimate   =    -860.04541407 Ry
     estimated scf accuracy    <       0.00268993 Ry

     total magnetization       =     1.94 Bohr mag/cell
     absolute magnetization    =     2.67 Bohr mag/cell

     iteration # 24     ecut=    70.00 Ry     beta= 0.30
     Davidson diagonalization with overlap
     ethr =  4.28E-07,  avg # of iterations =  2.0

     negative rho (up, down):  7.733E-04 5.707E-02

     total cpu time spent up to now is     2405.0 secs

     total energy              =    -860.04558074 Ry
     Harris-Foulkes estimate   =    -860.04552494 Ry
     estimated scf accuracy    <       0.00200970 Ry

     total magnetization       =     1.92 Bohr mag/cell
     absolute magnetization    =     2.67 Bohr mag/cell

     iteration # 25     ecut=    70.00 Ry     beta= 0.30
     Davidson diagonalization with overlap
     ethr =  4.28E-07,  avg # of iterations =  1.0

     negative rho (up, down):  6.705E-04 4.774E-02

     total cpu time spent up to now is     2496.0 secs

     total energy              =    -860.04569693 Ry
     Harris-Foulkes estimate   =    -860.04558538 Ry
     estimated scf accuracy    <       0.00231476 Ry

     total magnetization       =     1.93 Bohr mag/cell
     absolute magnetization    =     2.68 Bohr mag/cell

     iteration # 26     ecut=    70.00 Ry     beta= 0.30
     Davidson diagonalization with overlap
     ethr =  4.28E-07,  avg # of iterations =  3.0

     negative rho (up, down):  6.816E-04 3.296E-02

     total cpu time spent up to now is     2606.6 secs

     total energy              =    -860.04620567 Ry
     Harris-Foulkes estimate   =    -860.04626194 Ry
     estimated scf accuracy    <       0.00099442 Ry

     total magnetization       =     1.82 Bohr mag/cell
     absolute magnetization    =     2.67 Bohr mag/cell

     iteration # 27     ecut=    70.00 Ry     beta= 0.30
     Davidson diagonalization with overlap
     ethr =  4.28E-07,  avg # of iterations =  2.0

     negative rho (up, down):  6.789E-04 2.961E-02

     total cpu time spent up to now is     2698.0 secs

     total energy              =    -860.04625454 Ry
     Harris-Foulkes estimate   =    -860.04623357 Ry
     estimated scf accuracy    <       0.00110361 Ry

     total magnetization       =     1.89 Bohr mag/cell
     absolute magnetization    =     2.69 Bohr mag/cell

     iteration # 28     ecut=    70.00 Ry     beta= 0.30
     Davidson diagonalization with overlap
     ethr =  4.28E-07,  avg # of iterations =  1.0

     negative rho (up, down):  6.780E-04 4.586E-02

     total cpu time spent up to now is     2788.8 secs

     total energy              =    -860.04611657 Ry
     Harris-Foulkes estimate   =    -860.04626036 Ry
     estimated scf accuracy    <       0.00107765 Ry

     total magnetization       =     1.89 Bohr mag/cell
     absolute magnetization    =     2.69 Bohr mag/cell

     iteration # 29     ecut=    70.00 Ry     beta= 0.30
     Davidson diagonalization with overlap
     ethr =  4.28E-07,  avg # of iterations =  2.0

     negative rho (up, down):  6.593E-04 2.789E-02

     total cpu time spent up to now is     2882.1 secs

     total energy              =    -860.04630747 Ry
     Harris-Foulkes estimate   =    -860.04615128 Ry
     estimated scf accuracy    <       0.00108216 Ry

     total magnetization       =     1.88 Bohr mag/cell
     absolute magnetization    =     2.69 Bohr mag/cell

     iteration # 30     ecut=    70.00 Ry     beta= 0.30
     Davidson diagonalization with overlap
     ethr =  4.28E-07,  avg # of iterations =  3.0

     negative rho (up, down):  6.675E-04 5.198E-02

     total cpu time spent up to now is     2987.9 secs

     total energy              =    -860.04595044 Ry
     Harris-Foulkes estimate   =    -860.04704719 Ry
     estimated scf accuracy    <       0.01631218 Ry

     total magnetization       =     1.38 Bohr mag/cell
     absolute magnetization    =     2.56 Bohr mag/cell

     iteration # 31     ecut=    70.00 Ry     beta= 0.30
     Davidson diagonalization with overlap
     ethr =  4.28E-07,  avg # of iterations =  3.0

     negative rho (up, down):  6.733E-04 7.165E-02

     total cpu time spent up to now is     3092.3 secs

     total energy              =    -860.04609282 Ry
     Harris-Foulkes estimate   =    -860.04665873 Ry
     estimated scf accuracy    <       0.00167387 Ry

     total magnetization       =     1.95 Bohr mag/cell
     absolute magnetization    =     2.73 Bohr mag/cell

     iteration # 32     ecut=    70.00 Ry     beta= 0.30
     Davidson diagonalization with overlap
     ethr =  4.28E-07,  avg # of iterations =  2.0

     negative rho (up, down):  6.860E-04 9.856E-02

     total cpu time spent up to now is     3192.5 secs

     total energy              =    -860.04500778 Ry
     Harris-Foulkes estimate   =    -860.04623430 Ry
     estimated scf accuracy    <       0.00184651 Ry

     total magnetization       =     1.98 Bohr mag/cell
     absolute magnetization    =     2.72 Bohr mag/cell

     iteration # 33     ecut=    70.00 Ry     beta= 0.30
     Davidson diagonalization with overlap
     ethr =  4.28E-07,  avg # of iterations =  2.0

     negative rho (up, down):  6.766E-04 7.715E-02

     total cpu time spent up to now is     3300.0 secs

     total energy              =    -860.04579600 Ry
     Harris-Foulkes estimate   =    -860.04572786 Ry
     estimated scf accuracy    <       0.00129124 Ry

     total magnetization       =     1.96 Bohr mag/cell
     absolute magnetization    =     2.70 Bohr mag/cell

     iteration # 34     ecut=    70.00 Ry     beta= 0.30
     Davidson diagonalization with overlap
     ethr =  4.28E-07,  avg # of iterations =  1.0

     negative rho (up, down):  6.695E-04 5.854E-02

     total cpu time spent up to now is     3390.7 secs

     total energy              =    -860.04589883 Ry
     Harris-Foulkes estimate   =    -860.04579869 Ry
     estimated scf accuracy    <       0.00119393 Ry

     total magnetization       =     1.95 Bohr mag/cell
     absolute magnetization    =     2.70 Bohr mag/cell

     iteration # 35     ecut=    70.00 Ry     beta= 0.30
     Davidson diagonalization with overlap
     ethr =  4.28E-07,  avg # of iterations =  2.0

     negative rho (up, down):  5.784E-04 4.542E-02

     total cpu time spent up to now is     3483.5 secs

     total energy              =    -860.04584746 Ry
     Harris-Foulkes estimate   =    -860.04593161 Ry
     estimated scf accuracy    <       0.00095181 Ry

     total magnetization       =     1.95 Bohr mag/cell
     absolute magnetization    =     2.70 Bohr mag/cell

     iteration # 36     ecut=    70.00 Ry     beta= 0.30
     Davidson diagonalization with overlap
     ethr =  4.28E-07,  avg # of iterations =  3.0

     negative rho (up, down):  6.146E-04 4.626E-02

     total cpu time spent up to now is     3590.3 secs

     total energy              =    -860.04580092 Ry
     Harris-Foulkes estimate   =    -860.04619818 Ry
     estimated scf accuracy    <       0.00218282 Ry

     total magnetization       =     2.17 Bohr mag/cell
     absolute magnetization    =     2.70 Bohr mag/cell

     iteration # 37     ecut=    70.00 Ry     beta= 0.30
     Davidson diagonalization with overlap
     ethr =  4.28E-07,  avg # of iterations =  2.0

     negative rho (up, down):  6.122E-04 3.879E-02

     total cpu time spent up to now is     3686.2 secs

     total energy              =    -860.04609796 Ry
     Harris-Foulkes estimate   =    -860.04606652 Ry
     estimated scf accuracy    <       0.00060537 Ry

     total magnetization       =     2.13 Bohr mag/cell
     absolute magnetization    =     2.74 Bohr mag/cell

     iteration # 38     ecut=    70.00 Ry     beta= 0.30
     Davidson diagonalization with overlap
     ethr =  2.83E-07,  avg # of iterations =  1.0

     negative rho (up, down):  6.120E-04 3.472E-02

     total cpu time spent up to now is     3776.8 secs

     total energy              =    -860.04618507 Ry
     Harris-Foulkes estimate   =    -860.04611200 Ry
     estimated scf accuracy    <       0.00039343 Ry

     total magnetization       =     2.16 Bohr mag/cell
     absolute magnetization    =     2.74 Bohr mag/cell

     iteration # 39     ecut=    70.00 Ry     beta= 0.30
     Davidson diagonalization with overlap
     ethr =  1.84E-07,  avg # of iterations =  2.0

     negative rho (up, down):  6.127E-04 2.684E-02

     total cpu time spent up to now is     3868.2 secs

     total energy              =    -860.04624708 Ry
     Harris-Foulkes estimate   =    -860.04617104 Ry
     estimated scf accuracy    <       0.00025029 Ry

     total magnetization       =     2.03 Bohr mag/cell
     absolute magnetization    =     2.70 Bohr mag/cell

     iteration # 40     ecut=    70.00 Ry     beta= 0.30
     Davidson diagonalization with overlap
     ethr =  1.17E-07,  avg # of iterations =  2.0

     negative rho (up, down):  6.132E-04 2.718E-02

     total cpu time spent up to now is     3964.6 secs

     total energy              =    -860.04630469 Ry
     Harris-Foulkes estimate   =    -860.04626834 Ry
     estimated scf accuracy    <       0.00018163 Ry

     total magnetization       =     2.00 Bohr mag/cell
     absolute magnetization    =     2.70 Bohr mag/cell

     iteration # 41     ecut=    70.00 Ry     beta= 0.30
     Davidson diagonalization with overlap
     ethr =  8.49E-08,  avg # of iterations =  2.0

     negative rho (up, down):  6.147E-04 3.595E-02

     total cpu time spent up to now is     4056.9 secs

     total energy              =    -860.04624273 Ry
     Harris-Foulkes estimate   =    -860.04630944 Ry
     estimated scf accuracy    <       0.00019940 Ry

     total magnetization       =     2.00 Bohr mag/cell
     absolute magnetization    =     2.70 Bohr mag/cell

     iteration # 42     ecut=    70.00 Ry     beta= 0.30
     Davidson diagonalization with overlap
     ethr =  8.49E-08,  avg # of iterations =  2.0

     negative rho (up, down):  6.180E-04 5.332E-02

     total cpu time spent up to now is     4150.3 secs

     total energy              =    -860.04600104 Ry
     Harris-Foulkes estimate   =    -860.04625211 Ry
     estimated scf accuracy    <       0.00019429 Ry

     total magnetization       =     2.00 Bohr mag/cell
     absolute magnetization    =     2.70 Bohr mag/cell

     iteration # 43     ecut=    70.00 Ry     beta= 0.30
     Davidson diagonalization with overlap
     ethr =  8.49E-08,  avg # of iterations =  2.0

     negative rho (up, down):  6.200E-04 3.985E-02

     total cpu time spent up to now is     4256.9 secs

     total energy              =    -860.04614608 Ry
     Harris-Foulkes estimate   =    -860.04610203 Ry
     estimated scf accuracy    <       0.00011483 Ry

     total magnetization       =     2.02 Bohr mag/cell
     absolute magnetization    =     2.70 Bohr mag/cell

     iteration # 44     ecut=    70.00 Ry     beta= 0.30
     Davidson diagonalization with overlap
     ethr =  5.37E-08,  avg # of iterations =  2.0

     negative rho (up, down):  6.221E-04 4.307E-02

     total cpu time spent up to now is     4350.8 secs

     total energy              =    -860.04610085 Ry
     Harris-Foulkes estimate   =    -860.04616309 Ry
     estimated scf accuracy    <       0.00012767 Ry

     total magnetization       =     2.01 Bohr mag/cell
     absolute magnetization    =     2.68 Bohr mag/cell

     iteration # 45     ecut=    70.00 Ry     beta= 0.30
     Davidson diagonalization with overlap
     ethr =  5.37E-08,  avg # of iterations =  2.0

     negative rho (up, down):  6.237E-04 3.726E-02

     total cpu time spent up to now is     4452.7 secs

     total energy              =    -860.04615025 Ry
     Harris-Foulkes estimate   =    -860.04613165 Ry
     estimated scf accuracy    <       0.00006438 Ry

     total magnetization       =     2.01 Bohr mag/cell
     absolute magnetization    =     2.70 Bohr mag/cell

     iteration # 46     ecut=    70.00 Ry     beta= 0.30
     Davidson diagonalization with overlap
     ethr =  3.01E-08,  avg # of iterations =  2.0

     negative rho (up, down):  6.237E-04 2.582E-02

     total cpu time spent up to now is     4551.2 secs

     total energy              =    -860.04618923 Ry
     Harris-Foulkes estimate   =    -860.04615919 Ry
     estimated scf accuracy    <       0.00008205 Ry

     total magnetization       =     2.01 Bohr mag/cell
     absolute magnetization    =     2.70 Bohr mag/cell

     iteration # 47     ecut=    70.00 Ry     beta= 0.30
     Davidson diagonalization with overlap
     ethr =  3.01E-08,  avg # of iterations =  2.0

     negative rho (up, down):  6.239E-04 2.703E-02

     total cpu time spent up to now is     4650.4 secs

     total energy              =    -860.04618381 Ry
     Harris-Foulkes estimate   =    -860.04619907 Ry
     estimated scf accuracy    <       0.00007572 Ry

     total magnetization       =     2.00 Bohr mag/cell
     absolute magnetization    =     2.70 Bohr mag/cell

     iteration # 48     ecut=    70.00 Ry     beta= 0.30
     Davidson diagonalization with overlap
     ethr =  3.01E-08,  avg # of iterations =  2.0

     negative rho (up, down):  6.228E-04 3.334E-02

     total cpu time spent up to now is     4742.9 secs

     total energy              =    -860.04610291 Ry
     Harris-Foulkes estimate   =    -860.04618575 Ry
     estimated scf accuracy    <       0.00008256 Ry

     total magnetization       =     2.00 Bohr mag/cell
     absolute magnetization    =     2.70 Bohr mag/cell

     iteration # 49     ecut=    70.00 Ry     beta= 0.30
     Davidson diagonalization with overlap
     ethr =  3.01E-08,  avg # of iterations =  2.0

     negative rho (up, down):  6.253E-04 3.681E-02

     total cpu time spent up to now is     4847.2 secs

     total energy              =    -860.04611334 Ry
     Harris-Foulkes estimate   =    -860.04612740 Ry
     estimated scf accuracy    <       0.00004512 Ry

     total magnetization       =     2.01 Bohr mag/cell
     absolute magnetization    =     2.70 Bohr mag/cell

     iteration # 50     ecut=    70.00 Ry     beta= 0.30
     Davidson diagonalization with overlap
     ethr =  2.11E-08,  avg # of iterations =  3.0

     negative rho (up, down):  6.253E-04 2.945E-02

     total cpu time spent up to now is     4955.9 secs

     total energy              =    -860.04616524 Ry
     Harris-Foulkes estimate   =    -860.04614706 Ry
     estimated scf accuracy    <       0.00003556 Ry

     total magnetization       =     2.00 Bohr mag/cell
     absolute magnetization    =     2.70 Bohr mag/cell

     iteration # 51     ecut=    70.00 Ry     beta= 0.30
     Davidson diagonalization with overlap
     ethr =  1.66E-08,  avg # of iterations =  2.5

     negative rho (up, down):  6.237E-04 2.496E-02

     total cpu time spent up to now is     5052.9 secs

     total energy              =    -860.04614718 Ry
     Harris-Foulkes estimate   =    -860.04617085 Ry
     estimated scf accuracy    <       0.00005179 Ry

     total magnetization       =     2.00 Bohr mag/cell
     absolute magnetization    =     2.69 Bohr mag/cell

     iteration # 52     ecut=    70.00 Ry     beta= 0.30
     Davidson diagonalization with overlap
     ethr =  1.66E-08,  avg # of iterations =  2.5

     negative rho (up, down):  6.235E-04 2.050E-02

     total cpu time spent up to now is     5150.5 secs

     total energy              =    -860.04616627 Ry
     Harris-Foulkes estimate   =    -860.04615376 Ry
     estimated scf accuracy    <       0.00003167 Ry

     total magnetization       =     2.00 Bohr mag/cell
     absolute magnetization    =     2.70 Bohr mag/cell

     iteration # 53     ecut=    70.00 Ry     beta= 0.30
     Davidson diagonalization with overlap
     ethr =  1.48E-08,  avg # of iterations =  2.0

     negative rho (up, down):  6.245E-04 1.991E-02

     total cpu time spent up to now is     5244.3 secs

     total energy              =    -860.04616134 Ry
     Harris-Foulkes estimate   =    -860.04616821 Ry
     estimated scf accuracy    <       0.00003195 Ry

     total magnetization       =     2.00 Bohr mag/cell
     absolute magnetization    =     2.70 Bohr mag/cell

     iteration # 54     ecut=    70.00 Ry     beta= 0.30
     Davidson diagonalization with overlap
     ethr =  1.48E-08,  avg # of iterations =  2.0

     negative rho (up, down):  6.246E-04 1.961E-02

     total cpu time spent up to now is     5341.3 secs

     total energy              =    -860.04616716 Ry
     Harris-Foulkes estimate   =    -860.04616412 Ry
     estimated scf accuracy    <       0.00002998 Ry

     total magnetization       =     2.00 Bohr mag/cell
     absolute magnetization    =     2.70 Bohr mag/cell

     iteration # 55     ecut=    70.00 Ry     beta= 0.30
     Davidson diagonalization with overlap
     ethr =  1.40E-08,  avg # of iterations =  2.0

     negative rho (up, down):  6.246E-04 1.926E-02

     total cpu time spent up to now is     5434.8 secs

     total energy              =    -860.04615682 Ry
     Harris-Foulkes estimate   =    -860.04616809 Ry
     estimated scf accuracy    <       0.00003088 Ry

     total magnetization       =     2.00 Bohr mag/cell
     absolute magnetization    =     2.70 Bohr mag/cell

     iteration # 56     ecut=    70.00 Ry     beta= 0.30
     Davidson diagonalization with overlap
     ethr =  1.40E-08,  avg # of iterations =  2.0

     negative rho (up, down):  6.245E-04 1.736E-02

     total cpu time spent up to now is     5531.5 secs

     total energy              =    -860.04617201 Ry
     Harris-Foulkes estimate   =    -860.04615946 Ry
     estimated scf accuracy    <       0.00002915 Ry

     total magnetization       =     2.00 Bohr mag/cell
     absolute magnetization    =     2.70 Bohr mag/cell

     iteration # 57     ecut=    70.00 Ry     beta= 0.30
     Davidson diagonalization with overlap
     ethr =  1.36E-08,  avg # of iterations =  2.0

     negative rho (up, down):  6.248E-04 1.834E-02

     total cpu time spent up to now is     5631.8 secs

     total energy              =    -860.04617729 Ry
     Harris-Foulkes estimate   =    -860.04617867 Ry
     estimated scf accuracy    <       0.00006463 Ry

     total magnetization       =     2.00 Bohr mag/cell
     absolute magnetization    =     2.69 Bohr mag/cell

     iteration # 58     ecut=    70.00 Ry     beta= 0.30
     Davidson diagonalization with overlap
     ethr =  1.36E-08,  avg # of iterations =  2.0

     negative rho (up, down):  6.242E-04 2.560E-02

     total cpu time spent up to now is     5723.6 secs

     total energy              =    -860.04611777 Ry
     Harris-Foulkes estimate   =    -860.04617834 Ry
     estimated scf accuracy    <       0.00004440 Ry

     total magnetization       =     2.00 Bohr mag/cell
     absolute magnetization    =     2.70 Bohr mag/cell

     iteration # 59     ecut=    70.00 Ry     beta= 0.30
     Davidson diagonalization with overlap
     ethr =  1.36E-08,  avg # of iterations =  2.0

     negative rho (up, down):  6.242E-04 2.224E-02

     total cpu time spent up to now is     5832.1 secs

     total energy              =    -860.04615812 Ry
     Harris-Foulkes estimate   =    -860.04615252 Ry
     estimated scf accuracy    <       0.00001874 Ry

     total magnetization       =     2.00 Bohr mag/cell
     absolute magnetization    =     2.70 Bohr mag/cell

     iteration # 60     ecut=    70.00 Ry     beta= 0.30
     Davidson diagonalization with overlap
     ethr =  8.76E-09,  avg # of iterations =  2.0

     negative rho (up, down):  6.242E-04 1.982E-02

     total cpu time spent up to now is     5927.5 secs

     total energy              =    -860.04616080 Ry
     Harris-Foulkes estimate   =    -860.04615979 Ry
     estimated scf accuracy    <       0.00002259 Ry

     total magnetization       =     2.00 Bohr mag/cell
     absolute magnetization    =     2.70 Bohr mag/cell

     iteration # 61     ecut=    70.00 Ry     beta= 0.30
     Davidson diagonalization with overlap
     ethr =  8.76E-09,  avg # of iterations =  1.0

     negative rho (up, down):  6.241E-04 1.783E-02

     total cpu time spent up to now is     6018.1 secs

     total energy              =    -860.04616825 Ry
     Harris-Foulkes estimate   =    -860.04616082 Ry
     estimated scf accuracy    <       0.00002197 Ry

     total magnetization       =     2.00 Bohr mag/cell
     absolute magnetization    =     2.70 Bohr mag/cell

     iteration # 62     ecut=    70.00 Ry     beta= 0.30
     Davidson diagonalization with overlap
     ethr =  8.76E-09,  avg # of iterations =  2.0

     negative rho (up, down):  6.242E-04 1.759E-02

     total cpu time spent up to now is     6116.3 secs

     total energy              =    -860.04617100 Ry
     Harris-Foulkes estimate   =    -860.04617121 Ry
     estimated scf accuracy    <       0.00003269 Ry

     total magnetization       =     2.00 Bohr mag/cell
     absolute magnetization    =     2.70 Bohr mag/cell

     iteration # 63     ecut=    70.00 Ry     beta= 0.30
     Davidson diagonalization with overlap
     ethr =  8.76E-09,  avg # of iterations =  2.0

     negative rho (up, down):  6.242E-04 1.790E-02

     total cpu time spent up to now is     6208.4 secs

     total energy              =    -860.04617244 Ry
     Harris-Foulkes estimate   =    -860.04617170 Ry
     estimated scf accuracy    <       0.00002418 Ry

     total magnetization       =     2.00 Bohr mag/cell
     absolute magnetization    =     2.70 Bohr mag/cell

     iteration # 64     ecut=    70.00 Ry     beta= 0.30
     Davidson diagonalization with overlap
     ethr =  8.76E-09,  avg # of iterations =  1.0

     negative rho (up, down):  6.241E-04 2.007E-02

     total cpu time spent up to now is     6299.0 secs

     total energy              =    -860.04616141 Ry
     Harris-Foulkes estimate   =    -860.04617254 Ry
     estimated scf accuracy    <       0.00002515 Ry

     total magnetization       =     2.00 Bohr mag/cell
     absolute magnetization    =     2.70 Bohr mag/cell

     iteration # 65     ecut=    70.00 Ry     beta= 0.30
     Davidson diagonalization with overlap
     ethr =  8.76E-09,  avg # of iterations =  2.0

     negative rho (up, down):  6.241E-04 1.929E-02

     total cpu time spent up to now is     6404.5 secs

     total energy              =    -860.04616780 Ry
     Harris-Foulkes estimate   =    -860.04617076 Ry
     estimated scf accuracy    <       0.00002770 Ry

     total magnetization       =     2.00 Bohr mag/cell
     absolute magnetization    =     2.70 Bohr mag/cell

     iteration # 66     ecut=    70.00 Ry     beta= 0.30
     Davidson diagonalization with overlap
     ethr =  8.76E-09,  avg # of iterations =  2.0

     negative rho (up, down):  6.242E-04 1.685E-02

     total cpu time spent up to now is     6497.3 secs

     total energy              =    -860.04617942 Ry
     Harris-Foulkes estimate   =    -860.04616875 Ry
     estimated scf accuracy    <       0.00003528 Ry

     total magnetization       =     2.00 Bohr mag/cell
     absolute magnetization    =     2.70 Bohr mag/cell

     iteration # 67     ecut=    70.00 Ry     beta= 0.30
     Davidson diagonalization with overlap
     ethr =  8.76E-09,  avg # of iterations =  2.0

     negative rho (up, down):  6.242E-04 1.851E-02

     total cpu time spent up to now is     6600.7 secs

     total energy              =    -860.04618381 Ry
     Harris-Foulkes estimate   =    -860.04618707 Ry
     estimated scf accuracy    <       0.00004000 Ry

     total magnetization       =     2.00 Bohr mag/cell
     absolute magnetization    =     2.70 Bohr mag/cell

     iteration # 68     ecut=    70.00 Ry     beta= 0.30
     Davidson diagonalization with overlap
     ethr =  8.76E-09,  avg # of iterations =  1.0

     negative rho (up, down):  6.245E-04 2.495E-02

     total cpu time spent up to now is     6692.3 secs

     total energy              =    -860.04613773 Ry
     Harris-Foulkes estimate   =    -860.04618431 Ry
     estimated scf accuracy    <       0.00005570 Ry

     total magnetization       =     2.00 Bohr mag/cell
     absolute magnetization    =     2.70 Bohr mag/cell

     iteration # 69     ecut=    70.00 Ry     beta= 0.30
     Davidson diagonalization with overlap
     ethr =  8.76E-09,  avg # of iterations =  2.5

     negative rho (up, down):  6.244E-04 2.351E-02

     total cpu time spent up to now is     6800.7 secs

     total energy              =    -860.04615009 Ry
     Harris-Foulkes estimate   =    -860.04615539 Ry
     estimated scf accuracy    <       0.00002534 Ry

     total magnetization       =     2.00 Bohr mag/cell
     absolute magnetization    =     2.71 Bohr mag/cell

     iteration # 70     ecut=    70.00 Ry     beta= 0.30
     Davidson diagonalization with overlap
     ethr =  8.76E-09,  avg # of iterations =  2.0

     negative rho (up, down):  6.245E-04 2.165E-02

     total cpu time spent up to now is     6904.9 secs

     total energy              =    -860.04615851 Ry
     Harris-Foulkes estimate   =    -860.04615977 Ry
     estimated scf accuracy    <       0.00002370 Ry

     total magnetization       =     2.00 Bohr mag/cell
     absolute magnetization    =     2.70 Bohr mag/cell

     iteration # 71     ecut=    70.00 Ry     beta= 0.30
     Davidson diagonalization with overlap
     ethr =  8.76E-09,  avg # of iterations =  2.0

     negative rho (up, down):  6.244E-04 1.962E-02

     total cpu time spent up to now is     6997.7 secs

     total energy              =    -860.04616304 Ry
     Harris-Foulkes estimate   =    -860.04615945 Ry
     estimated scf accuracy    <       0.00001421 Ry

     total magnetization       =     2.00 Bohr mag/cell
     absolute magnetization    =     2.70 Bohr mag/cell

     iteration # 72     ecut=    70.00 Ry     beta= 0.30
     Davidson diagonalization with overlap
     ethr =  6.64E-09,  avg # of iterations =  2.0

     negative rho (up, down):  6.243E-04 1.709E-02

     total cpu time spent up to now is     7090.3 secs

     total energy              =    -860.04616802 Ry
     Harris-Foulkes estimate   =    -860.04616374 Ry
     estimated scf accuracy    <       0.00001644 Ry

     total magnetization       =     2.00 Bohr mag/cell
     absolute magnetization    =     2.70 Bohr mag/cell

     iteration # 73     ecut=    70.00 Ry     beta= 0.30
     Davidson diagonalization with overlap
     ethr =  6.64E-09,  avg # of iterations =  2.0

     negative rho (up, down):  6.244E-04 1.800E-02

     total cpu time spent up to now is     7189.2 secs

     total energy              =    -860.04616577 Ry
     Harris-Foulkes estimate   =    -860.04617014 Ry
     estimated scf accuracy    <       0.00002337 Ry

     total magnetization       =     2.00 Bohr mag/cell
     absolute magnetization    =     2.70 Bohr mag/cell

     iteration # 74     ecut=    70.00 Ry     beta= 0.30
     Davidson diagonalization with overlap
     ethr =  6.64E-09,  avg # of iterations =  2.0

     negative rho (up, down):  6.247E-04 2.107E-02

     total cpu time spent up to now is     7281.0 secs

     total energy              =    -860.04614721 Ry
     Harris-Foulkes estimate   =    -860.04616639 Ry
     estimated scf accuracy    <       0.00003674 Ry

     total magnetization       =     2.00 Bohr mag/cell
     absolute magnetization    =     2.70 Bohr mag/cell

     iteration # 75     ecut=    70.00 Ry     beta= 0.30
     Davidson diagonalization with overlap
     ethr =  6.64E-09,  avg # of iterations =  2.0

     negative rho (up, down):  6.245E-04 1.885E-02

     total cpu time spent up to now is     7387.1 secs

     total energy              =    -860.04615894 Ry
     Harris-Foulkes estimate   =    -860.04615773 Ry
     estimated scf accuracy    <       0.00001523 Ry

     total magnetization       =     2.00 Bohr mag/cell
     absolute magnetization    =     2.70 Bohr mag/cell

     iteration # 76     ecut=    70.00 Ry     beta= 0.30
     Davidson diagonalization with overlap
     ethr =  6.64E-09,  avg # of iterations =  1.0

     negative rho (up, down):  6.244E-04 1.716E-02

     total cpu time spent up to now is     7477.7 secs

     total energy              =    -860.04616627 Ry
     Harris-Foulkes estimate   =    -860.04615908 Ry
     estimated scf accuracy    <       0.00001445 Ry

     total magnetization       =     2.00 Bohr mag/cell
     absolute magnetization    =     2.70 Bohr mag/cell

     iteration # 77     ecut=    70.00 Ry     beta= 0.30
     Davidson diagonalization with overlap
     ethr =  6.64E-09,  avg # of iterations =  2.0

     negative rho (up, down):  6.244E-04 1.706E-02

     total cpu time spent up to now is     7576.5 secs

     total energy              =    -860.04616649 Ry
     Harris-Foulkes estimate   =    -860.04616847 Ry
     estimated scf accuracy    <       0.00002226 Ry

     total magnetization       =     2.00 Bohr mag/cell
     absolute magnetization    =     2.70 Bohr mag/cell

     iteration # 78     ecut=    70.00 Ry     beta= 0.30
     Davidson diagonalization with overlap
     ethr =  6.64E-09,  avg # of iterations =  2.0

     negative rho (up, down):  6.245E-04 1.788E-02

     total cpu time spent up to now is     7671.9 secs

     total energy              =    -860.04616308 Ry
     Harris-Foulkes estimate   =    -860.04616745 Ry
     estimated scf accuracy    <       0.00001938 Ry

     total magnetization       =     2.00 Bohr mag/cell
     absolute magnetization    =     2.70 Bohr mag/cell

     iteration # 79     ecut=    70.00 Ry     beta= 0.30
     Davidson diagonalization with overlap
     ethr =  6.64E-09,  avg # of iterations =  2.0

     negative rho (up, down):  6.245E-04 1.803E-02

     total cpu time spent up to now is     7769.0 secs

     total energy              =    -860.04616364 Ry
     Harris-Foulkes estimate   =    -860.04616459 Ry
     estimated scf accuracy    <       0.00001968 Ry

     total magnetization       =     2.00 Bohr mag/cell
     absolute magnetization    =     2.70 Bohr mag/cell

     iteration # 80     ecut=    70.00 Ry     beta= 0.30
     Davidson diagonalization with overlap
     ethr =  6.64E-09,  avg # of iterations =  2.0

     negative rho (up, down):  6.244E-04 1.765E-02

     total cpu time spent up to now is     7861.2 secs

     total energy              =    -860.04616613 Ry
     Harris-Foulkes estimate   =    -860.04616421 Ry
     estimated scf accuracy    <       0.00001842 Ry

     total magnetization       =     2.00 Bohr mag/cell
     absolute magnetization    =     2.70 Bohr mag/cell

     iteration # 81     ecut=    70.00 Ry     beta= 0.30
     Davidson diagonalization with overlap
     ethr =  6.64E-09,  avg # of iterations =  1.5

     negative rho (up, down):  6.244E-04 1.671E-02

     total cpu time spent up to now is     7952.5 secs

     total energy              =    -860.04617422 Ry
     Harris-Foulkes estimate   =    -860.04616648 Ry
     estimated scf accuracy    <       0.00001895 Ry

     total magnetization       =     2.00 Bohr mag/cell
     absolute magnetization    =     2.70 Bohr mag/cell

     iteration # 82     ecut=    70.00 Ry     beta= 0.30
     Davidson diagonalization with overlap
     ethr =  6.64E-09,  avg # of iterations =  2.0

     negative rho (up, down):  6.244E-04 1.713E-02

     total cpu time spent up to now is     8054.4 secs

     total energy              =    -860.04617807 Ry
     Harris-Foulkes estimate   =    -860.04617806 Ry
     estimated scf accuracy    <       0.00002820 Ry

     total magnetization       =     2.00 Bohr mag/cell
     absolute magnetization    =     2.70 Bohr mag/cell

     iteration # 83     ecut=    70.00 Ry     beta= 0.30
     Davidson diagonalization with overlap
     ethr =  6.64E-09,  avg # of iterations =  2.0

     negative rho (up, down):  6.244E-04 1.817E-02

     total cpu time spent up to now is     8151.3 secs

     total energy              =    -860.04617740 Ry
     Harris-Foulkes estimate   =    -860.04617947 Ry
     estimated scf accuracy    <       0.00003201 Ry

     total magnetization       =     2.00 Bohr mag/cell
     absolute magnetization    =     2.70 Bohr mag/cell

     iteration # 84     ecut=    70.00 Ry     beta= 0.30
     Davidson diagonalization with overlap
     ethr =  6.64E-09,  avg # of iterations =  2.0

     negative rho (up, down):  6.245E-04 1.951E-02

     total cpu time spent up to now is     8242.9 secs

     total energy              =    -860.04617202 Ry
     Harris-Foulkes estimate   =    -860.04617773 Ry
     estimated scf accuracy    <       0.00003094 Ry

     total magnetization       =     2.00 Bohr mag/cell
     absolute magnetization    =     2.70 Bohr mag/cell

     iteration # 85     ecut=    70.00 Ry     beta= 0.30
     Davidson diagonalization with overlap
     ethr =  6.64E-09,  avg # of iterations =  2.0

     negative rho (up, down):  6.245E-04 1.967E-02

     total cpu time spent up to now is     8344.2 secs

     total energy              =    -860.04617350 Ry
     Harris-Foulkes estimate   =    -860.04617520 Ry
     estimated scf accuracy    <       0.00003907 Ry

     total magnetization       =     2.00 Bohr mag/cell
     absolute magnetization    =     2.70 Bohr mag/cell

     iteration # 86     ecut=    70.00 Ry     beta= 0.30
     Davidson diagonalization with overlap
     ethr =  6.64E-09,  avg # of iterations =  2.0

     negative rho (up, down):  6.245E-04 1.763E-02

     total cpu time spent up to now is     8437.7 secs

     total energy              =    -860.04618546 Ry
     Harris-Foulkes estimate   =    -860.04617445 Ry
     estimated scf accuracy    <       0.00002328 Ry

     total magnetization       =     2.00 Bohr mag/cell
     absolute magnetization    =     2.70 Bohr mag/cell

     iteration # 87     ecut=    70.00 Ry     beta= 0.30
     Davidson diagonalization with overlap
     ethr =  6.64E-09,  avg # of iterations =  2.5

     negative rho (up, down):  6.245E-04 1.824E-02

     total cpu time spent up to now is     8541.3 secs

     total energy              =    -860.04619292 Ry
     Harris-Foulkes estimate   =    -860.04619108 Ry
     estimated scf accuracy    <       0.00005500 Ry

     total magnetization       =     2.00 Bohr mag/cell
     absolute magnetization    =     2.71 Bohr mag/cell

     iteration # 88     ecut=    70.00 Ry     beta= 0.30
     Davidson diagonalization with overlap
     ethr =  6.64E-09,  avg # of iterations =  2.0

     negative rho (up, down):  6.245E-04 2.126E-02

     total cpu time spent up to now is     8633.1 secs

     total energy              =    -860.04617654 Ry
     Harris-Foulkes estimate   =    -860.04619345 Ry
     estimated scf accuracy    <       0.00004292 Ry

     total magnetization       =     2.00 Bohr mag/cell
     absolute magnetization    =     2.71 Bohr mag/cell

     iteration # 89     ecut=    70.00 Ry     beta= 0.30
     Davidson diagonalization with overlap
     ethr =  6.64E-09,  avg # of iterations =  2.0

     negative rho (up, down):  6.249E-04 2.933E-02

     total cpu time spent up to now is     8734.9 secs

     total energy              =    -860.04612593 Ry
     Harris-Foulkes estimate   =    -860.04618051 Ry
     estimated scf accuracy    <       0.00003458 Ry

     total magnetization       =     2.00 Bohr mag/cell
     absolute magnetization    =     2.71 Bohr mag/cell

     iteration # 90     ecut=    70.00 Ry     beta= 0.30
     Davidson diagonalization with overlap
     ethr =  6.64E-09,  avg # of iterations =  3.0

     negative rho (up, down):  6.247E-04 2.395E-02

     total cpu time spent up to now is     8846.2 secs

     total energy              =    -860.04616062 Ry
     Harris-Foulkes estimate   =    -860.04615896 Ry
     estimated scf accuracy    <       0.00001400 Ry

     total magnetization       =     2.00 Bohr mag/cell
     absolute magnetization    =     2.70 Bohr mag/cell

     iteration # 91     ecut=    70.00 Ry     beta= 0.30
     Davidson diagonalization with overlap
     ethr =  6.54E-09,  avg # of iterations =  1.0

     negative rho (up, down):  6.247E-04 1.916E-02

     total cpu time spent up to now is     8936.4 secs

     total energy              =    -860.04616969 Ry
     Harris-Foulkes estimate   =    -860.04616073 Ry
     estimated scf accuracy    <       0.00001507 Ry

     total magnetization       =     2.00 Bohr mag/cell
     absolute magnetization    =     2.70 Bohr mag/cell

     iteration # 92     ecut=    70.00 Ry     beta= 0.30
     Davidson diagonalization with overlap
     ethr =  6.54E-09,  avg # of iterations =  2.0

     negative rho (up, down):  6.247E-04 1.934E-02

     total cpu time spent up to now is     9038.8 secs

     total energy              =    -860.04617122 Ry
     Harris-Foulkes estimate   =    -860.04617441 Ry
     estimated scf accuracy    <       0.00002156 Ry

     total magnetization       =     2.00 Bohr mag/cell
     absolute magnetization    =     2.70 Bohr mag/cell

     iteration # 93     ecut=    70.00 Ry     beta= 0.30
     Davidson diagonalization with overlap
     ethr =  6.54E-09,  avg # of iterations =  2.0

     negative rho (up, down):  6.250E-04 2.151E-02

     total cpu time spent up to now is     9131.8 secs

     total energy              =    -860.04615513 Ry
     Harris-Foulkes estimate   =    -860.04617218 Ry
     estimated scf accuracy    <       0.00002726 Ry

     total magnetization       =     2.00 Bohr mag/cell
     absolute magnetization    =     2.70 Bohr mag/cell

     iteration # 94     ecut=    70.00 Ry     beta= 0.30
     Davidson diagonalization with overlap
     ethr =  6.54E-09,  avg # of iterations =  2.0

     negative rho (up, down):  6.250E-04 2.076E-02

     total cpu time spent up to now is     9236.1 secs

     total energy              =    -860.04616063 Ry
     Harris-Foulkes estimate   =    -860.04616196 Ry
     estimated scf accuracy    <       0.00002367 Ry

     total magnetization       =     2.00 Bohr mag/cell
     absolute magnetization    =     2.70 Bohr mag/cell

     iteration # 95     ecut=    70.00 Ry     beta= 0.30
     Davidson diagonalization with overlap
     ethr =  6.54E-09,  avg # of iterations =  2.0

     negative rho (up, down):  6.248E-04 1.829E-02

     total cpu time spent up to now is     9337.4 secs

     total energy              =    -860.04616715 Ry
     Harris-Foulkes estimate   =    -860.04616410 Ry
     estimated scf accuracy    <       0.00001236 Ry

     total magnetization       =     2.00 Bohr mag/cell
     absolute magnetization    =     2.70 Bohr mag/cell

     iteration # 96     ecut=    70.00 Ry     beta= 0.30
     Davidson diagonalization with overlap
     ethr =  5.77E-09,  avg # of iterations =  1.5

     negative rho (up, down):  6.253E-04 1.778E-02

     total cpu time spent up to now is     9428.4 secs

     total energy              =    -860.04616469 Ry
     Harris-Foulkes estimate   =    -860.04616733 Ry
     estimated scf accuracy    <       0.00001470 Ry

     total magnetization       =     2.00 Bohr mag/cell
     absolute magnetization    =     2.70 Bohr mag/cell

     iteration # 97     ecut=    70.00 Ry     beta= 0.30
     Davidson diagonalization with overlap
     ethr =  5.77E-09,  avg # of iterations =  1.0

     negative rho (up, down):  6.254E-04 1.758E-02

     total cpu time spent up to now is     9518.8 secs

     total energy              =    -860.04616436 Ry
     Harris-Foulkes estimate   =    -860.04616497 Ry
     estimated scf accuracy    <       0.00001483 Ry

     total magnetization       =     2.00 Bohr mag/cell
     absolute magnetization    =     2.70 Bohr mag/cell

     iteration # 98     ecut=    70.00 Ry     beta= 0.30
     Davidson diagonalization with overlap
     ethr =  5.77E-09,  avg # of iterations =  1.0

     negative rho (up, down):  6.255E-04 1.754E-02

     total cpu time spent up to now is     9609.4 secs

     total energy              =    -860.04616375 Ry
     Harris-Foulkes estimate   =    -860.04616451 Ry
     estimated scf accuracy    <       0.00001451 Ry

     total magnetization       =     2.00 Bohr mag/cell
     absolute magnetization    =     2.70 Bohr mag/cell

     iteration # 99     ecut=    70.00 Ry     beta= 0.30
     Davidson diagonalization with overlap
     ethr =  5.77E-09,  avg # of iterations =  2.0

     negative rho (up, down):  6.255E-04 1.728E-02

     total cpu time spent up to now is     9701.0 secs

     total energy              =    -860.04616401 Ry
     Harris-Foulkes estimate   =    -860.04616400 Ry
     estimated scf accuracy    <       0.00001382 Ry

     total magnetization       =     2.00 Bohr mag/cell
     absolute magnetization    =     2.70 Bohr mag/cell

     iteration #100     ecut=    70.00 Ry     beta= 0.30
     Davidson diagonalization with overlap
     ethr =  5.77E-09,  avg # of iterations =  1.0

     negative rho (up, down):  6.251E-04 1.650E-02

     Magnetic moment per site:
     atom:    1    charge:    0.2111    magn:   -0.0002    constr:    0.0000
     atom:    2    charge:    0.2133    magn:    0.0061    constr:    0.0000
     atom:    3    charge:    1.7169    magn:   -0.0091    constr:    0.0000
     atom:    4    charge:    1.7156    magn:    0.0131    constr:    0.0000
     atom:    5    charge:    1.7174    magn:   -0.0054    constr:    0.0000
     atom:    6    charge:    1.7144    magn:    0.0047    constr:    0.0000
     atom:    7    charge:    1.7174    magn:   -0.0054    constr:    0.0000
     atom:    8    charge:    1.7156    magn:    0.0131    constr:    0.0000
     atom:    9    charge:    1.7169    magn:   -0.0091    constr:    0.0000
     atom:   10    charge:    1.7152    magn:    0.0496    constr:    0.0000
     atom:   11    charge:    1.7168    magn:   -0.0115    constr:    0.0000
     atom:   12    charge:    1.7153    magn:    0.0497    constr:    0.0000
     atom:   13    charge:    1.7167    magn:   -0.0123    constr:    0.0000
     atom:   14    charge:    1.7157    magn:    0.0404    constr:    0.0000
     atom:   15    charge:    1.7136    magn:   -0.0085    constr:    0.0000
     atom:   16    charge:    1.7114    magn:    0.0520    constr:    0.0000
     atom:   17    charge:    1.7227    magn:   -0.0089    constr:    0.0000
     atom:   18    charge:    1.7114    magn:    0.0520    constr:    0.0000
     atom:   19    charge:    1.7136    magn:   -0.0085    constr:    0.0000
     atom:   20    charge:    1.7157    magn:    0.0404    constr:    0.0000
     atom:   21    charge:    1.7167    magn:   -0.0123    constr:    0.0000
     atom:   22    charge:    1.7177    magn:    0.0323    constr:    0.0000
     atom:   23    charge:    1.7159    magn:   -0.0068    constr:    0.0000
     atom:   24    charge:    1.7160    magn:    0.0102    constr:    0.0000
     atom:   25    charge:    1.7135    magn:   -0.0099    constr:    0.0000
     atom:   26    charge:    1.7130    magn:    0.0382    constr:    0.0000
     atom:   27    charge:    1.8527    magn:   -0.0123    constr:    0.0000
     atom:   28    charge:   11.1547    magn:    0.4963    constr:    0.0000
     atom:   29    charge:    1.8527    magn:   -0.0125    constr:    0.0000
     atom:   30    charge:    1.7130    magn:    0.0382    constr:    0.0000
     atom:   31    charge:    1.7135    magn:   -0.0099    constr:    0.0000
     atom:   32    charge:    1.7160    magn:    0.0102    constr:    0.0000
     atom:   33    charge:    1.7172    magn:   -0.0052    constr:    0.0000
     atom:   34    charge:    1.7148    magn:    0.0077    constr:    0.0000
     atom:   35    charge:    1.7172    magn:   -0.0052    constr:    0.0000
     atom:   36    charge:    1.7144    magn:    0.0036    constr:    0.0000
     atom:   37    charge:    1.7210    magn:   -0.0028    constr:    0.0000
     atom:   38    charge:    1.7144    magn:    0.0288    constr:    0.0000
     atom:   39    charge:    1.8513    magn:   -0.0056    constr:    0.0000
     atom:   40    charge:    1.7144    magn:    0.0289    constr:    0.0000
     atom:   41    charge:    1.7211    magn:   -0.0028    constr:    0.0000
     atom:   42    charge:    1.7144    magn:    0.0036    constr:    0.0000
     atom:   43    charge:    1.7173    magn:   -0.0042    constr:    0.0000
     atom:   44    charge:    1.7145    magn:    0.0098    constr:    0.0000
     atom:   45    charge:    1.7223    magn:    0.0011    constr:    0.0000
     atom:   46    charge:    1.7145    magn:    0.0098    constr:    0.0000
     atom:   47    charge:    1.7173    magn:   -0.0042    constr:    0.0000
     atom:   48    charge:    1.7151    magn:    0.0156    constr:    0.0000
     atom:   49    charge:    1.7126    magn:   -0.0063    constr:    0.0000
     atom:   50    charge:    1.7181    magn:    0.0199    constr:    0.0000
     atom:   51    charge:    1.7126    magn:   -0.0063    constr:    0.0000
     atom:   52    charge:    1.7151    magn:    0.0156    constr:    0.0000

     total cpu time spent up to now is     9791.6 secs

     total energy              =    -860.04617051 Ry
     Harris-Foulkes estimate   =    -860.04616404 Ry
     estimated scf accuracy    <       0.00001338 Ry

     total magnetization       =     2.00 Bohr mag/cell
     absolute magnetization    =     2.70 Bohr mag/cell

     iteration #101     ecut=    70.00 Ry     beta= 0.30
     Davidson diagonalization with overlap
     ethr =  5.77E-09,  avg # of iterations =  2.0

     negative rho (up, down):  6.253E-04 1.700E-02

     total cpu time spent up to now is     9894.3 secs

     total energy              =    -860.04617217 Ry
     Harris-Foulkes estimate   =    -860.04617413 Ry
     estimated scf accuracy    <       0.00002186 Ry

     total magnetization       =     2.00 Bohr mag/cell
     absolute magnetization    =     2.70 Bohr mag/cell

     iteration #102     ecut=    70.00 Ry     beta= 0.30
     Davidson diagonalization with overlap
     ethr =  5.77E-09,  avg # of iterations =  1.5

     negative rho (up, down):  6.261E-04 2.223E-02

     total cpu time spent up to now is     9985.4 secs

     total energy              =    -860.04613102 Ry
     Harris-Foulkes estimate   =    -860.04617231 Ry
     estimated scf accuracy    <       0.00002182 Ry

     total magnetization       =     2.00 Bohr mag/cell
     absolute magnetization    =     2.70 Bohr mag/cell

     iteration #103     ecut=    70.00 Ry     beta= 0.30
     Davidson diagonalization with overlap
     ethr =  5.77E-09,  avg # of iterations =  3.0

     negative rho (up, down):  6.259E-04 1.947E-02

     total cpu time spent up to now is    10095.3 secs

     total energy              =    -860.04615256 Ry
     Harris-Foulkes estimate   =    -860.04615155 Ry
     estimated scf accuracy    <       0.00000630 Ry

     total magnetization       =     2.00 Bohr mag/cell
     absolute magnetization    =     2.70 Bohr mag/cell

     iteration #104     ecut=    70.00 Ry     beta= 0.30
     Davidson diagonalization with overlap
     ethr =  2.94E-09,  avg # of iterations =  2.0

     negative rho (up, down):  6.256E-04 1.787E-02

     total cpu time spent up to now is    10192.5 secs

     total energy              =    -860.04615466 Ry
     Harris-Foulkes estimate   =    -860.04615336 Ry
     estimated scf accuracy    <       0.00000469 Ry

     total magnetization       =     2.00 Bohr mag/cell
     absolute magnetization    =     2.70 Bohr mag/cell

     iteration #105     ecut=    70.00 Ry     beta= 0.30
     Davidson diagonalization with overlap
     ethr =  2.19E-09,  avg # of iterations =  2.0

     negative rho (up, down):  6.253E-04 1.667E-02

     total cpu time spent up to now is    10286.2 secs

     total energy              =    -860.04615669 Ry
     Harris-Foulkes estimate   =    -860.04615536 Ry
     estimated scf accuracy    <       0.00001161 Ry

     total magnetization       =     2.00 Bohr mag/cell
     absolute magnetization    =     2.70 Bohr mag/cell

     iteration #106     ecut=    70.00 Ry     beta= 0.30
     Davidson diagonalization with overlap
     ethr =  2.19E-09,  avg # of iterations =  2.0

     negative rho (up, down):  6.252E-04 1.616E-02

     total cpu time spent up to now is    10379.2 secs

     total energy              =    -860.04615836 Ry
     Harris-Foulkes estimate   =    -860.04615726 Ry
     estimated scf accuracy    <       0.00000396 Ry

     total magnetization       =     2.00 Bohr mag/cell
     absolute magnetization    =     2.70 Bohr mag/cell

     iteration #107     ecut=    70.00 Ry     beta= 0.30
     Davidson diagonalization with overlap
     ethr =  1.85E-09,  avg # of iterations =  2.0

     negative rho (up, down):  6.251E-04 1.548E-02

     total cpu time spent up to now is    10477.0 secs

     total energy              =    -860.04615969 Ry
     Harris-Foulkes estimate   =    -860.04615880 Ry
     estimated scf accuracy    <       0.00000381 Ry

     total magnetization       =     2.00 Bohr mag/cell
     absolute magnetization    =     2.70 Bohr mag/cell

     iteration #108     ecut=    70.00 Ry     beta= 0.30
     Davidson diagonalization with overlap
     ethr =  1.78E-09,  avg # of iterations =  2.0

     negative rho (up, down):  6.253E-04 1.579E-02

     total cpu time spent up to now is    10571.5 secs

     total energy              =    -860.04615721 Ry
     Harris-Foulkes estimate   =    -860.04615991 Ry
     estimated scf accuracy    <       0.00000404 Ry

     total magnetization       =     2.00 Bohr mag/cell
     absolute magnetization    =     2.70 Bohr mag/cell

     iteration #109     ecut=    70.00 Ry     beta= 0.30
     Davidson diagonalization with overlap
     ethr =  1.78E-09,  avg # of iterations =  2.0

     negative rho (up, down):  6.251E-04 1.563E-02

     total cpu time spent up to now is    10670.7 secs

     total energy              =    -860.04615861 Ry
     Harris-Foulkes estimate   =    -860.04615775 Ry
     estimated scf accuracy    <       0.00000320 Ry

     total magnetization       =     2.00 Bohr mag/cell
     absolute magnetization    =     2.70 Bohr mag/cell

     iteration #110     ecut=    70.00 Ry     beta= 0.30
     Davidson diagonalization with overlap
     ethr =  1.49E-09,  avg # of iterations =  2.0

     negative rho (up, down):  6.251E-04 1.558E-02

     total cpu time spent up to now is    10764.1 secs

     total energy              =    -860.04615898 Ry
     Harris-Foulkes estimate   =    -860.04615882 Ry
     estimated scf accuracy    <       0.00000380 Ry

     total magnetization       =     2.00 Bohr mag/cell
     absolute magnetization    =     2.70 Bohr mag/cell

     iteration #111     ecut=    70.00 Ry     beta= 0.30
     Davidson diagonalization with overlap
     ethr =  1.49E-09,  avg # of iterations =  2.0

     negative rho (up, down):  6.251E-04 1.548E-02

     total cpu time spent up to now is    10861.4 secs

     total energy              =    -860.04615910 Ry
     Harris-Foulkes estimate   =    -860.04615929 Ry
     estimated scf accuracy    <       0.00000393 Ry

     total magnetization       =     2.00 Bohr mag/cell
     absolute magnetization    =     2.70 Bohr mag/cell

[...]

     iteration #165     ecut=    70.00 Ry     beta= 0.30
     Davidson diagonalization with overlap
     ethr =  1.49E-09,  avg # of iterations =  2.0

     negative rho (up, down):  6.250E-04 2.549E-02

     total cpu time spent up to now is    16460.3 secs

     total energy              =    -860.04628454 Ry
     Harris-Foulkes estimate   =    -860.04626054 Ry
     estimated scf accuracy    <       0.00010952 Ry

     total magnetization       =     2.00 Bohr mag/cell
     absolute magnetization    =     2.70 Bohr mag/cell

     iteration #166     ecut=    70.00 Ry     beta= 0.30
     Davidson diagonalization with overlap
     ethr =  1.49E-09,  avg # of iterations =  3.0

     negative rho (up, down):  6.251E-04 2.662E-02

     total cpu time spent up to now is    16581.7 secs

     total energy              =    -860.04630620 Ry
     Harris-Foulkes estimate   =    -860.04630113 Ry
     estimated scf accuracy    <       0.00024462 Ry

     total magnetization       =     2.00 Bohr mag/cell
     absolute magnetization    =     2.70 Bohr mag/cell

     iteration #167     ecut=    70.00 Ry     beta= 0.30
     Davidson diagonalization with overlap
     ethr =  1.49E-09,  avg # of iterations =  3.0

     negative rho (up, down):  6.253E-04 3.070E-02

     total cpu time spent up to now is    16694.3 secs

     total energy              =    -860.04629819 Ry
     Harris-Foulkes estimate   =    -860.04631406 Ry
     estimated scf accuracy    <       0.00015281 Ry

     total magnetization       =     2.00 Bohr mag/cell
     absolute magnetization    =     2.70 Bohr mag/cell

     iteration #168     ecut=    70.00 Ry     beta= 0.30
     Davidson diagonalization with overlap
     ethr =  1.49E-09,  avg # of iterations =  3.0

     negative rho (up, down):  6.253E-04 3.165E-02

     total cpu time spent up to now is    16811.8 secs

     total energy              =    -860.04631914 Ry
     Harris-Foulkes estimate   =    -860.04631506 Ry
     estimated scf accuracy    <       0.00014771 Ry

     total magnetization       =     2.00 Bohr mag/cell
     absolute magnetization    =     2.70 Bohr mag/cell

     iteration #169     ecut=    70.00 Ry     beta= 0.30
     Davidson diagonalization with overlap
     ethr =  1.49E-09,  avg # of iterations =  2.0

     negative rho (up, down):  6.252E-04 3.163E-02

     total cpu time spent up to now is    16911.4 secs

     total energy              =    -860.04633283 Ry
     Harris-Foulkes estimate   =    -860.04631976 Ry
     estimated scf accuracy    <       0.00014796 Ry

     total magnetization       =     2.00 Bohr mag/cell
     absolute magnetization    =     2.70 Bohr mag/cell

     iteration #170     ecut=    70.00 Ry     beta= 0.30
     Davidson diagonalization with overlap
     ethr =  1.49E-09,  avg # of iterations =  3.0

     negative rho (up, down):  6.250E-04 2.829E-02

     total cpu time spent up to now is    17025.7 secs

     total energy              =    -860.04638896 Ry
     Harris-Foulkes estimate   =    -860.04633766 Ry
     estimated scf accuracy    <       0.00017481 Ry

     total magnetization       =     2.00 Bohr mag/cell
     absolute magnetization    =     2.70 Bohr mag/cell

     iteration #171     ecut=    70.00 Ry     beta= 0.30
     Davidson diagonalization with overlap
     ethr =  1.49E-09,  avg # of iterations =  4.0

     negative rho (up, down):  6.254E-04 3.193E-02

     total cpu time spent up to now is    17153.6 secs

     total energy              =    -860.04642286 Ry
     Harris-Foulkes estimate   =    -860.04641759 Ry
     estimated scf accuracy    <       0.00031282 Ry

     total magnetization       =     2.00 Bohr mag/cell
     absolute magnetization    =     2.71 Bohr mag/cell

     iteration #172     ecut=    70.00 Ry     beta= 0.30
     Davidson diagonalization with overlap
     ethr =  1.49E-09,  avg # of iterations =  3.0

     negative rho (up, down):  6.260E-04 3.862E-02

     total cpu time spent up to now is    17264.0 secs

     total energy              =    -860.04640001 Ry
     Harris-Foulkes estimate   =    -860.04643042 Ry
     estimated scf accuracy    <       0.00037091 Ry

     total magnetization       =     2.00 Bohr mag/cell
     absolute magnetization    =     2.71 Bohr mag/cell

     iteration #173     ecut=    70.00 Ry     beta= 0.30
     Davidson diagonalization with overlap
     ethr =  1.49E-09,  avg # of iterations =  3.0

     negative rho (up, down):  6.272E-04 5.155E-02

     total cpu time spent up to now is    17373.4 secs

     total energy              =    -860.04624689 Ry
     Harris-Foulkes estimate   =    -860.04640704 Ry
     estimated scf accuracy    <       0.00043948 Ry

     total magnetization       =     2.00 Bohr mag/cell
     absolute magnetization    =     2.72 Bohr mag/cell

     iteration #174     ecut=    70.00 Ry     beta= 0.30
     Davidson diagonalization with overlap
     ethr =  1.49E-09,  avg # of iterations =  4.0

     negative rho (up, down):  6.303E-04 7.163E-02

     total cpu time spent up to now is    17504.4 secs

     total energy              =    -860.04589617 Ry
     Harris-Foulkes estimate   =    -860.04630720 Ry
     estimated scf accuracy    <       0.00017113 Ry

     total magnetization       =     2.00 Bohr mag/cell
     absolute magnetization    =     2.72 Bohr mag/cell

     iteration #175     ecut=    70.00 Ry     beta= 0.30
     Davidson diagonalization with overlap
     ethr =  1.49E-09,  avg # of iterations =  4.0

     negative rho (up, down):  6.289E-04 6.092E-02

     total cpu time spent up to now is    17648.0 secs

     total energy              =    -860.04611393 Ry
     Harris-Foulkes estimate   =    -860.04612456 Ry
     estimated scf accuracy    <       0.00002875 Ry

     total magnetization       =     2.00 Bohr mag/cell
     absolute magnetization    =     2.72 Bohr mag/cell

     iteration #176     ecut=    70.00 Ry     beta= 0.30
     Davidson diagonalization with overlap
     ethr =  1.49E-09,  avg # of iterations =  3.5

     negative rho (up, down):  6.271E-04 4.480E-02

     total cpu time spent up to now is    17769.9 secs

     total energy              =    -860.04614406 Ry
     Harris-Foulkes estimate   =    -860.04612817 Ry
     estimated scf accuracy    <       0.00000269 Ry

     total magnetization       =     2.00 Bohr mag/cell
     absolute magnetization    =     2.72 Bohr mag/cell

     iteration #177     ecut=    70.00 Ry     beta= 0.30
     Davidson diagonalization with overlap
     ethr =  1.26E-09,  avg # of iterations =  2.5

     negative rho (up, down):  6.264E-04 3.479E-02

     total cpu time spent up to now is    17866.3 secs

     total energy              =    -860.04615119 Ry
     Harris-Foulkes estimate   =    -860.04614499 Ry
     estimated scf accuracy    <       0.00000500 Ry

     total magnetization       =     2.00 Bohr mag/cell
     absolute magnetization    =     2.72 Bohr mag/cell

     iteration #178     ecut=    70.00 Ry     beta= 0.30
     Davidson diagonalization with overlap
     ethr =  1.26E-09,  avg # of iterations =  2.0

     negative rho (up, down):  6.247E-04 1.491E-02

     Magnetic moment per site:
     atom:    1    charge:    0.2111    magn:   -0.0002    constr:    0.0000
     atom:    2    charge:    0.2133    magn:    0.0061    constr:    0.0000
     atom:    3    charge:    1.7169    magn:   -0.0093    constr:    0.0000
     atom:    4    charge:    1.7156    magn:    0.0132    constr:    0.0000
     atom:    5    charge:    1.7174    magn:   -0.0054    constr:    0.0000
     atom:    6    charge:    1.7144    magn:    0.0046    constr:    0.0000
     atom:    7    charge:    1.7174    magn:   -0.0054    constr:    0.0000
     atom:    8    charge:    1.7156    magn:    0.0132    constr:    0.0000
     atom:    9    charge:    1.7169    magn:   -0.0093    constr:    0.0000
     atom:   10    charge:    1.7152    magn:    0.0504    constr:    0.0000
     atom:   11    charge:    1.7168    magn:   -0.0117    constr:    0.0000
     atom:   12    charge:    1.7152    magn:    0.0503    constr:    0.0000
     atom:   13    charge:    1.7167    magn:   -0.0126    constr:    0.0000
     atom:   14    charge:    1.7156    magn:    0.0413    constr:    0.0000
     atom:   15    charge:    1.7136    magn:   -0.0089    constr:    0.0000
     atom:   16    charge:    1.7113    magn:    0.0531    constr:    0.0000
     atom:   17    charge:    1.7228    magn:   -0.0094    constr:    0.0000
     atom:   18    charge:    1.7113    magn:    0.0533    constr:    0.0000
     atom:   19    charge:    1.7136    magn:   -0.0090    constr:    0.0000
     atom:   20    charge:    1.7156    magn:    0.0414    constr:    0.0000
     atom:   21    charge:    1.7167    magn:   -0.0127    constr:    0.0000
     atom:   22    charge:    1.7177    magn:    0.0323    constr:    0.0000
     atom:   23    charge:    1.7159    magn:   -0.0068    constr:    0.0000
     atom:   24    charge:    1.7160    magn:    0.0101    constr:    0.0000
     atom:   25    charge:    1.7135    magn:   -0.0103    constr:    0.0000
     atom:   26    charge:    1.7130    magn:    0.0386    constr:    0.0000
     atom:   27    charge:    1.8527    magn:   -0.0133    constr:    0.0000
     atom:   28    charge:   11.1544    magn:    0.5003    constr:    0.0000
     atom:   29    charge:    1.8527    magn:   -0.0135    constr:    0.0000
     atom:   30    charge:    1.7129    magn:    0.0388    constr:    0.0000
     atom:   31    charge:    1.7135    magn:   -0.0103    constr:    0.0000
     atom:   32    charge:    1.7160    magn:    0.0101    constr:    0.0000
     atom:   33    charge:    1.7172    magn:   -0.0052    constr:    0.0000
     atom:   34    charge:    1.7148    magn:    0.0074    constr:    0.0000
     atom:   35    charge:    1.7172    magn:   -0.0051    constr:    0.0000
     atom:   36    charge:    1.7144    magn:    0.0033    constr:    0.0000
     atom:   37    charge:    1.7211    magn:   -0.0026    constr:    0.0000
     atom:   38    charge:    1.7144    magn:    0.0282    constr:    0.0000
     atom:   39    charge:    1.8513    magn:   -0.0060    constr:    0.0000
     atom:   40    charge:    1.7144    magn:    0.0282    constr:    0.0000
     atom:   41    charge:    1.7211    magn:   -0.0027    constr:    0.0000
     atom:   42    charge:    1.7144    magn:    0.0033    constr:    0.0000
     atom:   43    charge:    1.7173    magn:   -0.0041    constr:    0.0000
     atom:   44    charge:    1.7145    magn:    0.0095    constr:    0.0000
     atom:   45    charge:    1.7223    magn:    0.0014    constr:    0.0000
     atom:   46    charge:    1.7145    magn:    0.0095    constr:    0.0000
     atom:   47    charge:    1.7173    magn:   -0.0041    constr:    0.0000
     atom:   48    charge:    1.7151    magn:    0.0157    constr:    0.0000
     atom:   49    charge:    1.7126    magn:   -0.0062    constr:    0.0000
     atom:   50    charge:    1.7182    magn:    0.0194    constr:    0.0000
     atom:   51    charge:    1.7126    magn:   -0.0062    constr:    0.0000
     atom:   52    charge:    1.7151    magn:    0.0157    constr:    0.0000

     total cpu time spent up to now is    17966.9 secs

     End of self-consistent calculation

 ------ SPIN UP ------------


          k = 0.0000 0.0000 0.0000 ( 87777 PWs)   bands (ev):

   -89.0243 -55.9422 -55.7783 -54.3266 -19.8296 -19.0128 -18.9686 -18.9005
   -18.8956 -18.8867 -18.5765 -17.1512 -17.1225 -17.1200 -17.0667 -17.0535
   -16.7506 -16.2870 -16.2837 -16.1805 -16.1462 -16.1407 -15.4798 -14.2156
   -14.1766 -14.1086 -14.0482 -14.0414 -13.4244 -13.1280 -13.1122 -13.0892
   -12.8280 -12.8267 -12.3993 -11.9141 -11.9133 -11.7140 -11.4771 -11.4745
   -10.6187  -9.8143  -9.8039  -9.5004  -9.3713  -9.3663  -9.2765  -9.2489
    -9.2473  -9.2369  -8.7938  -8.7901  -8.2839  -8.2787  -8.1569  -8.0055
    -7.8910  -7.5033  -7.4912  -7.3807  -7.3172  -7.2585  -7.0697  -7.0679
    -6.9779  -6.8817  -6.8634  -6.8384  -6.7783  -6.6207  -6.6050  -6.5881
    -6.5853  -6.5686  -6.5349  -6.2419  -5.8021  -5.7420  -5.7374  -5.6984
    -5.4584  -5.4567  -5.4236  -5.0371  -4.9416  -4.8005  -4.7648  -4.7562
    -4.5693  -4.5474  -4.4345  -4.3141  -4.2904  -3.9168  -3.9124  -3.8338
    -3.7401  -3.7385  -3.1918  -2.9373  -2.9008  -1.9244  -1.8561  -1.8484
    -1.5536  -1.3267  -1.2019  -0.9468   0.8663   0.9159   0.9217   1.4062
     1.4306   1.5431   2.1859   2.2111   2.5430   2.7208   2.7276   2.8039
     3.2913   3.3059   3.4441   3.6915   3.6965   3.7571   3.7645   3.7755

     occupation numbers 
     1.0000   1.0000   1.0000   1.0000   1.0000   1.0000   1.0000   1.0000
     1.0000   1.0000   1.0000   1.0000   1.0000   1.0000   1.0000   1.0000
     1.0000   1.0000   1.0000   1.0000   1.0000   1.0000   1.0000   1.0000
     1.0000   1.0000   1.0000   1.0000   1.0000   1.0000   1.0000   1.0000
     1.0000   1.0000   1.0000   1.0000   1.0000   1.0000   1.0000   1.0000
     1.0000   1.0000   1.0000   1.0000   1.0000   1.0000   1.0000   1.0000
     1.0000   1.0000   1.0000   1.0000   1.0000   1.0000   1.0000   1.0000
     1.0000   1.0000   1.0000   1.0000   1.0000   1.0000   1.0000   1.0000
     1.0000   1.0000   1.0000   1.0000   1.0000   1.0000   1.0000   1.0000
     1.0000   1.0000   1.0000   1.0000   1.0000   1.0000   1.0000   1.0000
     1.0000   1.0000   1.0000   1.0000   1.0000   1.0000   1.0000   1.0000
     1.0000   1.0000   1.0000   1.0000   1.0000   1.0000   1.0000   1.0000
     1.0000   1.0000   1.0000   1.0000   1.0000   1.0000   1.0000   1.0000
     1.0000   1.0000   1.0000   1.0003   0.0000   0.0000   0.0000   0.0000
     0.0000   0.0000   0.0000   0.0000   0.0000   0.0000   0.0000   0.0000
     0.0000   0.0000   0.0000   0.0000   0.0000   0.0000   0.0000   0.0000

 ------ SPIN DOWN ----------


          k = 0.0000 0.0000 0.0000 ( 87777 PWs)   bands (ev):

   -88.2261 -55.2408 -55.1992 -53.3086 -19.7957 -18.9689 -18.9325 -18.8787
   -18.8656 -18.8656 -18.5254 -17.1139 -17.0991 -17.0956 -17.0215 -17.0117
   -16.7237 -16.2484 -16.2482 -16.1524 -16.1090 -16.1055 -15.4537 -14.1480
   -14.1263 -14.0631 -14.0385 -14.0301 -13.4186 -13.1021 -13.0931 -13.0643
   -12.8101 -12.8084 -12.3717 -11.8815 -11.8787 -11.6923 -11.4557 -11.4550
   -10.5898  -9.7562  -9.7514  -9.4750  -9.3419  -9.3415  -9.2623  -9.2300
    -9.2288  -9.2217  -8.7796  -8.7773  -8.2447  -8.2384  -8.1302  -7.9259
    -7.8766  -7.4892  -7.4783  -7.3163  -7.2201  -7.0914  -7.0187  -7.0137
    -6.8505  -6.8276  -6.8202  -6.7755  -6.7659  -6.6052  -6.5908  -6.5789
    -6.5747  -6.5587  -6.5183  -6.1466  -5.6892  -5.6783  -5.5437  -5.4779
    -5.4172  -5.4123  -5.2616  -5.0246  -4.9341  -4.7304  -4.6944  -4.6880
    -4.4855  -4.4691  -4.3689  -4.1967  -4.1952  -3.8114  -3.8091  -3.7582
    -3.7264  -3.7238  -3.1318  -2.7192  -2.7039  -1.8308  -1.8271  -1.8016
    -0.9775  -0.9136  -0.8841  -0.8087   0.9545   0.9597   0.9870   1.5516
     1.5518   1.6514   2.3705   2.3920   2.5553   2.8325   2.8345   2.8710
     3.4300   3.4377   3.5345   3.7060   3.7111   3.7616   3.7708   3.7791

     occupation numbers 
     1.0000   1.0000   1.0000   1.0000   1.0000   1.0000   1.0000   1.0000
     1.0000   1.0000   1.0000   1.0000   1.0000   1.0000   1.0000   1.0000
     1.0000   1.0000   1.0000   1.0000   1.0000   1.0000   1.0000   1.0000
     1.0000   1.0000   1.0000   1.0000   1.0000   1.0000   1.0000   1.0000
     1.0000   1.0000   1.0000   1.0000   1.0000   1.0000   1.0000   1.0000
     1.0000   1.0000   1.0000   1.0000   1.0000   1.0000   1.0000   1.0000
     1.0000   1.0000   1.0000   1.0000   1.0000   1.0000   1.0000   1.0000
     1.0000   1.0000   1.0000   1.0000   1.0000   1.0000   1.0000   1.0000
     1.0000   1.0000   1.0000   1.0000   1.0000   1.0000   1.0000   1.0000
     1.0000   1.0000   1.0000   1.0000   1.0000   1.0000   1.0000   1.0000
     1.0000   1.0000   1.0000   1.0000   1.0000   1.0000   1.0000   1.0000
     1.0000   1.0000   1.0000   1.0000   1.0000   1.0000   1.0000   1.0000
     1.0000   1.0000   1.0000   1.0000   1.0000   1.0000   1.0000   1.0000
     1.0000   0.9893   0.0104   0.0000   0.0000   0.0000   0.0000   0.0000
     0.0000   0.0000   0.0000   0.0000   0.0000   0.0000   0.0000   0.0000
     0.0000   0.0000   0.0000   0.0000   0.0000   0.0000   0.0000   0.0000

     the Fermi energy is    -0.9014 ev

!    total energy              =    -860.04616133 Ry
     Harris-Foulkes estimate   =    -860.04615190 Ry
     estimated scf accuracy    <       0.00000039 Ry

     The total energy is the sum of the following terms:

     one-electron contribution =   -2808.47080486 Ry
     hartree contribution      =    1448.15355091 Ry
     xc contribution           =    -259.37665591 Ry
     ewald contribution        =     759.64769113 Ry
     smearing contrib. (-TS)   =       0.00005740 Ry

     total magnetization       =     2.00 Bohr mag/cell
     absolute magnetization    =     2.72 Bohr mag/cell

     convergence has been achieved in 178 iterations

     Writing output data file distance-2.2.save/

     init_run     :     69.89s CPU     71.23s WALL (       1 calls)
     electrons    :  17557.58s CPU  17894.63s WALL (       1 calls)

     Called by init_run:
     wfcinit      :     41.27s CPU     41.59s WALL (       1 calls)
     wfcinit:atom :      0.04s CPU      0.08s WALL (       2 calls)
     wfcinit:wfcr :     40.87s CPU     41.08s WALL (       2 calls)
     potinit      :     12.06s CPU     12.53s WALL (       1 calls)
     hinit0       :      8.02s CPU      8.04s WALL (       1 calls)

     Called by electrons:
     c_bands      :  11291.93s CPU  11354.00s WALL (     178 calls)
     sum_band     :   3642.99s CPU   3746.16s WALL (     178 calls)
     v_of_rho     :   1269.69s CPU   1344.17s WALL (     179 calls)
     v_h          :     13.20s CPU     13.67s WALL (     179 calls)
     v_xc         :   1256.49s CPU   1330.50s WALL (     179 calls)
     newd         :   1259.31s CPU   1355.30s WALL (     179 calls)
     mix_rho      :     67.51s CPU     68.72s WALL (     178 calls)

     Called by c_bands:
     init_us_2    :     32.02s CPU     32.11s WALL (     714 calls)
     cegterg      :  11200.41s CPU  11262.18s WALL (     356 calls)

     Called by sum_band:
     sum_band:bec :      0.29s CPU      0.29s WALL (     356 calls)
     addusdens    :   2241.08s CPU   2336.44s WALL (     178 calls)

     Called by *egterg:
     h_psi        :   5804.07s CPU   5850.12s WALL (    1197 calls)
     s_psi        :   1928.40s CPU   1928.90s WALL (    1197 calls)
     g_psi        :      6.28s CPU      6.31s WALL (     839 calls)
     cdiaghg      :     80.81s CPU     80.83s WALL (    1195 calls)
     cegterg:over :   1392.83s CPU   1393.16s WALL (     839 calls)
     cegterg:upda :    829.04s CPU    833.10s WALL (     839 calls)
     cegterg:last :    588.28s CPU    588.35s WALL (     356 calls)

     Called by h_psi:
     h_psi:pot    :   5797.35s CPU   5835.59s WALL (    1197 calls)
     h_psi:calbec :   1951.60s CPU   1952.14s WALL (    1197 calls)
     vloc_psi     :   1918.75s CPU   1956.14s WALL (    1197 calls)
     add_vuspsi   :   1926.98s CPU   1927.29s WALL (    1197 calls)

     General routines
     calbec       :   2802.83s CPU   2803.62s WALL (    1553 calls)
     fft          :    729.51s CPU    758.13s WALL (   13419 calls)
     ffts         :     13.02s CPU     13.45s WALL (     714 calls)
     fftw         :   2051.27s CPU   2091.17s WALL (  254818 calls)
     interpolate  :     30.00s CPU     30.88s WALL (     358 calls)

     Parallel routines
     fft_scatt_xy :    498.72s CPU    505.91s WALL (  268951 calls)
     fft_scatt_yz :    946.94s CPU    994.31s WALL (  268951 calls)

     PWSCF        :      4h53m CPU      4h59m WALL


   This run was terminated on:  17:52: 3   7Nov2022            

=------------------------------------------------------------------------------=
   JOB DONE.
=------------------------------------------------------------------------------=
