
     Program PWSCF v.6.4.1 starts on  6Nov2022 at 11: 3:12 

     This program is part of the open-source Quantum ESPRESSO suite
     for quantum simulation of materials; please cite
         "P. Giannozzi et al., J. Phys.:Condens. Matter 21 395502 (2009);
         "P. Giannozzi et al., J. Phys.:Condens. Matter 29 465901 (2017);
          URL http://www.quantum-espresso.org", 
     in publications or presentations arising from this work. More details at
     http://www.quantum-espresso.org/quote

     Parallel version (MPI), running on     6 processors

     MPI processes distributed on     1 nodes
     R & G space division:  proc/nbgrp/npool/nimage =       6
     Reading input from distance-5.0.in

     Current dimensions of program PWSCF are:
     Max number of different atomic species (ntypx) = 10
     Max number of k-points (npk) =  40000
     Max angular momentum in pseudopotentials (lmaxx) =  3

     IMPORTANT: XC functional enforced from input :
     Exchange-correlation      = RVV10 ( 1  4 13  4 3 0)
     Any further DFT definition will be discarded
     Please, verify this is what you really want

               file H.pbe-rrkjus.UPF: wavefunction(s)  1S renormalized

     Subspace diagonalization in iterative solution of the eigenvalue problem:
     a serial algorithm will be used


     Parallelization info
     --------------------
     sticks:   dense  smooth     PW     G-vecs:    dense   smooth      PW
     Min        3051    1746    432               270999   117096   14629
     Max        3053    1747    437               271001   117099   14630
     Sum       18313   10477   2611              1626001   702581   87777



     bravais-lattice index     =            4
     lattice parameter (alat)  =      23.2937  a.u.
     unit-cell volume          =    8879.8548 (a.u.)^3
     number of atoms/cell      =           52
     number of atomic types    =            3
     number of electrons       =       214.00
     number of Kohn-Sham states=          128
     kinetic-energy cutoff     =      70.0000  Ry
     charge density cutoff     =     490.0000  Ry
     convergence threshold     =      1.0E-06
     mixing beta               =       0.3000
     number of iterations used =            4  plain     mixing
     Exchange-correlation      = RVV10 ( 1  4 13  4 3 0)

     celldm(1)=  23.293684  celldm(2)=   0.000000  celldm(3)=   0.811261
     celldm(4)=   0.000000  celldm(5)=   0.000000  celldm(6)=   0.000000

     crystal axes: (cart. coord. in units of alat)
               a(1) = (   1.000000   0.000000   0.000000 )  
               a(2) = (  -0.500000   0.866025   0.000000 )  
               a(3) = (   0.000000   0.000000   0.811261 )  

     reciprocal axes: (cart. coord. in units 2 pi/alat)
               b(1) = (  1.000000  0.577350 -0.000000 )  
               b(2) = (  0.000000  1.154701  0.000000 )  
               b(3) = (  0.000000 -0.000000  1.232649 )  


     PseudoPot. # 1 for H  read from file:
     /home/cristian/Escritorio/Proyecto_Grafeno/pseudopotenciales/H.pbe-rrkjus.UPF
     MD5 check sum: 7cc9d459525c9a0585f487a71c3c9563
     Pseudo is Ultrasoft, Zval =  1.0
     Generated by new atomic code, or converted to UPF format
     Using radial grid of 1061 points,  2 beta functions with: 
                l(1) =   0
                l(2) =   0
     Q(r) pseudized with 0 coefficients 


     PseudoPot. # 2 for C  read from file:
     /home/cristian/Escritorio/Proyecto_Grafeno/pseudopotenciales/C.pbe-n-rrkjus_psl.1.0.0.UPF
     MD5 check sum: 1fdd950c42eb37d8afe3dd2f8d12311e
     Pseudo is Ultrasoft + core correction, Zval =  4.0
     Generated using "atomic" code by A. Dal Corso v.6.3MaX
     Using radial grid of 1073 points,  4 beta functions with: 
                l(1) =   0
                l(2) =   0
                l(3) =   1
                l(4) =   1
     Q(r) pseudized with 0 coefficients 


     PseudoPot. # 3 for Fe read from file:
     /home/cristian/Escritorio/Proyecto_Grafeno/pseudopotenciales/Fe.pbe-spn-rrkjus_psl.1.0.0.UPF
     MD5 check sum: 72ea77fed8e64ab3a2ccf2804dfc1862
     Pseudo is Ultrasoft + core correction, Zval = 16.0
     Generated using "atomic" code by A. Dal Corso v.6.3
     Using radial grid of 1191 points,  6 beta functions with: 
                l(1) =   0
                l(2) =   0
                l(3) =   1
                l(4) =   1
                l(5) =   2
                l(6) =   2
     Q(r) pseudized with 0 coefficients 


     vdW kernel table read from file rVV10_kernel_table
     MD5 check sum: b8e2538accc0c0b3206b45ba4daaba6c

     atomic species   valence    mass     pseudopotential
        H              1.00     1.00794     H ( 1.00)
        C              4.00    12.01070     C ( 1.00)
        Fe            16.00    55.84500     Fe( 1.00)

     Starting magnetic structure 
     atomic species   magnetization
        H            0.500
        C            0.300
        Fe           0.800

     No symmetry found


                                    s                        frac. trans.

      isym =  1     identity                                     

 cryst.   s( 1) = (     1          0          0      )
                  (     0          1          0      )
                  (     0          0          1      )

 cart.    s( 1) = (  1.0000000  0.0000000  0.0000000 )
                  (  0.0000000  1.0000000  0.0000000 )
                  (  0.0000000  0.0000000  1.0000000 )


     point group C_1 (1)    
     there are  1 classes
     the character table:

       E    
A      1.00

     the symmetry operations in each class and the name of the first element:

     E        1
          identity                                               

   Cartesian axes

     site n.     atom                  positions (alat units)
         1           H   tau(   1) = (   0.2500000   0.4907477   0.4056306  )
         2           H   tau(   2) = (   0.2500000   0.4907477   0.4666433  )
         3           C   tau(   3) = (   0.0000000   0.0000000   0.0000000  )
         4           C   tau(   4) = (   0.0000000   0.1154701   0.0000000  )
         5           C   tau(   5) = (  -0.1000000   0.1732051   0.0000000  )
         6           C   tau(   6) = (  -0.1000000   0.2886751   0.0000000  )
         7           C   tau(   7) = (  -0.2000000   0.3464102   0.0000000  )
         8           C   tau(   8) = (  -0.2000000   0.4618802   0.0000000  )
         9           C   tau(   9) = (  -0.3000000   0.5196152   0.0000000  )
        10           C   tau(  10) = (  -0.3000000   0.6350853   0.0000000  )
        11           C   tau(  11) = (  -0.4000000   0.6928203   0.0000000  )
        12           C   tau(  12) = (  -0.4000000   0.8082904   0.0000000  )
        13           C   tau(  13) = (   0.2000000   0.0000000   0.0000000  )
        14           C   tau(  14) = (   0.2000000   0.1154701   0.0000000  )
        15           C   tau(  15) = (   0.1000000   0.1732051   0.0000000  )
        16           C   tau(  16) = (   0.1000000   0.2886751   0.0000000  )
        17           C   tau(  17) = (   0.0000000   0.3464102   0.0000000  )
        18           C   tau(  18) = (   0.0000000   0.4618802   0.0000000  )
        19           C   tau(  19) = (  -0.1000000   0.5196152   0.0000000  )
        20           C   tau(  20) = (  -0.1000000   0.6350853   0.0000000  )
        21           C   tau(  21) = (  -0.2000000   0.6928203   0.0000000  )
        22           C   tau(  22) = (  -0.2000000   0.8082904   0.0000000  )
        23           C   tau(  23) = (   0.4000000   0.0000000   0.0000000  )
        24           C   tau(  24) = (   0.4000000   0.1154701   0.0000000  )
        25           C   tau(  25) = (   0.3000000   0.1732051   0.0000000  )
        26           C   tau(  26) = (   0.3000000   0.2886751   0.0000000  )
        27           C   tau(  27) = (   0.2000000   0.3464102   0.0000000  )
        28           Fe  tau(  28) = (   0.2000000   0.4618802   0.0000000  )
        29           C   tau(  29) = (   0.1000000   0.5196152   0.0000000  )
        30           C   tau(  30) = (   0.1000000   0.6350853   0.0000000  )
        31           C   tau(  31) = (   0.0000000   0.6928203   0.0000000  )
        32           C   tau(  32) = (   0.0000000   0.8082904   0.0000000  )
        33           C   tau(  33) = (   0.6000000   0.0000000   0.0000000  )
        34           C   tau(  34) = (   0.6000000   0.1154701   0.0000000  )
        35           C   tau(  35) = (   0.5000000   0.1732051   0.0000000  )
        36           C   tau(  36) = (   0.5000000   0.2886751   0.0000000  )
        37           C   tau(  37) = (   0.4000000   0.3464102   0.0000000  )
        38           C   tau(  38) = (   0.4000000   0.4618802   0.0000000  )
        39           C   tau(  39) = (   0.3000000   0.5196152   0.0000000  )
        40           C   tau(  40) = (   0.3000000   0.6350853   0.0000000  )
        41           C   tau(  41) = (   0.2000000   0.6928203   0.0000000  )
        42           C   tau(  42) = (   0.2000000   0.8082904   0.0000000  )
        43           C   tau(  43) = (   0.8000000   0.0000000   0.0000000  )
        44           C   tau(  44) = (   0.8000000   0.1154701   0.0000000  )
        45           C   tau(  45) = (   0.7000000   0.1732051   0.0000000  )
        46           C   tau(  46) = (   0.7000000   0.2886751   0.0000000  )
        47           C   tau(  47) = (   0.6000000   0.3464102   0.0000000  )
        48           C   tau(  48) = (   0.6000000   0.4618802   0.0000000  )
        49           C   tau(  49) = (   0.5000000   0.5196152   0.0000000  )
        50           C   tau(  50) = (   0.5000000   0.6350853   0.0000000  )
        51           C   tau(  51) = (   0.4000000   0.6928203   0.0000000  )
        52           C   tau(  52) = (   0.4000000   0.8082904   0.0000000  )

   Crystallographic axes

     site n.     atom                  positions (cryst. coord.)
         1           H   tau(   1) = (  0.5333333  0.5666667  0.5000000  )
         2           H   tau(   2) = (  0.5333333  0.5666667  0.5752072  )
         3           C   tau(   3) = (  0.0000000  0.0000000  0.0000000  )
         4           C   tau(   4) = (  0.0666667  0.1333333  0.0000000  )
         5           C   tau(   5) = (  0.0000000  0.2000000  0.0000000  )
         6           C   tau(   6) = (  0.0666667  0.3333333  0.0000000  )
         7           C   tau(   7) = (  0.0000000  0.4000000  0.0000000  )
         8           C   tau(   8) = (  0.0666667  0.5333333  0.0000000  )
         9           C   tau(   9) = (  0.0000000  0.6000000  0.0000000  )
        10           C   tau(  10) = (  0.0666667  0.7333333  0.0000000  )
        11           C   tau(  11) = (  0.0000000  0.8000000  0.0000000  )
        12           C   tau(  12) = (  0.0666667  0.9333333  0.0000000  )
        13           C   tau(  13) = (  0.2000000  0.0000000  0.0000000  )
        14           C   tau(  14) = (  0.2666667  0.1333333  0.0000000  )
        15           C   tau(  15) = (  0.2000000  0.2000000  0.0000000  )
        16           C   tau(  16) = (  0.2666667  0.3333333  0.0000000  )
        17           C   tau(  17) = (  0.2000000  0.4000000  0.0000000  )
        18           C   tau(  18) = (  0.2666667  0.5333333  0.0000000  )
        19           C   tau(  19) = (  0.2000000  0.6000000  0.0000000  )
        20           C   tau(  20) = (  0.2666667  0.7333333  0.0000000  )
        21           C   tau(  21) = (  0.2000000  0.8000000  0.0000000  )
        22           C   tau(  22) = (  0.2666667  0.9333333  0.0000000  )
        23           C   tau(  23) = (  0.4000000  0.0000000  0.0000000  )
        24           C   tau(  24) = (  0.4666667  0.1333333  0.0000000  )
        25           C   tau(  25) = (  0.4000000  0.2000000  0.0000000  )
        26           C   tau(  26) = (  0.4666667  0.3333333  0.0000000  )
        27           C   tau(  27) = (  0.4000000  0.4000000  0.0000000  )
        28           Fe  tau(  28) = (  0.4666667  0.5333333  0.0000000  )
        29           C   tau(  29) = (  0.4000000  0.6000000  0.0000000  )
        30           C   tau(  30) = (  0.4666667  0.7333333  0.0000000  )
        31           C   tau(  31) = (  0.4000000  0.8000000  0.0000000  )
        32           C   tau(  32) = (  0.4666667  0.9333333  0.0000000  )
        33           C   tau(  33) = (  0.6000000  0.0000000  0.0000000  )
        34           C   tau(  34) = (  0.6666667  0.1333333  0.0000000  )
        35           C   tau(  35) = (  0.6000000  0.2000000  0.0000000  )
        36           C   tau(  36) = (  0.6666667  0.3333333  0.0000000  )
        37           C   tau(  37) = (  0.6000000  0.4000000  0.0000000  )
        38           C   tau(  38) = (  0.6666667  0.5333333  0.0000000  )
        39           C   tau(  39) = (  0.6000000  0.6000000  0.0000000  )
        40           C   tau(  40) = (  0.6666667  0.7333333  0.0000000  )
        41           C   tau(  41) = (  0.6000000  0.8000000  0.0000000  )
        42           C   tau(  42) = (  0.6666667  0.9333333  0.0000000  )
        43           C   tau(  43) = (  0.8000000  0.0000000  0.0000000  )
        44           C   tau(  44) = (  0.8666667  0.1333333  0.0000000  )
        45           C   tau(  45) = (  0.8000000  0.2000000  0.0000000  )
        46           C   tau(  46) = (  0.8666667  0.3333333  0.0000000  )
        47           C   tau(  47) = (  0.8000000  0.4000000  0.0000000  )
        48           C   tau(  48) = (  0.8666667  0.5333333  0.0000000  )
        49           C   tau(  49) = (  0.8000000  0.6000000  0.0000000  )
        50           C   tau(  50) = (  0.8666667  0.7333333  0.0000000  )
        51           C   tau(  51) = (  0.8000000  0.8000000  0.0000000  )
        52           C   tau(  52) = (  0.8666667  0.9333333  0.0000000  )

     number of k points=     1  Marzari-Vanderbilt smearing, width (Ry)=  0.0010
                       cart. coord. in units 2pi/alat
        k(    1) = (   0.0000000   0.0000000   0.0000000), wk =   1.0000000

                       cryst. coord.
        k(    1) = (   0.0000000   0.0000000   0.0000000), wk =   1.0000000

     Dense  grid:  1626001 G-vectors     FFT dimensions: ( 180, 180, 135)

     Smooth grid:   702581 G-vectors     FFT dimensions: ( 125, 125, 108)

     Dynamical RAM for                 wfc:      28.59 MB

     Dynamical RAM for     wfc (w. buffer):      85.76 MB

     Dynamical RAM for           str. fact:      12.41 MB

     Dynamical RAM for           local pot:       0.00 MB

     Dynamical RAM for          nlocal pot:      92.46 MB

     Dynamical RAM for                qrad:      19.73 MB

     Dynamical RAM for          rho,v,vnew:      58.92 MB

     Dynamical RAM for               rhoin:      19.64 MB

     Dynamical RAM for            rho*nmix:      66.16 MB

     Dynamical RAM for           G-vectors:      16.40 MB

     Dynamical RAM for          h,s,v(r/c):      12.00 MB

     Dynamical RAM for          <psi|beta>:       0.81 MB

     Dynamical RAM for                 psi:     114.35 MB

     Dynamical RAM for                hpsi:     114.35 MB

     Dynamical RAM for                spsi:     114.35 MB

     Dynamical RAM for      wfcinit/wfcrot:      93.90 MB

     Dynamical RAM for           addusdens:     975.89 MB

     Estimated static dynamical RAM per process >     422.14 MB

     Estimated max dynamical RAM per process >       1.37 GB

     Estimated total dynamical RAM >       8.19 GB
     Generating pointlists ...
     new r_m :   0.0252 (alat units)  0.5862 (a.u.) for type    1
     new r_m :   0.0476 (alat units)  1.1095 (a.u.) for type    2
     new r_m :   0.0476 (alat units)  1.1095 (a.u.) for type    3

     Check: negative core charge=   -0.000002

     Initial potential from superposition of free atoms

     starting charge  213.80512, renormalised to  214.00000

     negative rho (up, down):  6.691E-05 9.248E-03


---------------------------------------------------------------------------------
Carrying out rVV10 run using the following parameters:
Nqs =      20    Nr_points =    1024   r_max =   100.000
b_value =  6.30000    beta =  0.00901
     q_mesh =  0.00010000  0.00030000  0.00058939  0.00100810
               0.00161396  0.00249058  0.00375900  0.00559430
               0.00824984  0.01209221  0.01765183  0.02569619
               0.03733578  0.05417739  0.07854596  0.11380545
               0.16482331  0.23864234  0.34545298  0.50000000

Gradients computed in Reciprocal space

---------------------------------------------------------------------------------


     Starting wfcs are  208 randomized atomic wfcs

     total cpu time spent up to now is       69.3 secs

     Self-consistent Calculation

     iteration #  1     ecut=    70.00 Ry     beta= 0.30
     Davidson diagonalization with overlap
     ethr =  1.00E-02,  avg # of iterations =  2.5

     negative rho (up, down):  7.657E-05 9.300E-03

     total cpu time spent up to now is      192.2 secs

     total energy              =    -858.11297799 Ry
     Harris-Foulkes estimate   =    -858.63376951 Ry
     estimated scf accuracy    <      10.05567041 Ry

     total magnetization       =     6.00 Bohr mag/cell
     absolute magnetization    =     6.66 Bohr mag/cell

     iteration #  2     ecut=    70.00 Ry     beta= 0.30
     Davidson diagonalization with overlap
     ethr =  4.70E-03,  avg # of iterations =  2.0

     negative rho (up, down):  1.024E-04 1.076E-02

     total cpu time spent up to now is      280.8 secs

     total energy              =    -858.50502351 Ry
     Harris-Foulkes estimate   =    -858.64896097 Ry
     estimated scf accuracy    <       4.88544557 Ry

     total magnetization       =     4.00 Bohr mag/cell
     absolute magnetization    =     5.62 Bohr mag/cell

     iteration #  3     ecut=    70.00 Ry     beta= 0.30
     Davidson diagonalization with overlap
     ethr =  2.28E-03,  avg # of iterations =  3.5

     negative rho (up, down):  1.813E-04 2.254E-02

     total cpu time spent up to now is      374.5 secs

     total energy              =    -858.72262958 Ry
     Harris-Foulkes estimate   =    -859.80561295 Ry
     estimated scf accuracy    <      10.94976899 Ry

     total magnetization       =     6.00 Bohr mag/cell
     absolute magnetization    =     6.17 Bohr mag/cell

     iteration #  4     ecut=    70.00 Ry     beta= 0.30
     Davidson diagonalization with overlap
     ethr =  2.28E-03,  avg # of iterations =  3.0

     negative rho (up, down):  2.283E-04 3.025E-02

     total cpu time spent up to now is      464.8 secs

     total energy              =    -859.84624003 Ry
     Harris-Foulkes estimate   =    -859.59433948 Ry
     estimated scf accuracy    <       0.72915604 Ry

     total magnetization       =     2.00 Bohr mag/cell
     absolute magnetization    =     3.43 Bohr mag/cell

     iteration #  5     ecut=    70.00 Ry     beta= 0.30
     Davidson diagonalization with overlap
     ethr =  3.41E-04,  avg # of iterations =  7.0

     negative rho (up, down):  2.685E-04 3.511E-02

     total cpu time spent up to now is      562.1 secs

     total energy              =    -859.96965802 Ry
     Harris-Foulkes estimate   =    -859.95129540 Ry
     estimated scf accuracy    <       0.57765424 Ry

     total magnetization       =     2.00 Bohr mag/cell
     absolute magnetization    =     3.01 Bohr mag/cell

     iteration #  6     ecut=    70.00 Ry     beta= 0.30
     Davidson diagonalization with overlap
     ethr =  2.70E-04,  avg # of iterations =  2.0

     negative rho (up, down):  5.235E-04 6.416E-02

     total cpu time spent up to now is      651.2 secs

     total energy              =    -860.02133538 Ry
     Harris-Foulkes estimate   =    -860.00222344 Ry
     estimated scf accuracy    <       0.14917442 Ry

     total magnetization       =     2.00 Bohr mag/cell
     absolute magnetization    =     2.89 Bohr mag/cell

     iteration #  7     ecut=    70.00 Ry     beta= 0.30
     Davidson diagonalization with overlap
     ethr =  6.97E-05,  avg # of iterations = 14.0

     negative rho (up, down):  3.036E-03 9.803E-02

     total cpu time spent up to now is      751.6 secs

     total energy              =    -860.04297233 Ry
     Harris-Foulkes estimate   =    -860.04754746 Ry
     estimated scf accuracy    <       0.13101415 Ry

     total magnetization       =     2.01 Bohr mag/cell
     absolute magnetization    =     2.75 Bohr mag/cell

     iteration #  8     ecut=    70.00 Ry     beta= 0.30
     Davidson diagonalization with overlap
     ethr =  6.12E-05,  avg # of iterations =  2.5

     negative rho (up, down):  2.408E-03 8.708E-02

     total cpu time spent up to now is      841.4 secs

     total energy              =    -860.04609435 Ry
     Harris-Foulkes estimate   =    -860.04696878 Ry
     estimated scf accuracy    <       0.05249013 Ry

     total magnetization       =     1.97 Bohr mag/cell
     absolute magnetization    =     2.74 Bohr mag/cell

     iteration #  9     ecut=    70.00 Ry     beta= 0.30
     Davidson diagonalization with overlap
     ethr =  2.45E-05,  avg # of iterations =  2.5

     negative rho (up, down):  2.197E-03 7.799E-02

     total cpu time spent up to now is      931.1 secs

     total energy              =    -860.04415476 Ry
     Harris-Foulkes estimate   =    -860.04965236 Ry
     estimated scf accuracy    <       0.10886461 Ry

     total magnetization       =     2.01 Bohr mag/cell
     absolute magnetization    =     2.74 Bohr mag/cell

     iteration # 10     ecut=    70.00 Ry     beta= 0.30
     Davidson diagonalization with overlap
     ethr =  2.45E-05,  avg # of iterations =  1.0

     negative rho (up, down):  2.181E-03 7.574E-02

     total cpu time spent up to now is     1019.3 secs

     total energy              =    -860.04972276 Ry
     Harris-Foulkes estimate   =    -860.05110318 Ry
     estimated scf accuracy    <       0.06359003 Ry

     total magnetization       =     1.08 Bohr mag/cell
     absolute magnetization    =     2.58 Bohr mag/cell

     iteration # 11     ecut=    70.00 Ry     beta= 0.30
     Davidson diagonalization with overlap
     ethr =  2.45E-05,  avg # of iterations =  1.0

     negative rho (up, down):  1.241E-03 5.955E-02

     total cpu time spent up to now is     1107.4 secs

     total energy              =    -860.05228217 Ry
     Harris-Foulkes estimate   =    -860.05090530 Ry
     estimated scf accuracy    <       0.03116489 Ry

     total magnetization       =     2.00 Bohr mag/cell
     absolute magnetization    =     2.75 Bohr mag/cell

     iteration # 12     ecut=    70.00 Ry     beta= 0.30
     Davidson diagonalization with overlap
     ethr =  1.46E-05,  avg # of iterations =  1.0

     negative rho (up, down):  9.385E-04 4.858E-02

     total cpu time spent up to now is     1195.8 secs

     total energy              =    -860.05290958 Ry
     Harris-Foulkes estimate   =    -860.05267287 Ry
     estimated scf accuracy    <       0.02061730 Ry

     total magnetization       =     2.00 Bohr mag/cell
     absolute magnetization    =     2.78 Bohr mag/cell

     iteration # 13     ecut=    70.00 Ry     beta= 0.30
     Davidson diagonalization with overlap
     ethr =  9.63E-06,  avg # of iterations =  3.0

     negative rho (up, down):  7.400E-04 4.112E-02

     total cpu time spent up to now is     1285.5 secs

     total energy              =    -860.05326845 Ry
     Harris-Foulkes estimate   =    -860.05309163 Ry
     estimated scf accuracy    <       0.01555571 Ry

     total magnetization       =     1.97 Bohr mag/cell
     absolute magnetization    =     2.81 Bohr mag/cell

     iteration # 14     ecut=    70.00 Ry     beta= 0.30
     Davidson diagonalization with overlap
     ethr =  7.27E-06,  avg # of iterations =  1.0

     negative rho (up, down):  7.011E-04 5.744E-02

     total cpu time spent up to now is     1373.7 secs

     total energy              =    -860.05227590 Ry
     Harris-Foulkes estimate   =    -860.05336283 Ry
     estimated scf accuracy    <       0.02037852 Ry

     total magnetization       =     1.73 Bohr mag/cell
     absolute magnetization    =     2.89 Bohr mag/cell

     iteration # 15     ecut=    70.00 Ry     beta= 0.30
     Davidson diagonalization with overlap
     ethr =  7.27E-06,  avg # of iterations =  6.0

     negative rho (up, down):  4.239E-04 1.979E-02

     total cpu time spent up to now is     1467.1 secs

     total energy              =    -860.05281716 Ry
     Harris-Foulkes estimate   =    -860.05299056 Ry
     estimated scf accuracy    <       0.00362678 Ry

     total magnetization       =     2.16 Bohr mag/cell
     absolute magnetization    =     2.86 Bohr mag/cell

     iteration # 16     ecut=    70.00 Ry     beta= 0.30
     Davidson diagonalization with overlap
     ethr =  1.69E-06,  avg # of iterations =  8.5

     negative rho (up, down):  5.223E-04 1.932E-02

     total cpu time spent up to now is     1580.1 secs

     total energy              =    -860.05379798 Ry
     Harris-Foulkes estimate   =    -860.05360659 Ry
     estimated scf accuracy    <       0.00096728 Ry

     total magnetization       =     2.00 Bohr mag/cell
     absolute magnetization    =     2.93 Bohr mag/cell

     iteration # 17     ecut=    70.00 Ry     beta= 0.30
     Davidson diagonalization with overlap
     ethr =  4.52E-07,  avg # of iterations =  2.0

     negative rho (up, down):  4.929E-04 1.117E-02

     total cpu time spent up to now is     1670.8 secs

     total energy              =    -860.05412397 Ry
     Harris-Foulkes estimate   =    -860.05385697 Ry
     estimated scf accuracy    <       0.00090198 Ry

     total magnetization       =     2.05 Bohr mag/cell
     absolute magnetization    =     3.05 Bohr mag/cell

     iteration # 18     ecut=    70.00 Ry     beta= 0.30
     Davidson diagonalization with overlap
     ethr =  4.21E-07,  avg # of iterations =  2.0

     negative rho (up, down):  4.978E-04 3.119E-02

     total cpu time spent up to now is     1764.9 secs

     total energy              =    -860.05392101 Ry
     Harris-Foulkes estimate   =    -860.05418739 Ry
     estimated scf accuracy    <       0.00334129 Ry

     total magnetization       =     2.16 Bohr mag/cell
     absolute magnetization    =     3.11 Bohr mag/cell

     iteration # 19     ecut=    70.00 Ry     beta= 0.30
     Davidson diagonalization with overlap
     ethr =  4.21E-07,  avg # of iterations =  2.0

     negative rho (up, down):  5.415E-04 2.868E-02

     total cpu time spent up to now is     1859.0 secs

     total energy              =    -860.05417965 Ry
     Harris-Foulkes estimate   =    -860.05396908 Ry
     estimated scf accuracy    <       0.00049171 Ry

     total magnetization       =     2.03 Bohr mag/cell
     absolute magnetization    =     3.05 Bohr mag/cell

     iteration # 20     ecut=    70.00 Ry     beta= 0.30
     Davidson diagonalization with overlap
     ethr =  2.30E-07,  avg # of iterations =  2.0

     negative rho (up, down):  5.401E-04 3.588E-02

     total cpu time spent up to now is     1950.3 secs

     total energy              =    -860.05415130 Ry
     Harris-Foulkes estimate   =    -860.05420674 Ry
     estimated scf accuracy    <       0.00066622 Ry

     total magnetization       =     2.02 Bohr mag/cell
     absolute magnetization    =     3.04 Bohr mag/cell

     iteration # 21     ecut=    70.00 Ry     beta= 0.30
     Davidson diagonalization with overlap
     ethr =  2.30E-07,  avg # of iterations =  1.0

     negative rho (up, down):  5.220E-04 5.398E-02

     total cpu time spent up to now is     2038.7 secs

     total energy              =    -860.05373568 Ry
     Harris-Foulkes estimate   =    -860.05415437 Ry
     estimated scf accuracy    <       0.00054357 Ry

     total magnetization       =     2.02 Bohr mag/cell
     absolute magnetization    =     3.04 Bohr mag/cell

     iteration # 22     ecut=    70.00 Ry     beta= 0.30
     Davidson diagonalization with overlap
     ethr =  2.30E-07,  avg # of iterations =  2.0

     negative rho (up, down):  5.426E-04 5.560E-02

     total cpu time spent up to now is     2137.3 secs

     total energy              =    -860.05384050 Ry
     Harris-Foulkes estimate   =    -860.05386210 Ry
     estimated scf accuracy    <       0.00033522 Ry

     total magnetization       =     2.05 Bohr mag/cell
     absolute magnetization    =     3.07 Bohr mag/cell

     iteration # 23     ecut=    70.00 Ry     beta= 0.30
     Davidson diagonalization with overlap
     ethr =  1.57E-07,  avg # of iterations =  2.0

     negative rho (up, down):  5.419E-04 4.288E-02

     total cpu time spent up to now is     2236.8 secs

     total energy              =    -860.05401753 Ry
     Harris-Foulkes estimate   =    -860.05393406 Ry
     estimated scf accuracy    <       0.00019428 Ry

     total magnetization       =     2.04 Bohr mag/cell
     absolute magnetization    =     3.07 Bohr mag/cell

     iteration # 24     ecut=    70.00 Ry     beta= 0.30
     Davidson diagonalization with overlap
     ethr =  9.08E-08,  avg # of iterations =  2.0

     negative rho (up, down):  5.402E-04 4.286E-02

     total cpu time spent up to now is     2328.7 secs

     total energy              =    -860.05386269 Ry
     Harris-Foulkes estimate   =    -860.05403059 Ry
     estimated scf accuracy    <       0.00021500 Ry

     total magnetization       =     2.04 Bohr mag/cell
     absolute magnetization    =     3.08 Bohr mag/cell

     iteration # 25     ecut=    70.00 Ry     beta= 0.30
     Davidson diagonalization with overlap
     ethr =  9.08E-08,  avg # of iterations =  2.0

     negative rho (up, down):  5.376E-04 3.796E-02

     total cpu time spent up to now is     2427.5 secs

     total energy              =    -860.05388541 Ry
     Harris-Foulkes estimate   =    -860.05389868 Ry
     estimated scf accuracy    <       0.00026690 Ry

     total magnetization       =     2.02 Bohr mag/cell
     absolute magnetization    =     3.06 Bohr mag/cell

     iteration # 26     ecut=    70.00 Ry     beta= 0.30
     Davidson diagonalization with overlap
     ethr =  9.08E-08,  avg # of iterations =  1.0

     negative rho (up, down):  5.629E-04 3.062E-02

     total cpu time spent up to now is     2515.8 secs

     total energy              =    -860.05390918 Ry
     Harris-Foulkes estimate   =    -860.05388607 Ry
     estimated scf accuracy    <       0.00034373 Ry

     total magnetization       =     2.01 Bohr mag/cell
     absolute magnetization    =     3.06 Bohr mag/cell

     iteration # 27     ecut=    70.00 Ry     beta= 0.30
     Davidson diagonalization with overlap
     ethr =  9.08E-08,  avg # of iterations =  2.0

     negative rho (up, down):  5.506E-04 2.807E-02

     total cpu time spent up to now is     2608.1 secs

     total energy              =    -860.05393214 Ry
     Harris-Foulkes estimate   =    -860.05391992 Ry
     estimated scf accuracy    <       0.00026381 Ry

     total magnetization       =     2.02 Bohr mag/cell
     absolute magnetization    =     3.06 Bohr mag/cell

     iteration # 28     ecut=    70.00 Ry     beta= 0.30
     Davidson diagonalization with overlap
     ethr =  9.08E-08,  avg # of iterations =  2.0

     negative rho (up, down):  5.947E-04 3.135E-02

     total cpu time spent up to now is     2697.9 secs

     total energy              =    -860.05391196 Ry
     Harris-Foulkes estimate   =    -860.05393630 Ry
     estimated scf accuracy    <       0.00031449 Ry

     total magnetization       =     2.02 Bohr mag/cell
     absolute magnetization    =     3.06 Bohr mag/cell

     iteration # 29     ecut=    70.00 Ry     beta= 0.30
     Davidson diagonalization with overlap
     ethr =  9.08E-08,  avg # of iterations =  2.0

     negative rho (up, down):  5.943E-04 2.637E-02

     total cpu time spent up to now is     2795.3 secs

     total energy              =    -860.05398404 Ry
     Harris-Foulkes estimate   =    -860.05394151 Ry
     estimated scf accuracy    <       0.00026829 Ry

     total magnetization       =     2.01 Bohr mag/cell
     absolute magnetization    =     3.08 Bohr mag/cell

     iteration # 30     ecut=    70.00 Ry     beta= 0.30
     Davidson diagonalization with overlap
     ethr =  9.08E-08,  avg # of iterations =  2.0

     negative rho (up, down):  6.235E-04 4.101E-02

     total cpu time spent up to now is     2885.6 secs

     total energy              =    -860.05378923 Ry
     Harris-Foulkes estimate   =    -860.05399187 Ry
     estimated scf accuracy    <       0.00027415 Ry

     total magnetization       =     2.01 Bohr mag/cell
     absolute magnetization    =     3.08 Bohr mag/cell

     iteration # 31     ecut=    70.00 Ry     beta= 0.30
     Davidson diagonalization with overlap
     ethr =  9.08E-08,  avg # of iterations =  2.0

     negative rho (up, down):  6.123E-04 4.152E-02

     total cpu time spent up to now is     2986.1 secs

     total energy              =    -860.05379826 Ry
     Harris-Foulkes estimate   =    -860.05385549 Ry
     estimated scf accuracy    <       0.00020559 Ry

     total magnetization       =     2.00 Bohr mag/cell
     absolute magnetization    =     3.07 Bohr mag/cell

     iteration # 32     ecut=    70.00 Ry     beta= 0.30
     Davidson diagonalization with overlap
     ethr =  9.08E-08,  avg # of iterations =  2.0

     negative rho (up, down):  5.816E-04 3.539E-02

     total cpu time spent up to now is     3082.2 secs

     total energy              =    -860.05383568 Ry
     Harris-Foulkes estimate   =    -860.05382551 Ry
     estimated scf accuracy    <       0.00013235 Ry

     total magnetization       =     2.00 Bohr mag/cell
     absolute magnetization    =     3.07 Bohr mag/cell

     iteration # 33     ecut=    70.00 Ry     beta= 0.30
     Davidson diagonalization with overlap
     ethr =  6.18E-08,  avg # of iterations =  2.0

     negative rho (up, down):  5.501E-04 2.924E-02

     total cpu time spent up to now is     3173.0 secs

     total energy              =    -860.05385311 Ry
     Harris-Foulkes estimate   =    -860.05384369 Ry
     estimated scf accuracy    <       0.00010487 Ry

     total magnetization       =     2.00 Bohr mag/cell
     absolute magnetization    =     3.08 Bohr mag/cell

     iteration # 34     ecut=    70.00 Ry     beta= 0.30
     Davidson diagonalization with overlap
     ethr =  4.90E-08,  avg # of iterations =  2.0

     negative rho (up, down):  5.571E-04 2.152E-02

     total cpu time spent up to now is     3269.9 secs

     total energy              =    -860.05389612 Ry
     Harris-Foulkes estimate   =    -860.05387128 Ry
     estimated scf accuracy    <       0.00010012 Ry

     total magnetization       =     2.00 Bohr mag/cell
     absolute magnetization    =     3.09 Bohr mag/cell

     iteration # 35     ecut=    70.00 Ry     beta= 0.30
     Davidson diagonalization with overlap
     ethr =  4.68E-08,  avg # of iterations =  2.0

     negative rho (up, down):  5.571E-04 1.733E-02

     total cpu time spent up to now is     3359.2 secs

     total energy              =    -860.05391085 Ry
     Harris-Foulkes estimate   =    -860.05389905 Ry
     estimated scf accuracy    <       0.00010505 Ry

     total magnetization       =     2.00 Bohr mag/cell
     absolute magnetization    =     3.10 Bohr mag/cell

     iteration # 36     ecut=    70.00 Ry     beta= 0.30
     Davidson diagonalization with overlap
     ethr =  4.68E-08,  avg # of iterations =  2.0

     negative rho (up, down):  5.699E-04 2.499E-02

     total cpu time spent up to now is     3449.4 secs

     total energy              =    -860.05387032 Ry
     Harris-Foulkes estimate   =    -860.05391498 Ry
     estimated scf accuracy    <       0.00011073 Ry

     total magnetization       =     2.00 Bohr mag/cell
     absolute magnetization    =     3.10 Bohr mag/cell

     iteration # 37     ecut=    70.00 Ry     beta= 0.30
     Davidson diagonalization with overlap
     ethr =  4.68E-08,  avg # of iterations =  2.0

     negative rho (up, down):  5.662E-04 2.294E-02

     total cpu time spent up to now is     3546.2 secs

     total energy              =    -860.05390202 Ry
     Harris-Foulkes estimate   =    -860.05388639 Ry
     estimated scf accuracy    <       0.00008134 Ry

     total magnetization       =     2.00 Bohr mag/cell
     absolute magnetization    =     3.10 Bohr mag/cell

     iteration # 38     ecut=    70.00 Ry     beta= 0.30
     Davidson diagonalization with overlap
     ethr =  3.80E-08,  avg # of iterations =  2.0

     negative rho (up, down):  5.652E-04 2.155E-02

     total cpu time spent up to now is     3639.9 secs

     total energy              =    -860.05391206 Ry
     Harris-Foulkes estimate   =    -860.05391315 Ry
     estimated scf accuracy    <       0.00016086 Ry

     total magnetization       =     2.00 Bohr mag/cell
     absolute magnetization    =     3.11 Bohr mag/cell

     iteration # 39     ecut=    70.00 Ry     beta= 0.30
     Davidson diagonalization with overlap
     ethr =  3.80E-08,  avg # of iterations =  2.0

     negative rho (up, down):  5.686E-04 2.300E-02

     total cpu time spent up to now is     3729.4 secs

     total energy              =    -860.05390674 Ry
     Harris-Foulkes estimate   =    -860.05391352 Ry
     estimated scf accuracy    <       0.00018267 Ry

     total magnetization       =     2.00 Bohr mag/cell
     absolute magnetization    =     3.11 Bohr mag/cell

     iteration # 40     ecut=    70.00 Ry     beta= 0.30
     Davidson diagonalization with overlap
     ethr =  3.80E-08,  avg # of iterations =  2.0

     negative rho (up, down):  5.696E-04 2.110E-02

     total cpu time spent up to now is     3819.0 secs

     total energy              =    -860.05392338 Ry
     Harris-Foulkes estimate   =    -860.05390872 Ry
     estimated scf accuracy    <       0.00018954 Ry

     total magnetization       =     2.00 Bohr mag/cell
     absolute magnetization    =     3.11 Bohr mag/cell

     iteration # 41     ecut=    70.00 Ry     beta= 0.30
     Davidson diagonalization with overlap
     ethr =  3.80E-08,  avg # of iterations =  1.5

     negative rho (up, down):  5.717E-04 2.163E-02

     total cpu time spent up to now is     3907.3 secs

     total energy              =    -860.05392791 Ry
     Harris-Foulkes estimate   =    -860.05392507 Ry
     estimated scf accuracy    <       0.00022306 Ry

     total magnetization       =     2.00 Bohr mag/cell
     absolute magnetization    =     3.11 Bohr mag/cell

     iteration # 42     ecut=    70.00 Ry     beta= 0.30
     Davidson diagonalization with overlap
     ethr =  3.80E-08,  avg # of iterations =  2.0

     negative rho (up, down):  5.750E-04 2.551E-02

     total cpu time spent up to now is     3996.7 secs

     total energy              =    -860.05391245 Ry
     Harris-Foulkes estimate   =    -860.05392932 Ry
     estimated scf accuracy    <       0.00022946 Ry

     total magnetization       =     2.00 Bohr mag/cell
     absolute magnetization    =     3.11 Bohr mag/cell

     iteration # 43     ecut=    70.00 Ry     beta= 0.30
     Davidson diagonalization with overlap
     ethr =  3.80E-08,  avg # of iterations =  2.0

     negative rho (up, down):  5.685E-04 2.977E-02

     total cpu time spent up to now is     4087.1 secs

     total energy              =    -860.05388546 Ry
     Harris-Foulkes estimate   =    -860.05391680 Ry
     estimated scf accuracy    <       0.00018128 Ry

     total magnetization       =     2.00 Bohr mag/cell
     absolute magnetization    =     3.11 Bohr mag/cell

     iteration # 44     ecut=    70.00 Ry     beta= 0.30
     Davidson diagonalization with overlap
     ethr =  3.80E-08,  avg # of iterations =  2.0

     negative rho (up, down):  5.872E-04 4.787E-02

     total cpu time spent up to now is     4182.4 secs

     total energy              =    -860.05368810 Ry
     Harris-Foulkes estimate   =    -860.05389683 Ry
     estimated scf accuracy    <       0.00021314 Ry

     total magnetization       =     2.00 Bohr mag/cell
     absolute magnetization    =     3.11 Bohr mag/cell

     iteration # 45     ecut=    70.00 Ry     beta= 0.30
     Davidson diagonalization with overlap
     ethr =  3.80E-08,  avg # of iterations =  4.0

     negative rho (up, down):  5.391E-04 3.075E-02

     total cpu time spent up to now is     4290.0 secs

     total energy              =    -860.05385479 Ry
     Harris-Foulkes estimate   =    -860.05382889 Ry
     estimated scf accuracy    <       0.00013344 Ry

     total magnetization       =     2.00 Bohr mag/cell
     absolute magnetization    =     3.10 Bohr mag/cell

     iteration # 46     ecut=    70.00 Ry     beta= 0.30
     Davidson diagonalization with overlap
     ethr =  3.80E-08,  avg # of iterations =  3.0

     negative rho (up, down):  5.313E-04 1.341E-02

     total cpu time spent up to now is     4387.2 secs

     total energy              =    -860.05389352 Ry
     Harris-Foulkes estimate   =    -860.05388219 Ry
     estimated scf accuracy    <       0.00006806 Ry

     total magnetization       =     2.00 Bohr mag/cell
     absolute magnetization    =     3.11 Bohr mag/cell

     iteration # 47     ecut=    70.00 Ry     beta= 0.30
     Davidson diagonalization with overlap
     ethr =  3.18E-08,  avg # of iterations =  3.0

     negative rho (up, down):  5.275E-04 1.690E-02

     total cpu time spent up to now is     4480.7 secs

     total energy              =    -860.05391120 Ry
     Harris-Foulkes estimate   =    -860.05391405 Ry
     estimated scf accuracy    <       0.00004030 Ry

     total magnetization       =     2.00 Bohr mag/cell
     absolute magnetization    =     3.12 Bohr mag/cell

     iteration # 48     ecut=    70.00 Ry     beta= 0.30
     Davidson diagonalization with overlap
     ethr =  1.88E-08,  avg # of iterations =  2.0

     negative rho (up, down):  5.279E-04 1.342E-02

     total cpu time spent up to now is     4575.7 secs

     total energy              =    -860.05389643 Ry
     Harris-Foulkes estimate   =    -860.05391755 Ry
     estimated scf accuracy    <       0.00003931 Ry

     total magnetization       =     2.00 Bohr mag/cell
     absolute magnetization    =     3.12 Bohr mag/cell

     iteration # 49     ecut=    70.00 Ry     beta= 0.30
     Davidson diagonalization with overlap
     ethr =  1.84E-08,  avg # of iterations =  2.0

     negative rho (up, down):  5.289E-04 1.365E-02

     total cpu time spent up to now is     4674.7 secs

     total energy              =    -860.05390833 Ry
     Harris-Foulkes estimate   =    -860.05391048 Ry
     estimated scf accuracy    <       0.00004031 Ry

     total magnetization       =     2.00 Bohr mag/cell
     absolute magnetization    =     3.12 Bohr mag/cell

     iteration # 50     ecut=    70.00 Ry     beta= 0.30
     Davidson diagonalization with overlap
     ethr =  1.84E-08,  avg # of iterations =  2.0

     negative rho (up, down):  5.280E-04 1.396E-02

     total cpu time spent up to now is     4763.8 secs

     total energy              =    -860.05391791 Ry
     Harris-Foulkes estimate   =    -860.05390891 Ry
     estimated scf accuracy    <       0.00003959 Ry

     total magnetization       =     2.00 Bohr mag/cell
     absolute magnetization    =     3.12 Bohr mag/cell

     iteration # 51     ecut=    70.00 Ry     beta= 0.30
     Davidson diagonalization with overlap
     ethr =  1.84E-08,  avg # of iterations =  2.0

     negative rho (up, down):  5.279E-04 1.607E-02

     total cpu time spent up to now is     4861.9 secs

     total energy              =    -860.05392086 Ry
     Harris-Foulkes estimate   =    -860.05392637 Ry
     estimated scf accuracy    <       0.00005638 Ry

     total magnetization       =     2.00 Bohr mag/cell
     absolute magnetization    =     3.13 Bohr mag/cell

     iteration # 52     ecut=    70.00 Ry     beta= 0.30
     Davidson diagonalization with overlap
     ethr =  1.84E-08,  avg # of iterations =  2.0

     negative rho (up, down):  5.307E-04 2.369E-02

     total cpu time spent up to now is     4952.4 secs

     total energy              =    -860.05387744 Ry
     Harris-Foulkes estimate   =    -860.05392236 Ry
     estimated scf accuracy    <       0.00005746 Ry

     total magnetization       =     2.00 Bohr mag/cell
     absolute magnetization    =     3.13 Bohr mag/cell

     iteration # 53     ecut=    70.00 Ry     beta= 0.30
     Davidson diagonalization with overlap
     ethr =  1.84E-08,  avg # of iterations =  2.0

     negative rho (up, down):  5.307E-04 1.830E-02

     total cpu time spent up to now is     5055.6 secs

     total energy              =    -860.05391258 Ry
     Harris-Foulkes estimate   =    -860.05390902 Ry
     estimated scf accuracy    <       0.00003895 Ry

     total magnetization       =     2.00 Bohr mag/cell
     absolute magnetization    =     3.13 Bohr mag/cell

     iteration # 54     ecut=    70.00 Ry     beta= 0.30
     Davidson diagonalization with overlap
     ethr =  1.82E-08,  avg # of iterations =  2.0

     negative rho (up, down):  5.327E-04 2.282E-02

     total cpu time spent up to now is     5147.8 secs

     total energy              =    -860.05386568 Ry
     Harris-Foulkes estimate   =    -860.05391786 Ry
     estimated scf accuracy    <       0.00004302 Ry

     total magnetization       =     2.00 Bohr mag/cell
     absolute magnetization    =     3.13 Bohr mag/cell

     iteration # 55     ecut=    70.00 Ry     beta= 0.30
     Davidson diagonalization with overlap
     ethr =  1.82E-08,  avg # of iterations =  3.0

     negative rho (up, down):  5.322E-04 1.853E-02

     total cpu time spent up to now is     5250.0 secs

     total energy              =    -860.05389942 Ry
     Harris-Foulkes estimate   =    -860.05388793 Ry
     estimated scf accuracy    <       0.00001873 Ry

     total magnetization       =     2.00 Bohr mag/cell
     absolute magnetization    =     3.12 Bohr mag/cell

     iteration # 56     ecut=    70.00 Ry     beta= 0.30
     Davidson diagonalization with overlap
     ethr =  8.75E-09,  avg # of iterations =  2.0

     negative rho (up, down):  5.267E-04 1.648E-02

     total cpu time spent up to now is     5340.9 secs

     total energy              =    -860.05389677 Ry
     Harris-Foulkes estimate   =    -860.05390064 Ry
     estimated scf accuracy    <       0.00002234 Ry

     total magnetization       =     2.00 Bohr mag/cell
     absolute magnetization    =     3.13 Bohr mag/cell

     iteration # 57     ecut=    70.00 Ry     beta= 0.30
     Davidson diagonalization with overlap
     ethr =  8.75E-09,  avg # of iterations =  2.0

     negative rho (up, down):  5.235E-04 1.415E-02

     total cpu time spent up to now is     5432.6 secs

     total energy              =    -860.05389783 Ry
     Harris-Foulkes estimate   =    -860.05389802 Ry
     estimated scf accuracy    <       0.00001928 Ry

     total magnetization       =     2.00 Bohr mag/cell
     absolute magnetization    =     3.12 Bohr mag/cell

     iteration # 58     ecut=    70.00 Ry     beta= 0.30
     Davidson diagonalization with overlap
     ethr =  8.75E-09,  avg # of iterations =  1.0

     negative rho (up, down):  5.217E-04 1.305E-02

     total cpu time spent up to now is     5520.9 secs

     total energy              =    -860.05389660 Ry
     Harris-Foulkes estimate   =    -860.05389802 Ry
     estimated scf accuracy    <       0.00001929 Ry

     total magnetization       =     2.00 Bohr mag/cell
     absolute magnetization    =     3.12 Bohr mag/cell

     iteration # 59     ecut=    70.00 Ry     beta= 0.30
     Davidson diagonalization with overlap
     ethr =  8.75E-09,  avg # of iterations =  2.0

     negative rho (up, down):  5.219E-04 1.179E-02

     total cpu time spent up to now is     5610.5 secs

     total energy              =    -860.05390046 Ry
     Harris-Foulkes estimate   =    -860.05389702 Ry
     estimated scf accuracy    <       0.00001769 Ry

     total magnetization       =     2.00 Bohr mag/cell
     absolute magnetization    =     3.12 Bohr mag/cell

     iteration # 60     ecut=    70.00 Ry     beta= 0.30
     Davidson diagonalization with overlap
     ethr =  8.26E-09,  avg # of iterations =  2.0

     negative rho (up, down):  5.227E-04 1.233E-02

     total cpu time spent up to now is     5704.4 secs

     total energy              =    -860.05389844 Ry
     Harris-Foulkes estimate   =    -860.05390225 Ry
     estimated scf accuracy    <       0.00001884 Ry

     total magnetization       =     2.00 Bohr mag/cell
     absolute magnetization    =     3.12 Bohr mag/cell

     iteration # 61     ecut=    70.00 Ry     beta= 0.30
     Davidson diagonalization with overlap
     ethr =  8.26E-09,  avg # of iterations =  2.0

     negative rho (up, down):  5.217E-04 1.208E-02

     total cpu time spent up to now is     5797.5 secs

     total energy              =    -860.05390018 Ry
     Harris-Foulkes estimate   =    -860.05390021 Ry
     estimated scf accuracy    <       0.00001727 Ry

     total magnetization       =     2.00 Bohr mag/cell
     absolute magnetization    =     3.12 Bohr mag/cell

     iteration # 62     ecut=    70.00 Ry     beta= 0.30
     Davidson diagonalization with overlap
     ethr =  8.07E-09,  avg # of iterations =  2.0

     negative rho (up, down):  5.222E-04 1.152E-02

     total cpu time spent up to now is     5886.9 secs

     total energy              =    -860.05389631 Ry
     Harris-Foulkes estimate   =    -860.05390074 Ry
     estimated scf accuracy    <       0.00001768 Ry

     total magnetization       =     2.00 Bohr mag/cell
     absolute magnetization    =     3.12 Bohr mag/cell

     iteration # 63     ecut=    70.00 Ry     beta= 0.30
     Davidson diagonalization with overlap
     ethr =  8.07E-09,  avg # of iterations =  2.0

     negative rho (up, down):  5.248E-04 9.825E-03

     total cpu time spent up to now is     5983.4 secs

     total energy              =    -860.05390936 Ry
     Harris-Foulkes estimate   =    -860.05389900 Ry
     estimated scf accuracy    <       0.00001841 Ry

     total magnetization       =     2.00 Bohr mag/cell
     absolute magnetization    =     3.12 Bohr mag/cell

     iteration # 64     ecut=    70.00 Ry     beta= 0.30
     Davidson diagonalization with overlap
     ethr =  8.07E-09,  avg # of iterations =  2.0

     negative rho (up, down):  5.229E-04 1.287E-02

     total cpu time spent up to now is     6080.3 secs

     total energy              =    -860.05389112 Ry
     Harris-Foulkes estimate   =    -860.05391195 Ry
     estimated scf accuracy    <       0.00002345 Ry

     total magnetization       =     2.00 Bohr mag/cell
     absolute magnetization    =     3.13 Bohr mag/cell

     iteration # 65     ecut=    70.00 Ry     beta= 0.30
     Davidson diagonalization with overlap
     ethr =  8.07E-09,  avg # of iterations =  2.0

     negative rho (up, down):  5.245E-04 1.372E-02

     total cpu time spent up to now is     6181.3 secs

     total energy              =    -860.05389318 Ry
     Harris-Foulkes estimate   =    -860.05389875 Ry
     estimated scf accuracy    <       0.00001512 Ry

     total magnetization       =     2.00 Bohr mag/cell
     absolute magnetization    =     3.12 Bohr mag/cell

     iteration # 66     ecut=    70.00 Ry     beta= 0.30
     Davidson diagonalization with overlap
     ethr =  7.07E-09,  avg # of iterations =  2.0

     negative rho (up, down):  5.248E-04 1.158E-02

     total cpu time spent up to now is     6278.0 secs

     total energy              =    -860.05390010 Ry
     Harris-Foulkes estimate   =    -860.05389609 Ry
     estimated scf accuracy    <       0.00001197 Ry

     total magnetization       =     2.00 Bohr mag/cell
     absolute magnetization    =     3.12 Bohr mag/cell

     iteration # 67     ecut=    70.00 Ry     beta= 0.30
     Davidson diagonalization with overlap
     ethr =  5.59E-09,  avg # of iterations =  2.0

     negative rho (up, down):  5.249E-04 1.075E-02

     total cpu time spent up to now is     6367.9 secs

     total energy              =    -860.05390028 Ry
     Harris-Foulkes estimate   =    -860.05390047 Ry
     estimated scf accuracy    <       0.00001281 Ry

     total magnetization       =     2.00 Bohr mag/cell
     absolute magnetization    =     3.12 Bohr mag/cell

     iteration # 68     ecut=    70.00 Ry     beta= 0.30
     Davidson diagonalization with overlap
     ethr =  5.59E-09,  avg # of iterations =  1.0

     negative rho (up, down):  5.259E-04 1.060E-02

     total cpu time spent up to now is     6456.1 secs

     total energy              =    -860.05389989 Ry
     Harris-Foulkes estimate   =    -860.05390036 Ry
     estimated scf accuracy    <       0.00001254 Ry

     total magnetization       =     2.00 Bohr mag/cell
     absolute magnetization    =     3.12 Bohr mag/cell

     iteration # 69     ecut=    70.00 Ry     beta= 0.30
     Davidson diagonalization with overlap
     ethr =  5.59E-09,  avg # of iterations =  2.0

     negative rho (up, down):  5.253E-04 1.093E-02

     total cpu time spent up to now is     6548.8 secs

     total energy              =    -860.05389611 Ry
     Harris-Foulkes estimate   =    -860.05390106 Ry
     estimated scf accuracy    <       0.00001275 Ry

     total magnetization       =     2.00 Bohr mag/cell
     absolute magnetization    =     3.13 Bohr mag/cell

     iteration # 70     ecut=    70.00 Ry     beta= 0.30
     Davidson diagonalization with overlap
     ethr =  5.59E-09,  avg # of iterations =  2.0

     negative rho (up, down):  5.257E-04 1.061E-02

     total cpu time spent up to now is     6644.9 secs

     total energy              =    -860.05389861 Ry
     Harris-Foulkes estimate   =    -860.05389790 Ry
     estimated scf accuracy    <       0.00001200 Ry

     total magnetization       =     2.00 Bohr mag/cell
     absolute magnetization    =     3.12 Bohr mag/cell

     iteration # 71     ecut=    70.00 Ry     beta= 0.30
     Davidson diagonalization with overlap
     ethr =  5.59E-09,  avg # of iterations =  1.0

     negative rho (up, down):  5.269E-04 9.591E-03

     total cpu time spent up to now is     6733.0 secs

     total energy              =    -860.05390334 Ry
     Harris-Foulkes estimate   =    -860.05389871 Ry
     estimated scf accuracy    <       0.00001222 Ry

     total magnetization       =     2.00 Bohr mag/cell
     absolute magnetization    =     3.12 Bohr mag/cell

     iteration # 72     ecut=    70.00 Ry     beta= 0.30
     Davidson diagonalization with overlap
     ethr =  5.59E-09,  avg # of iterations =  2.0

     negative rho (up, down):  5.251E-04 1.149E-02

     total cpu time spent up to now is     6827.7 secs

     total energy              =    -860.05389099 Ry
     Harris-Foulkes estimate   =    -860.05390475 Ry
     estimated scf accuracy    <       0.00001451 Ry

     total magnetization       =     2.00 Bohr mag/cell
     absolute magnetization    =     3.13 Bohr mag/cell

     iteration # 73     ecut=    70.00 Ry     beta= 0.30
     Davidson diagonalization with overlap
     ethr =  5.59E-09,  avg # of iterations =  2.0

     negative rho (up, down):  5.271E-04 1.146E-02

     total cpu time spent up to now is     6927.1 secs

     total energy              =    -860.05389691 Ry
     Harris-Foulkes estimate   =    -860.05389498 Ry
     estimated scf accuracy    <       0.00000987 Ry

     total magnetization       =     2.00 Bohr mag/cell
     absolute magnetization    =     3.12 Bohr mag/cell

     iteration # 74     ecut=    70.00 Ry     beta= 0.30
     Davidson diagonalization with overlap
     ethr =  4.61E-09,  avg # of iterations =  2.0

     negative rho (up, down):  5.280E-04 1.012E-02

     total cpu time spent up to now is     7020.8 secs

     total energy              =    -860.05390249 Ry
     Harris-Foulkes estimate   =    -860.05389831 Ry
     estimated scf accuracy    <       0.00000947 Ry

     total magnetization       =     2.00 Bohr mag/cell
     absolute magnetization    =     3.13 Bohr mag/cell

     iteration # 75     ecut=    70.00 Ry     beta= 0.30
     Davidson diagonalization with overlap
     ethr =  4.43E-09,  avg # of iterations =  2.0

     negative rho (up, down):  5.273E-04 1.004E-02

     total cpu time spent up to now is     7117.0 secs

     total energy              =    -860.05390067 Ry
     Harris-Foulkes estimate   =    -860.05390397 Ry
     estimated scf accuracy    <       0.00001026 Ry

     total magnetization       =     2.00 Bohr mag/cell
     absolute magnetization    =     3.13 Bohr mag/cell

     iteration # 76     ecut=    70.00 Ry     beta= 0.30
     Davidson diagonalization with overlap
     ethr =  4.43E-09,  avg # of iterations =  2.0

     negative rho (up, down):  5.276E-04 1.150E-02

     total cpu time spent up to now is     7206.6 secs

     total energy              =    -860.05389362 Ry
     Harris-Foulkes estimate   =    -860.05390095 Ry
     estimated scf accuracy    <       0.00000942 Ry

     total magnetization       =     2.00 Bohr mag/cell
     absolute magnetization    =     3.13 Bohr mag/cell

     iteration # 77     ecut=    70.00 Ry     beta= 0.30
     Davidson diagonalization with overlap
     ethr =  4.40E-09,  avg # of iterations =  2.0

     negative rho (up, down):  5.295E-04 1.164E-02

     total cpu time spent up to now is     7306.1 secs

     total energy              =    -860.05389692 Ry
     Harris-Foulkes estimate   =    -860.05389617 Ry
     estimated scf accuracy    <       0.00000660 Ry

     total magnetization       =     2.00 Bohr mag/cell
     absolute magnetization    =     3.13 Bohr mag/cell

     iteration # 78     ecut=    70.00 Ry     beta= 0.30
     Davidson diagonalization with overlap
     ethr =  3.08E-09,  avg # of iterations =  2.0

     negative rho (up, down):  5.316E-04 1.091E-02

     total cpu time spent up to now is     7400.8 secs

     total energy              =    -860.05390117 Ry
     Harris-Foulkes estimate   =    -860.05389804 Ry
     estimated scf accuracy    <       0.00000499 Ry

     total magnetization       =     2.00 Bohr mag/cell
     absolute magnetization    =     3.14 Bohr mag/cell

     iteration # 79     ecut=    70.00 Ry     beta= 0.30
     Davidson diagonalization with overlap
     ethr =  2.33E-09,  avg # of iterations =  3.0

     negative rho (up, down):  5.307E-04 9.454E-03

     total cpu time spent up to now is     7499.1 secs

     total energy              =    -860.05390300 Ry
     Harris-Foulkes estimate   =    -860.05390234 Ry
     estimated scf accuracy    <       0.00000456 Ry

     total magnetization       =     2.00 Bohr mag/cell
     absolute magnetization    =     3.15 Bohr mag/cell

     iteration # 80     ecut=    70.00 Ry     beta= 0.30
     Davidson diagonalization with overlap
     ethr =  2.13E-09,  avg # of iterations =  1.0

     negative rho (up, down):  5.331E-04 8.613E-03

     total cpu time spent up to now is     7587.2 secs

     total energy              =    -860.05390497 Ry
     Harris-Foulkes estimate   =    -860.05390303 Ry
     estimated scf accuracy    <       0.00000480 Ry

     total magnetization       =     2.00 Bohr mag/cell
     absolute magnetization    =     3.15 Bohr mag/cell

     iteration # 81     ecut=    70.00 Ry     beta= 0.30
     Davidson diagonalization with overlap
     ethr =  2.13E-09,  avg # of iterations =  2.5

     negative rho (up, down):  5.334E-04 8.538E-03

     total cpu time spent up to now is     7687.1 secs

     total energy              =    -860.05390635 Ry
     Harris-Foulkes estimate   =    -860.05390644 Ry
     estimated scf accuracy    <       0.00000551 Ry

     total magnetization       =     2.00 Bohr mag/cell
     absolute magnetization    =     3.15 Bohr mag/cell

     iteration # 82     ecut=    70.00 Ry     beta= 0.30
     Davidson diagonalization with overlap
     ethr =  2.13E-09,  avg # of iterations =  2.0

     negative rho (up, down):  5.341E-04 8.919E-03

     total cpu time spent up to now is     7776.2 secs

     total energy              =    -860.05390309 Ry
     Harris-Foulkes estimate   =    -860.05390644 Ry
     estimated scf accuracy    <       0.00000528 Ry

     total magnetization       =     2.00 Bohr mag/cell
     absolute magnetization    =     3.15 Bohr mag/cell

     iteration # 83     ecut=    70.00 Ry     beta= 0.30
     Davidson diagonalization with overlap
     ethr =  2.13E-09,  avg # of iterations =  2.0

     negative rho (up, down):  5.348E-04 8.771E-03

     total cpu time spent up to now is     7876.0 secs

     total energy              =    -860.05390571 Ry
     Harris-Foulkes estimate   =    -860.05390473 Ry
     estimated scf accuracy    <       0.00000371 Ry

     total magnetization       =     2.00 Bohr mag/cell
     absolute magnetization    =     3.15 Bohr mag/cell

     iteration # 84     ecut=    70.00 Ry     beta= 0.30
     Davidson diagonalization with overlap
     ethr =  1.73E-09,  avg # of iterations =  2.0

     negative rho (up, down):  5.344E-04 8.257E-03

     total cpu time spent up to now is     7969.6 secs

     total energy              =    -860.05390712 Ry
     Harris-Foulkes estimate   =    -860.05390600 Ry
     estimated scf accuracy    <       0.00000391 Ry

     total magnetization       =     2.00 Bohr mag/cell
     absolute magnetization    =     3.15 Bohr mag/cell

     iteration # 85     ecut=    70.00 Ry     beta= 0.30
     Davidson diagonalization with overlap
     ethr =  1.73E-09,  avg # of iterations =  2.0

     negative rho (up, down):  5.340E-04 8.582E-03

     total cpu time spent up to now is     8062.9 secs

     total energy              =    -860.05390624 Ry
     Harris-Foulkes estimate   =    -860.05390741 Ry
     estimated scf accuracy    <       0.00000454 Ry

     total magnetization       =     2.00 Bohr mag/cell
     absolute magnetization    =     3.16 Bohr mag/cell

     iteration # 86     ecut=    70.00 Ry     beta= 0.30
     Davidson diagonalization with overlap
     ethr =  1.73E-09,  avg # of iterations =  2.0

     negative rho (up, down):  5.339E-04 8.636E-03

     total cpu time spent up to now is     8157.4 secs

     total energy              =    -860.05390639 Ry
     Harris-Foulkes estimate   =    -860.05390653 Ry
     estimated scf accuracy    <       0.00000439 Ry

     total magnetization       =     2.00 Bohr mag/cell
     absolute magnetization    =     3.15 Bohr mag/cell

     iteration # 87     ecut=    70.00 Ry     beta= 0.30
     Davidson diagonalization with overlap
     ethr =  1.73E-09,  avg # of iterations =  1.0

     negative rho (up, down):  5.341E-04 8.999E-03

     total cpu time spent up to now is     8245.8 secs

     total energy              =    -860.05390538 Ry
     Harris-Foulkes estimate   =    -860.05390640 Ry
     estimated scf accuracy    <       0.00000438 Ry

     total magnetization       =     2.00 Bohr mag/cell
     absolute magnetization    =     3.15 Bohr mag/cell

     iteration # 88     ecut=    70.00 Ry     beta= 0.30
     Davidson diagonalization with overlap
     ethr =  1.73E-09,  avg # of iterations =  2.0

     negative rho (up, down):  5.347E-04 8.635E-03

     total cpu time spent up to now is     8338.3 secs

     total energy              =    -860.05390708 Ry
     Harris-Foulkes estimate   =    -860.05390569 Ry
     estimated scf accuracy    <       0.00000424 Ry

     total magnetization       =     2.00 Bohr mag/cell
     absolute magnetization    =     3.15 Bohr mag/cell

     iteration # 89     ecut=    70.00 Ry     beta= 0.30
     Davidson diagonalization with overlap
     ethr =  1.73E-09,  avg # of iterations =  2.0

     negative rho (up, down):  5.335E-04 8.542E-03

     total cpu time spent up to now is     8435.9 secs

     total energy              =    -860.05390703 Ry
     Harris-Foulkes estimate   =    -860.05390776 Ry
     estimated scf accuracy    <       0.00000497 Ry

     total magnetization       =     2.00 Bohr mag/cell
     absolute magnetization    =     3.16 Bohr mag/cell

     iteration # 90     ecut=    70.00 Ry     beta= 0.30
     Davidson diagonalization with overlap
     ethr =  1.73E-09,  avg # of iterations =  2.0

     negative rho (up, down):  5.341E-04 9.390E-03

     total cpu time spent up to now is     8536.1 secs

     total energy              =    -860.05390460 Ry
     Harris-Foulkes estimate   =    -860.05390846 Ry
     estimated scf accuracy    <       0.00000571 Ry

     total magnetization       =     2.00 Bohr mag/cell
     absolute magnetization    =     3.16 Bohr mag/cell

     iteration # 91     ecut=    70.00 Ry     beta= 0.30
     Davidson diagonalization with overlap
     ethr =  1.73E-09,  avg # of iterations =  2.0

     negative rho (up, down):  5.342E-04 1.055E-02

     total cpu time spent up to now is     8634.0 secs

     total energy              =    -860.05390100 Ry
     Harris-Foulkes estimate   =    -860.05390550 Ry
     estimated scf accuracy    <       0.00000371 Ry

     total magnetization       =     2.00 Bohr mag/cell
     absolute magnetization    =     3.15 Bohr mag/cell

     iteration # 92     ecut=    70.00 Ry     beta= 0.30
     Davidson diagonalization with overlap
     ethr =  1.73E-09,  avg # of iterations =  2.5

     negative rho (up, down):  5.334E-04 9.941E-03

     total cpu time spent up to now is     8735.8 secs

     total energy              =    -860.05390230 Ry
     Harris-Foulkes estimate   =    -860.05390277 Ry
     estimated scf accuracy    <       0.00000222 Ry

     total magnetization       =     2.00 Bohr mag/cell
     absolute magnetization    =     3.15 Bohr mag/cell

     iteration # 93     ecut=    70.00 Ry     beta= 0.30
     Davidson diagonalization with overlap
     ethr =  1.04E-09,  avg # of iterations =  2.0

     negative rho (up, down):  5.332E-04 8.978E-03

     total cpu time spent up to now is     8836.3 secs

     total energy              =    -860.05390448 Ry
     Harris-Foulkes estimate   =    -860.05390310 Ry
     estimated scf accuracy    <       0.00000165 Ry

     total magnetization       =     2.00 Bohr mag/cell
     absolute magnetization    =     3.15 Bohr mag/cell

     iteration # 94     ecut=    70.00 Ry     beta= 0.30
     Davidson diagonalization with overlap
     ethr =  7.71E-10,  avg # of iterations =  2.0

     negative rho (up, down):  5.329E-04 8.368E-03

     total cpu time spent up to now is     8928.7 secs

     total energy              =    -860.05390600 Ry
     Harris-Foulkes estimate   =    -860.05390465 Ry
     estimated scf accuracy    <       0.00000135 Ry

     total magnetization       =     2.00 Bohr mag/cell
     absolute magnetization    =     3.16 Bohr mag/cell

     iteration # 95     ecut=    70.00 Ry     beta= 0.30
     Davidson diagonalization with overlap
     ethr =  6.32E-10,  avg # of iterations =  2.5

     negative rho (up, down):  5.331E-04 8.242E-03

     total cpu time spent up to now is     9026.9 secs

     total energy              =    -860.05390534 Ry
     Harris-Foulkes estimate   =    -860.05390625 Ry
     estimated scf accuracy    <       0.00000156 Ry

     total magnetization       =     2.00 Bohr mag/cell
     absolute magnetization    =     3.16 Bohr mag/cell

     iteration # 96     ecut=    70.00 Ry     beta= 0.30
     Davidson diagonalization with overlap
     ethr =  6.32E-10,  avg # of iterations =  2.0

     negative rho (up, down):  5.330E-04 8.051E-03

     total cpu time spent up to now is     9118.0 secs

     total energy              =    -860.05390558 Ry
     Harris-Foulkes estimate   =    -860.05390547 Ry
     estimated scf accuracy    <       0.00000144 Ry

     total magnetization       =     2.00 Bohr mag/cell
     absolute magnetization    =     3.16 Bohr mag/cell

     iteration # 97     ecut=    70.00 Ry     beta= 0.30
     Davidson diagonalization with overlap
     ethr =  6.32E-10,  avg # of iterations =  1.0

     negative rho (up, down):  5.331E-04 7.860E-03

     total cpu time spent up to now is     9206.5 secs

     total energy              =    -860.05390603 Ry
     Harris-Foulkes estimate   =    -860.05390559 Ry
     estimated scf accuracy    <       0.00000142 Ry

     total magnetization       =     2.00 Bohr mag/cell
     absolute magnetization    =     3.16 Bohr mag/cell

     iteration # 98     ecut=    70.00 Ry     beta= 0.30
     Davidson diagonalization with overlap
     ethr =  6.32E-10,  avg # of iterations =  2.0

     negative rho (up, down):  5.330E-04 7.920E-03

     total cpu time spent up to now is     9297.2 secs

     total energy              =    -860.05390575 Ry
     Harris-Foulkes estimate   =    -860.05390609 Ry
     estimated scf accuracy    <       0.00000146 Ry

     total magnetization       =     2.00 Bohr mag/cell
     absolute magnetization    =     3.16 Bohr mag/cell

     iteration # 99     ecut=    70.00 Ry     beta= 0.30
     Davidson diagonalization with overlap
     ethr =  6.32E-10,  avg # of iterations =  2.0

     negative rho (up, down):  5.329E-04 7.760E-03

     total cpu time spent up to now is     9390.0 secs

     total energy              =    -860.05390679 Ry
     Harris-Foulkes estimate   =    -860.05390583 Ry
     estimated scf accuracy    <       0.00000147 Ry

     total magnetization       =     2.00 Bohr mag/cell
     absolute magnetization    =     3.16 Bohr mag/cell

     iteration #100     ecut=    70.00 Ry     beta= 0.30
     Davidson diagonalization with overlap
     ethr =  6.32E-10,  avg # of iterations =  2.0

     negative rho (up, down):  5.330E-04 8.048E-03

     Magnetic moment per site:
     atom:    1    charge:    0.2119    magn:   -0.0000    constr:    0.0000
     atom:    2    charge:    0.2109    magn:   -0.0000    constr:    0.0000
     atom:    3    charge:    1.7171    magn:   -0.0122    constr:    0.0000
     atom:    4    charge:    1.7153    magn:    0.0174    constr:    0.0000
     atom:    5    charge:    1.7177    magn:   -0.0083    constr:    0.0000
     atom:    6    charge:    1.7142    magn:    0.0053    constr:    0.0000
     atom:    7    charge:    1.7177    magn:   -0.0083    constr:    0.0000
     atom:    8    charge:    1.7153    magn:    0.0174    constr:    0.0000
     atom:    9    charge:    1.7171    magn:   -0.0122    constr:    0.0000
     atom:   10    charge:    1.7149    magn:    0.0584    constr:    0.0000
     atom:   11    charge:    1.7176    magn:   -0.0167    constr:    0.0000
     atom:   12    charge:    1.7149    magn:    0.0584    constr:    0.0000
     atom:   13    charge:    1.7176    magn:   -0.0167    constr:    0.0000
     atom:   14    charge:    1.7155    magn:    0.0456    constr:    0.0000
     atom:   15    charge:    1.7140    magn:   -0.0132    constr:    0.0000
     atom:   16    charge:    1.7106    magn:    0.0552    constr:    0.0000
     atom:   17    charge:    1.7228    magn:   -0.0119    constr:    0.0000
     atom:   18    charge:    1.7106    magn:    0.0552    constr:    0.0000
     atom:   19    charge:    1.7140    magn:   -0.0132    constr:    0.0000
     atom:   20    charge:    1.7155    magn:    0.0455    constr:    0.0000
     atom:   21    charge:    1.7176    magn:   -0.0167    constr:    0.0000
     atom:   22    charge:    1.7149    magn:    0.0584    constr:    0.0000
     atom:   23    charge:    1.7171    magn:   -0.0122    constr:    0.0000
     atom:   24    charge:    1.7153    magn:    0.0174    constr:    0.0000
     atom:   25    charge:    1.7140    magn:   -0.0131    constr:    0.0000
     atom:   26    charge:    1.7106    magn:    0.0550    constr:    0.0000
     atom:   27    charge:    1.8518    magn:   -0.0190    constr:    0.0000
     atom:   28    charge:   11.1427    magn:    0.4496    constr:    0.0000
     atom:   29    charge:    1.8518    magn:   -0.0189    constr:    0.0000
     atom:   30    charge:    1.7106    magn:    0.0550    constr:    0.0000
     atom:   31    charge:    1.7140    magn:   -0.0131    constr:    0.0000
     atom:   32    charge:    1.7153    magn:    0.0173    constr:    0.0000
     atom:   33    charge:    1.7177    magn:   -0.0082    constr:    0.0000
     atom:   34    charge:    1.7139    magn:    0.0122    constr:    0.0000
     atom:   35    charge:    1.7177    magn:   -0.0082    constr:    0.0000
     atom:   36    charge:    1.7142    magn:    0.0052    constr:    0.0000
     atom:   37    charge:    1.7228    magn:   -0.0117    constr:    0.0000
     atom:   38    charge:    1.7106    magn:    0.0548    constr:    0.0000
     atom:   39    charge:    1.8519    magn:   -0.0188    constr:    0.0000
     atom:   40    charge:    1.7106    magn:    0.0548    constr:    0.0000
     atom:   41    charge:    1.7228    magn:   -0.0117    constr:    0.0000
     atom:   42    charge:    1.7142    magn:    0.0052    constr:    0.0000
     atom:   43    charge:    1.7177    magn:   -0.0082    constr:    0.0000
     atom:   44    charge:    1.7139    magn:    0.0122    constr:    0.0000
     atom:   45    charge:    1.7236    magn:   -0.0050    constr:    0.0000
     atom:   46    charge:    1.7139    magn:    0.0122    constr:    0.0000
     atom:   47    charge:    1.7177    magn:   -0.0082    constr:    0.0000
     atom:   48    charge:    1.7153    magn:    0.0174    constr:    0.0000
     atom:   49    charge:    1.7140    magn:   -0.0129    constr:    0.0000
     atom:   50    charge:    1.7155    magn:    0.0454    constr:    0.0000
     atom:   51    charge:    1.7140    magn:   -0.0129    constr:    0.0000
     atom:   52    charge:    1.7153    magn:    0.0174    constr:    0.0000

     total cpu time spent up to now is     9484.5 secs

     total energy              =    -860.05390528 Ry
     Harris-Foulkes estimate   =    -860.05390695 Ry
     estimated scf accuracy    <       0.00000173 Ry

     total magnetization       =     2.00 Bohr mag/cell
     absolute magnetization    =     3.17 Bohr mag/cell

     iteration #101     ecut=    70.00 Ry     beta= 0.30
     Davidson diagonalization with overlap
     ethr =  6.32E-10,  avg # of iterations =  2.0

     negative rho (up, down):  5.331E-04 8.261E-03

     total cpu time spent up to now is     9583.7 secs

     total energy              =    -860.05390494 Ry
     Harris-Foulkes estimate   =    -860.05390564 Ry
     estimated scf accuracy    <       0.00000132 Ry

     total magnetization       =     2.00 Bohr mag/cell
     absolute magnetization    =     3.16 Bohr mag/cell

     iteration #102     ecut=    70.00 Ry     beta= 0.30
     Davidson diagonalization with overlap
     ethr =  6.18E-10,  avg # of iterations =  2.0

     negative rho (up, down):  5.331E-04 8.071E-03

     total cpu time spent up to now is     9681.9 secs

     total energy              =    -860.05390603 Ry
     Harris-Foulkes estimate   =    -860.05390521 Ry
     estimated scf accuracy    <       0.00000105 Ry

     total magnetization       =     2.00 Bohr mag/cell
     absolute magnetization    =     3.16 Bohr mag/cell

     iteration #103     ecut=    70.00 Ry     beta= 0.30
     Davidson diagonalization with overlap
     ethr =  4.92E-10,  avg # of iterations =  2.0

     negative rho (up, down):  5.330E-04 8.125E-03

     total cpu time spent up to now is     9779.7 secs

     total energy              =    -860.05390540 Ry
     Harris-Foulkes estimate   =    -860.05390622 Ry
     estimated scf accuracy    <       0.00000121 Ry

     total magnetization       =     2.00 Bohr mag/cell
     absolute magnetization    =     3.17 Bohr mag/cell

     iteration #104     ecut=    70.00 Ry     beta= 0.30
     Davidson diagonalization with overlap
     ethr =  4.92E-10,  avg # of iterations =  2.0

     negative rho (up, down):  5.330E-04 7.499E-03

     Magnetic moment per site:
     atom:    1    charge:    0.2118    magn:   -0.0000    constr:    0.0000
     atom:    2    charge:    0.2109    magn:   -0.0000    constr:    0.0000
     atom:    3    charge:    1.7171    magn:   -0.0125    constr:    0.0000
     atom:    4    charge:    1.7153    magn:    0.0177    constr:    0.0000
     atom:    5    charge:    1.7177    magn:   -0.0085    constr:    0.0000
     atom:    6    charge:    1.7142    magn:    0.0056    constr:    0.0000
     atom:    7    charge:    1.7177    magn:   -0.0085    constr:    0.0000
     atom:    8    charge:    1.7153    magn:    0.0177    constr:    0.0000
     atom:    9    charge:    1.7171    magn:   -0.0125    constr:    0.0000
     atom:   10    charge:    1.7149    magn:    0.0587    constr:    0.0000
     atom:   11    charge:    1.7176    magn:   -0.0171    constr:    0.0000
     atom:   12    charge:    1.7149    magn:    0.0587    constr:    0.0000
     atom:   13    charge:    1.7176    magn:   -0.0171    constr:    0.0000
     atom:   14    charge:    1.7155    magn:    0.0458    constr:    0.0000
     atom:   15    charge:    1.7140    magn:   -0.0135    constr:    0.0000
     atom:   16    charge:    1.7106    magn:    0.0554    constr:    0.0000
     atom:   17    charge:    1.7228    magn:   -0.0121    constr:    0.0000
     atom:   18    charge:    1.7106    magn:    0.0554    constr:    0.0000
     atom:   19    charge:    1.7140    magn:   -0.0135    constr:    0.0000
     atom:   20    charge:    1.7155    magn:    0.0458    constr:    0.0000
     atom:   21    charge:    1.7176    magn:   -0.0171    constr:    0.0000
     atom:   22    charge:    1.7149    magn:    0.0587    constr:    0.0000
     atom:   23    charge:    1.7171    magn:   -0.0125    constr:    0.0000
     atom:   24    charge:    1.7153    magn:    0.0177    constr:    0.0000
     atom:   25    charge:    1.7140    magn:   -0.0134    constr:    0.0000
     atom:   26    charge:    1.7106    magn:    0.0553    constr:    0.0000
     atom:   27    charge:    1.8518    magn:   -0.0193    constr:    0.0000
     atom:   28    charge:   11.1425    magn:    0.4514    constr:    0.0000
     atom:   29    charge:    1.8519    magn:   -0.0192    constr:    0.0000
     atom:   30    charge:    1.7106    magn:    0.0553    constr:    0.0000
     atom:   31    charge:    1.7140    magn:   -0.0134    constr:    0.0000
     atom:   32    charge:    1.7153    magn:    0.0177    constr:    0.0000
     atom:   33    charge:    1.7177    magn:   -0.0085    constr:    0.0000
     atom:   34    charge:    1.7139    magn:    0.0124    constr:    0.0000
     atom:   35    charge:    1.7177    magn:   -0.0085    constr:    0.0000
     atom:   36    charge:    1.7142    magn:    0.0055    constr:    0.0000
     atom:   37    charge:    1.7228    magn:   -0.0120    constr:    0.0000
     atom:   38    charge:    1.7106    magn:    0.0552    constr:    0.0000
     atom:   39    charge:    1.8519    magn:   -0.0192    constr:    0.0000
     atom:   40    charge:    1.7106    magn:    0.0552    constr:    0.0000
     atom:   41    charge:    1.7229    magn:   -0.0120    constr:    0.0000
     atom:   42    charge:    1.7142    magn:    0.0055    constr:    0.0000
     atom:   43    charge:    1.7177    magn:   -0.0085    constr:    0.0000
     atom:   44    charge:    1.7139    magn:    0.0124    constr:    0.0000
     atom:   45    charge:    1.7236    magn:   -0.0051    constr:    0.0000
     atom:   46    charge:    1.7139    magn:    0.0124    constr:    0.0000
     atom:   47    charge:    1.7177    magn:   -0.0085    constr:    0.0000
     atom:   48    charge:    1.7153    magn:    0.0177    constr:    0.0000
     atom:   49    charge:    1.7140    magn:   -0.0134    constr:    0.0000
     atom:   50    charge:    1.7155    magn:    0.0458    constr:    0.0000
     atom:   51    charge:    1.7140    magn:   -0.0134    constr:    0.0000
     atom:   52    charge:    1.7153    magn:    0.0176    constr:    0.0000

     total cpu time spent up to now is     9878.8 secs

     End of self-consistent calculation

 ------ SPIN UP ------------


          k = 0.0000 0.0000 0.0000 ( 87777 PWs)   bands (ev):

   -88.6916 -55.5799 -55.5798 -53.8644 -19.8876 -19.0529 -19.0525 -18.9665
   -18.9280 -18.9279 -18.5842 -17.1776 -17.1776 -17.1775 -17.1059 -17.1058
   -16.8003 -16.3313 -16.3312 -16.2297 -16.1776 -16.1775 -15.4861 -14.2333
   -14.2331 -14.1478 -14.1010 -14.1009 -13.4324 -13.1649 -13.1649 -13.1406
   -12.8604 -12.8603 -12.4515 -11.9437 -11.9436 -11.7555 -11.5082 -11.5081
   -10.6267  -9.7934  -9.7933  -9.5306  -9.4216  -9.4216  -9.3387  -9.3076
    -9.3075  -9.2947  -8.8285  -8.8284  -8.2852  -8.2851  -8.1967  -8.0352
    -7.9371  -7.5478  -7.5477  -7.3407  -7.2244  -7.2237  -7.0801  -7.0800
    -6.9467  -6.9232  -6.9230  -6.8123  -6.6696  -6.6696  -6.6392  -6.6267
    -6.6266  -6.5840  -6.5797  -6.2897  -5.7358  -5.7355  -5.6700  -5.6695
    -5.4812  -5.4811  -5.2752  -5.0922  -4.9820  -4.8451  -4.8187  -4.8186
    -4.5339  -4.5337  -4.5040  -4.3365  -4.3365  -3.9818  -3.9815  -3.8945
    -3.7856  -3.7856  -3.2096  -2.8961  -2.8961  -1.9776  -1.9077  -1.9076
    -1.2998  -1.2995  -1.0611  -0.8905   0.8195   0.8673   0.8675   1.3955
     1.3959   1.5059   2.3859   2.3874   2.5207   2.6620   2.6621   2.7617
     3.2963   3.2969   3.4154   3.6574   3.6723   3.7226   3.7459   3.8653

     occupation numbers 
     1.0000   1.0000   1.0000   1.0000   1.0000   1.0000   1.0000   1.0000
     1.0000   1.0000   1.0000   1.0000   1.0000   1.0000   1.0000   1.0000
     1.0000   1.0000   1.0000   1.0000   1.0000   1.0000   1.0000   1.0000
     1.0000   1.0000   1.0000   1.0000   1.0000   1.0000   1.0000   1.0000
     1.0000   1.0000   1.0000   1.0000   1.0000   1.0000   1.0000   1.0000
     1.0000   1.0000   1.0000   1.0000   1.0000   1.0000   1.0000   1.0000
     1.0000   1.0000   1.0000   1.0000   1.0000   1.0000   1.0000   1.0000
     1.0000   1.0000   1.0000   1.0000   1.0000   1.0000   1.0000   1.0000
     1.0000   1.0000   1.0000   1.0000   1.0000   1.0000   1.0000   1.0000
     1.0000   1.0000   1.0000   1.0000   1.0000   1.0000   1.0000   1.0000
     1.0000   1.0000   1.0000   1.0000   1.0000   1.0000   1.0000   1.0000
     1.0000   1.0000   1.0000   1.0000   1.0000   1.0000   1.0000   1.0000
     1.0000   1.0000   1.0000   1.0000   1.0000   1.0000   1.0000   1.0000
     1.0000   1.0000   1.0000   1.0000   0.0000   0.0000   0.0000   0.0000
     0.0000   0.0000   0.0000   0.0000   0.0000   0.0000   0.0000   0.0000
     0.0000   0.0000   0.0000   0.0000   0.0000   0.0000   0.0000   0.0000

 ------ SPIN DOWN ----------


          k = 0.0000 0.0000 0.0000 ( 87777 PWs)   bands (ev):

   -87.9742 -54.9951 -54.9950 -52.9742 -19.8456 -19.0063 -19.0060 -18.9266
   -18.9017 -18.9016 -18.5253 -17.1499 -17.1411 -17.1410 -17.0520 -17.0519
   -16.7701 -16.2856 -16.2855 -16.1956 -16.1343 -16.1342 -15.4614 -14.1623
   -14.1621 -14.0907 -14.0906 -14.0854 -13.4386 -13.1401 -13.1400 -13.1080
   -12.8412 -12.8412 -12.4207 -11.9061 -11.9060 -11.7326 -11.4860 -11.4859
   -10.6039  -9.7448  -9.7446  -9.4988  -9.3895  -9.3894  -9.3215  -9.2840
    -9.2840  -9.2767  -8.8159  -8.8158  -8.2498  -8.2497  -8.1770  -7.9376
    -7.9200  -7.5331  -7.5330  -7.3088  -7.0600  -7.0593  -7.0342  -7.0340
    -6.8638  -6.8636  -6.8468  -6.7969  -6.6531  -6.6530  -6.6286  -6.6130
    -6.6129  -6.5618  -6.4481  -6.2892  -5.6905  -5.6902  -5.4392  -5.4392
    -5.4361  -5.4355  -5.1959  -5.0784  -4.9722  -4.7701  -4.7263  -4.7262
    -4.4510  -4.4506  -4.4304  -4.2102  -4.2102  -3.8469  -3.8466  -3.7980
    -3.7709  -3.7708  -3.1658  -2.6657  -2.6656  -1.8798  -1.8797  -1.8165
    -0.9047  -0.8514  -0.7936  -0.7928   0.9149   0.9150   0.9768   1.5519
     1.5521   1.6284   2.5322   2.5339   2.5357   2.8033   2.8035   2.8358
     3.4542   3.4552   3.5054   3.6753   3.6881   3.7334   3.7346   3.7545

     occupation numbers 
     1.0000   1.0000   1.0000   1.0000   1.0000   1.0000   1.0000   1.0000
     1.0000   1.0000   1.0000   1.0000   1.0000   1.0000   1.0000   1.0000
     1.0000   1.0000   1.0000   1.0000   1.0000   1.0000   1.0000   1.0000
     1.0000   1.0000   1.0000   1.0000   1.0000   1.0000   1.0000   1.0000
     1.0000   1.0000   1.0000   1.0000   1.0000   1.0000   1.0000   1.0000
     1.0000   1.0000   1.0000   1.0000   1.0000   1.0000   1.0000   1.0000
     1.0000   1.0000   1.0000   1.0000   1.0000   1.0000   1.0000   1.0000
     1.0000   1.0000   1.0000   1.0000   1.0000   1.0000   1.0000   1.0000
     1.0000   1.0000   1.0000   1.0000   1.0000   1.0000   1.0000   1.0000
     1.0000   1.0000   1.0000   1.0000   1.0000   1.0000   1.0000   1.0000
     1.0000   1.0000   1.0000   1.0000   1.0000   1.0000   1.0000   1.0000
     1.0000   1.0000   1.0000   1.0000   1.0000   1.0000   1.0000   1.0000
     1.0000   1.0000   1.0000   1.0000   1.0000   1.0000   1.0000   1.0000
     1.0000   1.0000   0.0000   0.0000   0.0000   0.0000   0.0000   0.0000
     0.0000   0.0000   0.0000   0.0000   0.0000   0.0000   0.0000   0.0000
     0.0000   0.0000   0.0000   0.0000   0.0000   0.0000   0.0000   0.0000

     the Fermi energy is    -0.8389 ev

!    total energy              =    -860.05390730 Ry
     Harris-Foulkes estimate   =    -860.05390569 Ry
     estimated scf accuracy    <       0.00000088 Ry

     The total energy is the sum of the following terms:

     one-electron contribution =   -2779.08201094 Ry
     hartree contribution      =    1433.33038166 Ry
     xc contribution           =    -259.29880065 Ry
     ewald contribution        =     744.99644101 Ry
     smearing contrib. (-TS)   =       0.00008162 Ry

     total magnetization       =     2.00 Bohr mag/cell
     absolute magnetization    =     3.17 Bohr mag/cell

     convergence has been achieved in 104 iterations

     Writing output data file distance-5.0.save/

     init_run     :     66.70s CPU     68.05s WALL (       1 calls)
     electrons    :   9617.90s CPU   9809.73s WALL (       1 calls)

     Called by init_run:
     wfcinit      :     40.35s CPU     40.65s WALL (       1 calls)
     wfcinit:atom :      0.04s CPU      0.09s WALL (       2 calls)
     wfcinit:wfcr :     39.97s CPU     40.16s WALL (       2 calls)
     potinit      :     11.24s CPU     11.71s WALL (       1 calls)
     hinit0       :      6.88s CPU      6.93s WALL (       1 calls)

     Called by electrons:
     c_bands      :   6056.08s CPU   6091.85s WALL (     104 calls)
     sum_band     :   2058.34s CPU   2117.99s WALL (     104 calls)
     v_of_rho     :    738.02s CPU    780.10s WALL (     105 calls)
     v_h          :      7.56s CPU      7.76s WALL (     105 calls)
     v_xc         :    730.45s CPU    772.34s WALL (     105 calls)
     newd         :    717.76s CPU    771.86s WALL (     105 calls)
     mix_rho      :     38.35s CPU     38.96s WALL (     104 calls)

     Called by c_bands:
     init_us_2    :     18.37s CPU     18.45s WALL (     418 calls)
     cegterg      :   6002.12s CPU   6037.59s WALL (     208 calls)

     Called by sum_band:
     sum_band:bec :      0.17s CPU      0.17s WALL (     208 calls)
     addusdens    :   1260.80s CPU   1315.42s WALL (     104 calls)

     Called by *egterg:
     h_psi        :   3175.30s CPU   3200.31s WALL (     681 calls)
     s_psi        :   1073.94s CPU   1074.47s WALL (     681 calls)
     g_psi        :      3.41s CPU      3.42s WALL (     471 calls)
     cdiaghg      :     40.67s CPU     40.70s WALL (     679 calls)
     cegterg:over :    681.68s CPU    681.97s WALL (     471 calls)
     cegterg:upda :    408.78s CPU    411.53s WALL (     471 calls)
     cegterg:last :    321.23s CPU    321.33s WALL (     208 calls)

     Called by h_psi:
     h_psi:pot    :   3171.69s CPU   3192.44s WALL (     681 calls)
     h_psi:calbec :   1065.19s CPU   1065.67s WALL (     681 calls)
     vloc_psi     :   1031.45s CPU   1051.32s WALL (     681 calls)
     add_vuspsi   :   1075.04s CPU   1075.44s WALL (     681 calls)

     General routines
     calbec       :   1550.05s CPU   1550.78s WALL (     889 calls)
     fft          :    422.84s CPU    438.74s WALL (    7869 calls)
     ffts         :      7.54s CPU      7.78s WALL (     418 calls)
     fftw         :   1113.76s CPU   1135.57s WALL (  143822 calls)
     interpolate  :     17.25s CPU     17.66s WALL (     210 calls)

     Parallel routines
     fft_scatt_xy :    272.10s CPU    276.24s WALL (  152109 calls)
     fft_scatt_yz :    528.29s CPU    553.74s WALL (  152109 calls)

     PWSCF        :      2h41m CPU      2h44m WALL


   This run was terminated on:  13:47:51   6Nov2022            

=------------------------------------------------------------------------------=
   JOB DONE.
=------------------------------------------------------------------------------=
