
     Program PWSCF v.6.4.1 starts on 31Aug2022 at 21:20:50 

     This program is part of the open-source Quantum ESPRESSO suite
     for quantum simulation of materials; please cite
         "P. Giannozzi et al., J. Phys.:Condens. Matter 21 395502 (2009);
         "P. Giannozzi et al., J. Phys.:Condens. Matter 29 465901 (2017);
          URL http://www.quantum-espresso.org", 
     in publications or presentations arising from this work. More details at
     http://www.quantum-espresso.org/quote

     Parallel version (MPI), running on     5 processors

     MPI processes distributed on     1 nodes
     R & G space division:  proc/nbgrp/npool/nimage =       5
     Reading input from distance-2.6.in

     Current dimensions of program PWSCF are:
     Max number of different atomic species (ntypx) = 10
     Max number of k-points (npk) =  40000
     Max angular momentum in pseudopotentials (lmaxx) =  3

     IMPORTANT: XC functional enforced from input :
     Exchange-correlation      = RVV10 ( 1  4 13  4 3 0)
     Any further DFT definition will be discarded
     Please, verify this is what you really want

               file H.pbe-rrkjus.UPF: wavefunction(s)  1S renormalized
               file V.pbe-spnl-rrkjus_psl.1.0.0.UPF: wavefunction(s)  3P 3D renormalized

     Subspace diagonalization in iterative solution of the eigenvalue problem:
     a serial algorithm will be used


     Parallelization info
     --------------------
     sticks:   dense  smooth     PW     G-vecs:    dense   smooth      PW
     Min        3662    2095    520               325198   140515   17555
     Max        3663    2096    525               325201   140518   17556
     Sum       18313   10477   2611              1626001   702581   87777



     bravais-lattice index     =            4
     lattice parameter (alat)  =      23.2937  a.u.
     unit-cell volume          =    8879.8548 (a.u.)^3
     number of atoms/cell      =           52
     number of atomic types    =            3
     number of electrons       =       211.00
     number of Kohn-Sham states=          127
     kinetic-energy cutoff     =      70.0000  Ry
     charge density cutoff     =     490.0000  Ry
     convergence threshold     =      1.0E-06
     mixing beta               =       0.7000
     number of iterations used =            8  plain     mixing
     Exchange-correlation      = RVV10 ( 1  4 13  4 3 0)

     celldm(1)=  23.293684  celldm(2)=   0.000000  celldm(3)=   0.811261
     celldm(4)=   0.000000  celldm(5)=   0.000000  celldm(6)=   0.000000

     crystal axes: (cart. coord. in units of alat)
               a(1) = (   1.000000   0.000000   0.000000 )  
               a(2) = (  -0.500000   0.866025   0.000000 )  
               a(3) = (   0.000000   0.000000   0.811261 )  

     reciprocal axes: (cart. coord. in units 2 pi/alat)
               b(1) = (  1.000000  0.577350 -0.000000 )  
               b(2) = (  0.000000  1.154701  0.000000 )  
               b(3) = (  0.000000 -0.000000  1.232649 )  


     PseudoPot. # 1 for H  read from file:
     /home/cristian/Escritorio/Proyecto_Grafeno/pseudopotenciales/H.pbe-rrkjus.UPF
     MD5 check sum: 7cc9d459525c9a0585f487a71c3c9563
     Pseudo is Ultrasoft, Zval =  1.0
     Generated by new atomic code, or converted to UPF format
     Using radial grid of 1061 points,  2 beta functions with: 
                l(1) =   0
                l(2) =   0
     Q(r) pseudized with 0 coefficients 


     PseudoPot. # 2 for C  read from file:
     /home/cristian/Escritorio/Proyecto_Grafeno/pseudopotenciales/C.pbe-n-rrkjus_psl.1.0.0.UPF
     MD5 check sum: 1fdd950c42eb37d8afe3dd2f8d12311e
     Pseudo is Ultrasoft + core correction, Zval =  4.0
     Generated using "atomic" code by A. Dal Corso v.6.3MaX
     Using radial grid of 1073 points,  4 beta functions with: 
                l(1) =   0
                l(2) =   0
                l(3) =   1
                l(4) =   1
     Q(r) pseudized with 0 coefficients 


     PseudoPot. # 3 for V  read from file:
     /home/cristian/Escritorio/Proyecto_Grafeno/pseudopotenciales/V.pbe-spnl-rrkjus_psl.1.0.0.UPF
     MD5 check sum: 79b3eb63147daf0b665d9f1bcc691206
     Pseudo is Ultrasoft + core correction, Zval = 13.0
     Generated using "atomic" code by A. Dal Corso v.6.2.2
     Using radial grid of 1181 points,  6 beta functions with: 
                l(1) =   0
                l(2) =   0
                l(3) =   1
                l(4) =   1
                l(5) =   2
                l(6) =   2
     Q(r) pseudized with 0 coefficients 


     vdW kernel table read from file rVV10_kernel_table
     MD5 check sum: b8e2538accc0c0b3206b45ba4daaba6c

     atomic species   valence    mass     pseudopotential
        H              1.00     1.00794     H ( 1.00)
        C              4.00    12.01070     C ( 1.00)
        V             13.00    50.94150     V ( 1.00)

     Starting magnetic structure 
     atomic species   magnetization
        H            0.500
        C            0.300
        V            0.800

     No symmetry found


                                    s                        frac. trans.

      isym =  1     identity                                     

 cryst.   s( 1) = (     1          0          0      )
                  (     0          1          0      )
                  (     0          0          1      )

 cart.    s( 1) = (  1.0000000  0.0000000  0.0000000 )
                  (  0.0000000  1.0000000  0.0000000 )
                  (  0.0000000  0.0000000  1.0000000 )


     point group C_1 (1)    
     there are  1 classes
     the character table:

       E    
A      1.00

     the symmetry operations in each class and the name of the first element:

     E        1
          identity                                               

   Cartesian axes

     site n.     atom                  positions (alat units)
         1           H   tau(   1) = (   0.1694937   0.4618802   0.2109279  )
         2           H   tau(   2) = (   0.2305063   0.4618802   0.2109279  )
         3           C   tau(   3) = (   0.0000000   0.0000000   0.0000000  )
         4           C   tau(   4) = (   0.0000000   0.1154701   0.0000000  )
         5           C   tau(   5) = (  -0.1000000   0.1732051   0.0000000  )
         6           C   tau(   6) = (  -0.1000000   0.2886751   0.0000000  )
         7           C   tau(   7) = (  -0.2000000   0.3464102   0.0000000  )
         8           C   tau(   8) = (  -0.2000000   0.4618802   0.0000000  )
         9           C   tau(   9) = (  -0.3000000   0.5196152   0.0000000  )
        10           C   tau(  10) = (  -0.3000000   0.6350853   0.0000000  )
        11           C   tau(  11) = (  -0.4000000   0.6928203   0.0000000  )
        12           C   tau(  12) = (  -0.4000000   0.8082904   0.0000000  )
        13           C   tau(  13) = (   0.2000000   0.0000000   0.0000000  )
        14           C   tau(  14) = (   0.2000000   0.1154701   0.0000000  )
        15           C   tau(  15) = (   0.1000000   0.1732051   0.0000000  )
        16           C   tau(  16) = (   0.1000000   0.2886751   0.0000000  )
        17           C   tau(  17) = (   0.0000000   0.3464102   0.0000000  )
        18           C   tau(  18) = (   0.0000000   0.4618802   0.0000000  )
        19           C   tau(  19) = (  -0.1000000   0.5196152   0.0000000  )
        20           C   tau(  20) = (  -0.1000000   0.6350853   0.0000000  )
        21           C   tau(  21) = (  -0.2000000   0.6928203   0.0000000  )
        22           C   tau(  22) = (  -0.2000000   0.8082904   0.0000000  )
        23           C   tau(  23) = (   0.4000000   0.0000000   0.0000000  )
        24           C   tau(  24) = (   0.4000000   0.1154701   0.0000000  )
        25           C   tau(  25) = (   0.3000000   0.1732051   0.0000000  )
        26           C   tau(  26) = (   0.3000000   0.2886751   0.0000000  )
        27           C   tau(  27) = (   0.2000000   0.3464102   0.0000000  )
        28           V   tau(  28) = (   0.2000000   0.4618802   0.0000000  )
        29           C   tau(  29) = (   0.1000000   0.5196152   0.0000000  )
        30           C   tau(  30) = (   0.1000000   0.6350853   0.0000000  )
        31           C   tau(  31) = (   0.0000000   0.6928203   0.0000000  )
        32           C   tau(  32) = (   0.0000000   0.8082904   0.0000000  )
        33           C   tau(  33) = (   0.6000000   0.0000000   0.0000000  )
        34           C   tau(  34) = (   0.6000000   0.1154701   0.0000000  )
        35           C   tau(  35) = (   0.5000000   0.1732051   0.0000000  )
        36           C   tau(  36) = (   0.5000000   0.2886751   0.0000000  )
        37           C   tau(  37) = (   0.4000000   0.3464102   0.0000000  )
        38           C   tau(  38) = (   0.4000000   0.4618802   0.0000000  )
        39           C   tau(  39) = (   0.3000000   0.5196152   0.0000000  )
        40           C   tau(  40) = (   0.3000000   0.6350853   0.0000000  )
        41           C   tau(  41) = (   0.2000000   0.6928203   0.0000000  )
        42           C   tau(  42) = (   0.2000000   0.8082904   0.0000000  )
        43           C   tau(  43) = (   0.8000000   0.0000000   0.0000000  )
        44           C   tau(  44) = (   0.8000000   0.1154701   0.0000000  )
        45           C   tau(  45) = (   0.7000000   0.1732051   0.0000000  )
        46           C   tau(  46) = (   0.7000000   0.2886751   0.0000000  )
        47           C   tau(  47) = (   0.6000000   0.3464102   0.0000000  )
        48           C   tau(  48) = (   0.6000000   0.4618802   0.0000000  )
        49           C   tau(  49) = (   0.5000000   0.5196152   0.0000000  )
        50           C   tau(  50) = (   0.5000000   0.6350853   0.0000000  )
        51           C   tau(  51) = (   0.4000000   0.6928203   0.0000000  )
        52           C   tau(  52) = (   0.4000000   0.8082904   0.0000000  )

   Crystallographic axes

     site n.     atom                  positions (cryst. coord.)
         1           H   tau(   1) = (  0.4361603  0.5333333  0.2600000  )
         2           H   tau(   2) = (  0.4971730  0.5333333  0.2600000  )
         3           C   tau(   3) = (  0.0000000  0.0000000  0.0000000  )
         4           C   tau(   4) = (  0.0666667  0.1333333  0.0000000  )
         5           C   tau(   5) = (  0.0000000  0.2000000  0.0000000  )
         6           C   tau(   6) = (  0.0666667  0.3333333  0.0000000  )
         7           C   tau(   7) = (  0.0000000  0.4000000  0.0000000  )
         8           C   tau(   8) = (  0.0666667  0.5333333  0.0000000  )
         9           C   tau(   9) = (  0.0000000  0.6000000  0.0000000  )
        10           C   tau(  10) = (  0.0666667  0.7333333  0.0000000  )
        11           C   tau(  11) = (  0.0000000  0.8000000  0.0000000  )
        12           C   tau(  12) = (  0.0666667  0.9333333  0.0000000  )
        13           C   tau(  13) = (  0.2000000  0.0000000  0.0000000  )
        14           C   tau(  14) = (  0.2666667  0.1333333  0.0000000  )
        15           C   tau(  15) = (  0.2000000  0.2000000  0.0000000  )
        16           C   tau(  16) = (  0.2666667  0.3333333  0.0000000  )
        17           C   tau(  17) = (  0.2000000  0.4000000  0.0000000  )
        18           C   tau(  18) = (  0.2666667  0.5333333  0.0000000  )
        19           C   tau(  19) = (  0.2000000  0.6000000  0.0000000  )
        20           C   tau(  20) = (  0.2666667  0.7333333  0.0000000  )
        21           C   tau(  21) = (  0.2000000  0.8000000  0.0000000  )
        22           C   tau(  22) = (  0.2666667  0.9333333  0.0000000  )
        23           C   tau(  23) = (  0.4000000  0.0000000  0.0000000  )
        24           C   tau(  24) = (  0.4666667  0.1333333  0.0000000  )
        25           C   tau(  25) = (  0.4000000  0.2000000  0.0000000  )
        26           C   tau(  26) = (  0.4666667  0.3333333  0.0000000  )
        27           C   tau(  27) = (  0.4000000  0.4000000  0.0000000  )
        28           V   tau(  28) = (  0.4666667  0.5333333  0.0000000  )
        29           C   tau(  29) = (  0.4000000  0.6000000  0.0000000  )
        30           C   tau(  30) = (  0.4666667  0.7333333  0.0000000  )
        31           C   tau(  31) = (  0.4000000  0.8000000  0.0000000  )
        32           C   tau(  32) = (  0.4666667  0.9333333  0.0000000  )
        33           C   tau(  33) = (  0.6000000  0.0000000  0.0000000  )
        34           C   tau(  34) = (  0.6666667  0.1333333  0.0000000  )
        35           C   tau(  35) = (  0.6000000  0.2000000  0.0000000  )
        36           C   tau(  36) = (  0.6666667  0.3333333  0.0000000  )
        37           C   tau(  37) = (  0.6000000  0.4000000  0.0000000  )
        38           C   tau(  38) = (  0.6666667  0.5333333  0.0000000  )
        39           C   tau(  39) = (  0.6000000  0.6000000  0.0000000  )
        40           C   tau(  40) = (  0.6666667  0.7333333  0.0000000  )
        41           C   tau(  41) = (  0.6000000  0.8000000  0.0000000  )
        42           C   tau(  42) = (  0.6666667  0.9333333  0.0000000  )
        43           C   tau(  43) = (  0.8000000  0.0000000  0.0000000  )
        44           C   tau(  44) = (  0.8666667  0.1333333  0.0000000  )
        45           C   tau(  45) = (  0.8000000  0.2000000  0.0000000  )
        46           C   tau(  46) = (  0.8666667  0.3333333  0.0000000  )
        47           C   tau(  47) = (  0.8000000  0.4000000  0.0000000  )
        48           C   tau(  48) = (  0.8666667  0.5333333  0.0000000  )
        49           C   tau(  49) = (  0.8000000  0.6000000  0.0000000  )
        50           C   tau(  50) = (  0.8666667  0.7333333  0.0000000  )
        51           C   tau(  51) = (  0.8000000  0.8000000  0.0000000  )
        52           C   tau(  52) = (  0.8666667  0.9333333  0.0000000  )

     number of k points=     1  Marzari-Vanderbilt smearing, width (Ry)=  0.0010
                       cart. coord. in units 2pi/alat
        k(    1) = (   0.0000000   0.0000000   0.0000000), wk =   1.0000000

                       cryst. coord.
        k(    1) = (   0.0000000   0.0000000   0.0000000), wk =   1.0000000

     Dense  grid:  1626001 G-vectors     FFT dimensions: ( 180, 180, 135)

     Smooth grid:   702581 G-vectors     FFT dimensions: ( 125, 125, 108)

     Dynamical RAM for                 wfc:      34.04 MB

     Dynamical RAM for     wfc (w. buffer):     102.11 MB

     Dynamical RAM for           str. fact:      14.89 MB

     Dynamical RAM for           local pot:       0.00 MB

     Dynamical RAM for          nlocal pot:     110.95 MB

     Dynamical RAM for                qrad:      19.73 MB

     Dynamical RAM for          rho,v,vnew:      69.82 MB

     Dynamical RAM for               rhoin:      23.27 MB

     Dynamical RAM for            rho*nmix:     158.79 MB

     Dynamical RAM for           G-vectors:      19.68 MB

     Dynamical RAM for          h,s,v(r/c):      11.81 MB

     Dynamical RAM for          <psi|beta>:       0.80 MB

     Dynamical RAM for                 psi:     136.15 MB

     Dynamical RAM for                hpsi:     136.15 MB

     Dynamical RAM for                spsi:     136.15 MB

     Dynamical RAM for      wfcinit/wfcrot:     112.48 MB

     Dynamical RAM for           addusdens:    1171.07 MB

     Estimated static dynamical RAM per process >     579.14 MB

     Estimated max dynamical RAM per process >       1.71 GB

     Estimated total dynamical RAM >       8.55 GB
     Generating pointlists ...
     new r_m :   0.0252 (alat units)  0.5862 (a.u.) for type    1
     new r_m :   0.0476 (alat units)  1.1095 (a.u.) for type    2
     new r_m :   0.0476 (alat units)  1.1095 (a.u.) for type    3

     Check: negative core charge=   -0.000002

     Initial potential from superposition of free atoms

     starting charge  210.80465, renormalised to  211.00000

     negative rho (up, down):  1.234E-04 1.636E-02


---------------------------------------------------------------------------------
Carrying out rVV10 run using the following parameters:
Nqs =      20    Nr_points =    1024   r_max =   100.000
b_value =  6.30000    beta =  0.00901
     q_mesh =  0.00010000  0.00030000  0.00058939  0.00100810
               0.00161396  0.00249058  0.00375900  0.00559430
               0.00824984  0.01209221  0.01765183  0.02569619
               0.03733578  0.05417739  0.07854596  0.11380545
               0.16482331  0.23864234  0.34545298  0.50000000

Gradients computed in Reciprocal space

---------------------------------------------------------------------------------


     Starting wfcs are  208 randomized atomic wfcs

     total cpu time spent up to now is       80.7 secs

     Self-consistent Calculation

     iteration #  1     ecut=    70.00 Ry     beta= 0.70
     Davidson diagonalization with overlap
     ethr =  1.00E-02,  avg # of iterations =  2.5

     negative rho (up, down):  2.540E-04 1.369E-02

     total cpu time spent up to now is      229.8 secs

     total energy              =    -752.71076543 Ry
     Harris-Foulkes estimate   =    -756.99939288 Ry
     estimated scf accuracy    <      12.16586983 Ry

     total magnetization       =     5.00 Bohr mag/cell
     absolute magnetization    =     6.00 Bohr mag/cell

     iteration #  2     ecut=    70.00 Ry     beta= 0.70
     Davidson diagonalization with overlap
     ethr =  5.77E-03,  avg # of iterations =  7.0

     negative rho (up, down):  3.315E-03 1.918E-01

     total cpu time spent up to now is      365.3 secs

     total energy              =    -746.50942598 Ry
     Harris-Foulkes estimate   =    -768.70694576 Ry
     estimated scf accuracy    <      76.15295671 Ry

     total magnetization       =     3.00 Bohr mag/cell
     absolute magnetization    =     3.38 Bohr mag/cell

     iteration #  3     ecut=    70.00 Ry     beta= 0.70
     Davidson diagonalization with overlap
     ethr =  5.77E-03,  avg # of iterations =  5.0

     negative rho (up, down):  2.082E-03 2.876E-02

     total cpu time spent up to now is      544.2 secs

     total energy              =    -755.79886533 Ry
     Harris-Foulkes estimate   =    -758.01696384 Ry
     estimated scf accuracy    <       9.85710577 Ry

     total magnetization       =     5.00 Bohr mag/cell
     absolute magnetization    =     5.76 Bohr mag/cell

     iteration #  4     ecut=    70.00 Ry     beta= 0.70
     Davidson diagonalization with overlap
     ethr =  4.67E-03,  avg # of iterations =  2.5

     negative rho (up, down):  4.087E-02 2.352E-02

     total cpu time spent up to now is      656.7 secs

     total energy              =    -757.09185794 Ry
     Harris-Foulkes estimate   =    -757.46175505 Ry
     estimated scf accuracy    <       1.12600390 Ry

     total magnetization       =     1.00 Bohr mag/cell
     absolute magnetization    =     1.78 Bohr mag/cell

     iteration #  5     ecut=    70.00 Ry     beta= 0.70
     Davidson diagonalization with overlap
     ethr =  5.34E-04,  avg # of iterations =  7.0

     negative rho (up, down):  2.486E-02 2.481E-02

     total cpu time spent up to now is      782.7 secs

     total energy              =    -757.29131593 Ry
     Harris-Foulkes estimate   =    -757.29195306 Ry
     estimated scf accuracy    <       0.11250398 Ry

     total magnetization       =     1.00 Bohr mag/cell
     absolute magnetization    =     1.49 Bohr mag/cell

     iteration #  6     ecut=    70.00 Ry     beta= 0.70
     Davidson diagonalization with overlap
     ethr =  5.33E-05,  avg # of iterations =  7.5

     negative rho (up, down):  4.094E-02 1.121E-02

     total cpu time spent up to now is      925.7 secs

     total energy              =    -757.29186164 Ry
     Harris-Foulkes estimate   =    -757.34909932 Ry
     estimated scf accuracy    <       0.18077359 Ry

     total magnetization       =     1.00 Bohr mag/cell
     absolute magnetization    =     1.44 Bohr mag/cell

     iteration #  7     ecut=    70.00 Ry     beta= 0.70
     Davidson diagonalization with overlap
     ethr =  5.33E-05,  avg # of iterations =  5.5

     negative rho (up, down):  3.675E-02 1.663E-02

     total cpu time spent up to now is     1058.2 secs

     total energy              =    -757.31892141 Ry
     Harris-Foulkes estimate   =    -757.33967646 Ry
     estimated scf accuracy    <       0.08233054 Ry

     total magnetization       =     1.00 Bohr mag/cell
     absolute magnetization    =     1.38 Bohr mag/cell

     iteration #  8     ecut=    70.00 Ry     beta= 0.70
     Davidson diagonalization with overlap
     ethr =  3.90E-05,  avg # of iterations =  4.0

     negative rho (up, down):  3.065E-02 2.847E-02

     total cpu time spent up to now is     1176.8 secs

     total energy              =    -757.33194317 Ry
     Harris-Foulkes estimate   =    -757.34188473 Ry
     estimated scf accuracy    <       0.06253443 Ry

     total magnetization       =     1.00 Bohr mag/cell
     absolute magnetization    =     1.40 Bohr mag/cell

     iteration #  9     ecut=    70.00 Ry     beta= 0.70
     Davidson diagonalization with overlap
     ethr =  2.96E-05,  avg # of iterations =  3.5

     negative rho (up, down):  3.400E-02 2.464E-02

     total cpu time spent up to now is     1289.3 secs

     total energy              =    -757.33771716 Ry
     Harris-Foulkes estimate   =    -757.33864097 Ry
     estimated scf accuracy    <       0.00409751 Ry

     total magnetization       =     1.00 Bohr mag/cell
     absolute magnetization    =     1.40 Bohr mag/cell

     iteration # 10     ecut=    70.00 Ry     beta= 0.70
     Davidson diagonalization with overlap
     ethr =  1.94E-06,  avg # of iterations =  9.0

     negative rho (up, down):  3.457E-02 1.968E-02

     total cpu time spent up to now is     1416.1 secs

     total energy              =    -757.33847785 Ry
     Harris-Foulkes estimate   =    -757.33853224 Ry
     estimated scf accuracy    <       0.00224300 Ry

     total magnetization       =     1.00 Bohr mag/cell
     absolute magnetization    =     1.42 Bohr mag/cell

     iteration # 11     ecut=    70.00 Ry     beta= 0.70
     Davidson diagonalization with overlap
     ethr =  1.06E-06,  avg # of iterations =  9.0

     negative rho (up, down):  3.476E-02 2.044E-02

     total cpu time spent up to now is     1526.9 secs

     total energy              =    -757.33843755 Ry
     Harris-Foulkes estimate   =    -757.33902780 Ry
     estimated scf accuracy    <       0.00833945 Ry

     total magnetization       =     1.00 Bohr mag/cell
     absolute magnetization    =     1.45 Bohr mag/cell

     iteration # 12     ecut=    70.00 Ry     beta= 0.70
     Davidson diagonalization with overlap
     ethr =  1.06E-06,  avg # of iterations =  2.0

     negative rho (up, down):  3.336E-02 4.676E-03

     total cpu time spent up to now is     1630.2 secs

     total energy              =    -757.33981844 Ry
     Harris-Foulkes estimate   =    -757.33891467 Ry
     estimated scf accuracy    <       0.00141492 Ry

     total magnetization       =     1.00 Bohr mag/cell
     absolute magnetization    =     1.45 Bohr mag/cell

     iteration # 13     ecut=    70.00 Ry     beta= 0.70
     Davidson diagonalization with overlap
     ethr =  6.71E-07,  avg # of iterations =  3.0

     negative rho (up, down):  3.360E-02 7.909E-03

     total cpu time spent up to now is     1743.2 secs

     total energy              =    -757.33985892 Ry
     Harris-Foulkes estimate   =    -757.33993670 Ry
     estimated scf accuracy    <       0.00020770 Ry

     total magnetization       =     1.00 Bohr mag/cell
     absolute magnetization    =     1.47 Bohr mag/cell

     iteration # 14     ecut=    70.00 Ry     beta= 0.70
     Davidson diagonalization with overlap
     ethr =  9.84E-08,  avg # of iterations =  2.0

     negative rho (up, down):  3.392E-02 6.091E-03

     total cpu time spent up to now is     1852.8 secs

     total energy              =    -757.33993076 Ry
     Harris-Foulkes estimate   =    -757.33989328 Ry
     estimated scf accuracy    <       0.00007278 Ry

     total magnetization       =     1.00 Bohr mag/cell
     absolute magnetization    =     1.48 Bohr mag/cell

     iteration # 15     ecut=    70.00 Ry     beta= 0.70
     Davidson diagonalization with overlap
     ethr =  3.45E-08,  avg # of iterations =  3.0

     negative rho (up, down):  3.389E-02 2.145E-03

     total cpu time spent up to now is     1964.3 secs

     total energy              =    -757.33994766 Ry
     Harris-Foulkes estimate   =    -757.33994161 Ry
     estimated scf accuracy    <       0.00003867 Ry

     total magnetization       =     1.00 Bohr mag/cell
     absolute magnetization    =     1.49 Bohr mag/cell

     iteration # 16     ecut=    70.00 Ry     beta= 0.70
     Davidson diagonalization with overlap
     ethr =  1.83E-08,  avg # of iterations =  2.0

     negative rho (up, down):  3.406E-02 5.817E-03

     total cpu time spent up to now is     2067.5 secs

     total energy              =    -757.33994078 Ry
     Harris-Foulkes estimate   =    -757.33995089 Ry
     estimated scf accuracy    <       0.00004249 Ry

     total magnetization       =     1.00 Bohr mag/cell
     absolute magnetization    =     1.50 Bohr mag/cell

     iteration # 17     ecut=    70.00 Ry     beta= 0.70
     Davidson diagonalization with overlap
     ethr =  1.83E-08,  avg # of iterations =  2.0

     negative rho (up, down):  3.392E-02 2.241E-03

     total cpu time spent up to now is     2172.8 secs

     total energy              =    -757.33995169 Ry
     Harris-Foulkes estimate   =    -757.33994274 Ry
     estimated scf accuracy    <       0.00000958 Ry

     total magnetization       =     1.00 Bohr mag/cell
     absolute magnetization    =     1.51 Bohr mag/cell

     iteration # 18     ecut=    70.00 Ry     beta= 0.70
     Davidson diagonalization with overlap
     ethr =  4.54E-09,  avg # of iterations =  3.0

     negative rho (up, down):  3.398E-02 2.270E-03

     total cpu time spent up to now is     2288.3 secs

     total energy              =    -757.33995404 Ry
     Harris-Foulkes estimate   =    -757.33995360 Ry
     estimated scf accuracy    <       0.00003775 Ry

     total magnetization       =     1.00 Bohr mag/cell
     absolute magnetization    =     1.51 Bohr mag/cell

     iteration # 19     ecut=    70.00 Ry     beta= 0.70
     Davidson diagonalization with overlap
     ethr =  4.54E-09,  avg # of iterations =  2.0

     negative rho (up, down):  3.397E-02 1.942E-03

     total cpu time spent up to now is     2400.7 secs

     total energy              =    -757.33995596 Ry
     Harris-Foulkes estimate   =    -757.33995538 Ry
     estimated scf accuracy    <       0.00001278 Ry

     total magnetization       =     1.00 Bohr mag/cell
     absolute magnetization    =     1.52 Bohr mag/cell

     iteration # 20     ecut=    70.00 Ry     beta= 0.70
     Davidson diagonalization with overlap
     ethr =  4.54E-09,  avg # of iterations =  2.0

     negative rho (up, down):  3.402E-02 3.000E-03

     total cpu time spent up to now is     2506.4 secs

     total energy              =    -757.33995378 Ry
     Harris-Foulkes estimate   =    -757.33995671 Ry
     estimated scf accuracy    <       0.00003192 Ry

     total magnetization       =     1.00 Bohr mag/cell
     absolute magnetization    =     1.53 Bohr mag/cell

     iteration # 21     ecut=    70.00 Ry     beta= 0.70
     Davidson diagonalization with overlap
     ethr =  4.54E-09,  avg # of iterations =  1.0

     negative rho (up, down):  3.407E-02 3.745E-03

     total cpu time spent up to now is     2612.7 secs

     total energy              =    -757.33994828 Ry
     Harris-Foulkes estimate   =    -757.33995418 Ry
     estimated scf accuracy    <       0.00003096 Ry

     total magnetization       =     1.00 Bohr mag/cell
     absolute magnetization    =     1.53 Bohr mag/cell

     iteration # 22     ecut=    70.00 Ry     beta= 0.70
     Davidson diagonalization with overlap
     ethr =  4.54E-09,  avg # of iterations =  2.5

     negative rho (up, down):  3.402E-02 3.171E-03

     total cpu time spent up to now is     2722.4 secs

     total energy              =    -757.33995360 Ry
     Harris-Foulkes estimate   =    -757.33994937 Ry
     estimated scf accuracy    <       0.00001709 Ry

     total magnetization       =     1.00 Bohr mag/cell
     absolute magnetization    =     1.54 Bohr mag/cell

     iteration # 23     ecut=    70.00 Ry     beta= 0.70
     Davidson diagonalization with overlap
     ethr =  4.54E-09,  avg # of iterations =  1.5

     negative rho (up, down):  3.402E-02 3.088E-03

     total cpu time spent up to now is     2826.1 secs

     total energy              =    -757.33995471 Ry
     Harris-Foulkes estimate   =    -757.33995455 Ry
     estimated scf accuracy    <       0.00001257 Ry

     total magnetization       =     1.00 Bohr mag/cell
     absolute magnetization    =     1.53 Bohr mag/cell

     iteration # 24     ecut=    70.00 Ry     beta= 0.70
     Davidson diagonalization with overlap
     ethr =  4.54E-09,  avg # of iterations =  1.0

     negative rho (up, down):  3.401E-02 3.045E-03

     total cpu time spent up to now is     2930.1 secs

     total energy              =    -757.33995521 Ry
     Harris-Foulkes estimate   =    -757.33995511 Ry
     estimated scf accuracy    <       0.00003108 Ry

     total magnetization       =     1.00 Bohr mag/cell
     absolute magnetization    =     1.53 Bohr mag/cell

     iteration # 25     ecut=    70.00 Ry     beta= 0.70
     Davidson diagonalization with overlap
     ethr =  4.54E-09,  avg # of iterations =  1.0

     negative rho (up, down):  3.401E-02 3.072E-03

     total cpu time spent up to now is     3033.6 secs

     total energy              =    -757.33995546 Ry
     Harris-Foulkes estimate   =    -757.33995555 Ry
     estimated scf accuracy    <       0.00003163 Ry

     total magnetization       =     1.00 Bohr mag/cell
     absolute magnetization    =     1.53 Bohr mag/cell

     iteration # 26     ecut=    70.00 Ry     beta= 0.70
     Davidson diagonalization with overlap
     ethr =  4.54E-09,  avg # of iterations =  1.0

     negative rho (up, down):  3.403E-02 2.924E-03

     total cpu time spent up to now is     3139.1 secs

     total energy              =    -757.33995302 Ry
     Harris-Foulkes estimate   =    -757.33995555 Ry
     estimated scf accuracy    <       0.00003510 Ry

     total magnetization       =     1.00 Bohr mag/cell
     absolute magnetization    =     1.52 Bohr mag/cell

     iteration # 27     ecut=    70.00 Ry     beta= 0.70
     Davidson diagonalization with overlap
     ethr =  4.54E-09,  avg # of iterations =  2.5

     negative rho (up, down):  3.401E-02 2.392E-03

     total cpu time spent up to now is     3260.0 secs

     total energy              =    -757.33995660 Ry
     Harris-Foulkes estimate   =    -757.33995562 Ry
     estimated scf accuracy    <       0.00001851 Ry

     total magnetization       =     1.00 Bohr mag/cell
     absolute magnetization    =     1.54 Bohr mag/cell

     iteration # 28     ecut=    70.00 Ry     beta= 0.70
     Davidson diagonalization with overlap
     ethr =  4.54E-09,  avg # of iterations =  2.0

     negative rho (up, down):  3.401E-02 2.473E-03

     total cpu time spent up to now is     3366.4 secs

     total energy              =    -757.33995554 Ry
     Harris-Foulkes estimate   =    -757.33995734 Ry
     estimated scf accuracy    <       0.00002737 Ry

     total magnetization       =     1.00 Bohr mag/cell
     absolute magnetization    =     1.54 Bohr mag/cell

     iteration # 29     ecut=    70.00 Ry     beta= 0.70
     Davidson diagonalization with overlap
     ethr =  4.54E-09,  avg # of iterations =  3.0

     negative rho (up, down):  3.399E-02 1.958E-03

     total cpu time spent up to now is     3477.3 secs

     total energy              =    -757.33995756 Ry
     Harris-Foulkes estimate   =    -757.33995718 Ry
     estimated scf accuracy    <       0.00000887 Ry

     total magnetization       =     1.00 Bohr mag/cell
     absolute magnetization    =     1.54 Bohr mag/cell

     iteration # 30     ecut=    70.00 Ry     beta= 0.70
     Davidson diagonalization with overlap
     ethr =  4.20E-09,  avg # of iterations =  2.0

     negative rho (up, down):  3.398E-02 1.880E-03

     total cpu time spent up to now is     3584.1 secs

     total energy              =    -757.33995801 Ry
     Harris-Foulkes estimate   =    -757.33995844 Ry
     estimated scf accuracy    <       0.00001632 Ry

     total magnetization       =     1.00 Bohr mag/cell
     absolute magnetization    =     1.54 Bohr mag/cell

     iteration # 31     ecut=    70.00 Ry     beta= 0.70
     Davidson diagonalization with overlap
     ethr =  4.20E-09,  avg # of iterations =  2.0

     negative rho (up, down):  3.398E-02 1.868E-03

     total cpu time spent up to now is     3697.1 secs

     total energy              =    -757.33995793 Ry
     Harris-Foulkes estimate   =    -757.33995874 Ry
     estimated scf accuracy    <       0.00001164 Ry

     total magnetization       =     1.00 Bohr mag/cell
     absolute magnetization    =     1.54 Bohr mag/cell

     iteration # 32     ecut=    70.00 Ry     beta= 0.70
     Davidson diagonalization with overlap
     ethr =  4.20E-09,  avg # of iterations =  2.0

     negative rho (up, down):  3.396E-02 2.350E-03

     total cpu time spent up to now is     3802.9 secs

     total energy              =    -757.33995606 Ry
     Harris-Foulkes estimate   =    -757.33995988 Ry
     estimated scf accuracy    <       0.00004042 Ry

     total magnetization       =     1.00 Bohr mag/cell
     absolute magnetization    =     1.54 Bohr mag/cell

     iteration # 33     ecut=    70.00 Ry     beta= 0.70
     Davidson diagonalization with overlap
     ethr =  4.20E-09,  avg # of iterations =  3.0

     negative rho (up, down):  3.397E-02 1.870E-03

     total cpu time spent up to now is     3917.8 secs

     total energy              =    -757.33995872 Ry
     Harris-Foulkes estimate   =    -757.33995901 Ry
     estimated scf accuracy    <       0.00000117 Ry

     total magnetization       =     1.00 Bohr mag/cell
     absolute magnetization    =     1.55 Bohr mag/cell

     iteration # 34     ecut=    70.00 Ry     beta= 0.70
     Davidson diagonalization with overlap
     ethr =  5.54E-10,  avg # of iterations =  3.5

     negative rho (up, down):  3.397E-02 1.956E-03

     total cpu time spent up to now is     4046.7 secs

     total energy              =    -757.33995891 Ry
     Harris-Foulkes estimate   =    -757.33995915 Ry
     estimated scf accuracy    <       0.00000138 Ry

     total magnetization       =     1.00 Bohr mag/cell
     absolute magnetization    =     1.54 Bohr mag/cell

     iteration # 35     ecut=    70.00 Ry     beta= 0.70
     Davidson diagonalization with overlap
     ethr =  5.54E-10,  avg # of iterations =  3.5

     negative rho (up, down):  3.396E-02 1.900E-03

     total cpu time spent up to now is     4160.8 secs

     total energy              =    -757.33995923 Ry
     Harris-Foulkes estimate   =    -757.33995925 Ry
     estimated scf accuracy    <       0.00000214 Ry

     total magnetization       =     1.00 Bohr mag/cell
     absolute magnetization    =     1.54 Bohr mag/cell

     iteration # 36     ecut=    70.00 Ry     beta= 0.70
     Davidson diagonalization with overlap
     ethr =  5.54E-10,  avg # of iterations =  1.0

     negative rho (up, down):  3.396E-02 1.915E-03

     total cpu time spent up to now is     4265.0 secs

     total energy              =    -757.33995901 Ry
     Harris-Foulkes estimate   =    -757.33995930 Ry
     estimated scf accuracy    <       0.00000180 Ry

     total magnetization       =     1.00 Bohr mag/cell
     absolute magnetization    =     1.54 Bohr mag/cell

     iteration # 37     ecut=    70.00 Ry     beta= 0.70
     Davidson diagonalization with overlap
     ethr =  5.54E-10,  avg # of iterations =  3.0

     negative rho (up, down):  3.396E-02 1.866E-03

     Magnetic moment per site:
     atom:    1    charge:    0.2101    magn:   -0.0000    constr:    0.0000
     atom:    2    charge:    0.2101    magn:   -0.0000    constr:    0.0000
     atom:    3    charge:    1.7176    magn:   -0.0070    constr:    0.0000
     atom:    4    charge:    1.7159    magn:    0.0100    constr:    0.0000
     atom:    5    charge:    1.7183    magn:   -0.0042    constr:    0.0000
     atom:    6    charge:    1.7141    magn:    0.0025    constr:    0.0000
     atom:    7    charge:    1.7184    magn:   -0.0040    constr:    0.0000
     atom:    8    charge:    1.7155    magn:    0.0081    constr:    0.0000
     atom:    9    charge:    1.7179    magn:   -0.0063    constr:    0.0000
     atom:   10    charge:    1.7136    magn:    0.0259    constr:    0.0000
     atom:   11    charge:    1.7187    magn:   -0.0089    constr:    0.0000
     atom:   12    charge:    1.7149    magn:    0.0334    constr:    0.0000
     atom:   13    charge:    1.7185    magn:   -0.0089    constr:    0.0000
     atom:   14    charge:    1.7140    magn:    0.0194    constr:    0.0000
     atom:   15    charge:    1.7171    magn:   -0.0072    constr:    0.0000
     atom:   16    charge:    1.7106    magn:    0.0262    constr:    0.0000
     atom:   17    charge:    1.7272    magn:   -0.0047    constr:    0.0000
     atom:   18    charge:    1.7109    magn:    0.0278    constr:    0.0000
     atom:   19    charge:    1.7170    magn:   -0.0077    constr:    0.0000
     atom:   20    charge:    1.7148    magn:    0.0249    constr:    0.0000
     atom:   21    charge:    1.7187    magn:   -0.0089    constr:    0.0000
     atom:   22    charge:    1.7149    magn:    0.0335    constr:    0.0000
     atom:   23    charge:    1.7176    magn:   -0.0070    constr:    0.0000
     atom:   24    charge:    1.7159    magn:    0.0101    constr:    0.0000
     atom:   25    charge:    1.7170    magn:   -0.0073    constr:    0.0000
     atom:   26    charge:    1.7106    magn:    0.0262    constr:    0.0000
     atom:   27    charge:    1.9150    magn:   -0.0012    constr:    0.0000
     atom:   28    charge:    7.8597    magn:    0.1013    constr:    0.0000
     atom:   29    charge:    1.9148    magn:   -0.0001    constr:    0.0000
     atom:   30    charge:    1.7118    magn:    0.0351    constr:    0.0000
     atom:   31    charge:    1.7168    magn:   -0.0086    constr:    0.0000
     atom:   32    charge:    1.7157    magn:    0.0099    constr:    0.0000
     atom:   33    charge:    1.7183    magn:   -0.0044    constr:    0.0000
     atom:   34    charge:    1.7138    magn:    0.0073    constr:    0.0000
     atom:   35    charge:    1.7183    magn:   -0.0042    constr:    0.0000
     atom:   36    charge:    1.7141    magn:    0.0025    constr:    0.0000
     atom:   37    charge:    1.7272    magn:   -0.0047    constr:    0.0000
     atom:   38    charge:    1.7108    magn:    0.0279    constr:    0.0000
     atom:   39    charge:    1.9148    magn:   -0.0000    constr:    0.0000
     atom:   40    charge:    1.7118    magn:    0.0351    constr:    0.0000
     atom:   41    charge:    1.7267    magn:   -0.0061    constr:    0.0000
     atom:   42    charge:    1.7141    magn:    0.0027    constr:    0.0000
     atom:   43    charge:    1.7183    magn:   -0.0044    constr:    0.0000
     atom:   44    charge:    1.7139    magn:    0.0073    constr:    0.0000
     atom:   45    charge:    1.7247    magn:   -0.0030    constr:    0.0000
     atom:   46    charge:    1.7137    magn:    0.0059    constr:    0.0000
     atom:   47    charge:    1.7184    magn:   -0.0040    constr:    0.0000
     atom:   48    charge:    1.7155    magn:    0.0081    constr:    0.0000
     atom:   49    charge:    1.7170    magn:   -0.0077    constr:    0.0000
     atom:   50    charge:    1.7148    magn:    0.0250    constr:    0.0000
     atom:   51    charge:    1.7168    magn:   -0.0086    constr:    0.0000
     atom:   52    charge:    1.7157    magn:    0.0099    constr:    0.0000

     total cpu time spent up to now is     4393.0 secs

     End of self-consistent calculation

 ------ SPIN UP ------------


          k = 0.0000 0.0000 0.0000 ( 87777 PWs)   bands (ev):

   -62.8071 -37.8998 -37.8873 -36.5667 -19.6146 -18.7782 -18.7651 -18.7020
   -18.6595 -18.6520 -18.2175 -16.9182 -16.9169 -16.9128 -16.7805 -16.7752
   -16.4959 -16.0622 -16.0620 -15.9684 -15.8126 -15.8116 -15.0605 -13.8737
   -13.8700 -13.8631 -13.8418 -13.8413 -13.1116 -12.8976 -12.8961 -12.8791
   -12.4844 -12.4838 -12.0927 -11.6248 -11.6228 -11.4998 -11.1178 -11.1178
   -10.1313  -9.3160  -9.3136  -9.2348  -9.1621  -9.1611  -9.0722  -9.0481
    -9.0468  -9.0316  -8.4432  -8.4419  -7.9447  -7.8738  -7.8708  -7.8359
    -7.6685  -7.6552  -7.2353  -7.2313  -6.9455  -6.9432  -6.8727  -6.6822
    -6.6799  -6.6777  -6.5703  -6.5682  -6.5226  -6.4173  -6.4111  -6.3713
    -6.3651  -6.3642  -6.3127  -6.2211  -5.2403  -5.2372  -5.1400  -5.1340
    -4.9240  -4.9239  -4.8134  -4.7255  -4.6020  -4.5905  -4.5898  -4.2114
    -3.9660  -3.9659  -3.7418  -3.7403  -3.6399  -3.5942  -3.4781  -3.4772
    -2.8456  -2.2419  -2.2374  -2.1940  -2.1880  -1.7284  -1.6643  -1.6615
    -0.4850  -0.2201  -0.2168   1.0685   1.0964   1.1005   1.2942   1.8535
     2.0700   2.0717   2.5290   2.9064   2.9161   2.9952   3.1293   3.4665
     3.6777   3.7455   3.7483   3.7948   3.9534   4.0144   4.0218

     occupation numbers 
     1.0000   1.0000   1.0000   1.0000   1.0000   1.0000   1.0000   1.0000
     1.0000   1.0000   1.0000   1.0000   1.0000   1.0000   1.0000   1.0000
     1.0000   1.0000   1.0000   1.0000   1.0000   1.0000   1.0000   1.0000
     1.0000   1.0000   1.0000   1.0000   1.0000   1.0000   1.0000   1.0000
     1.0000   1.0000   1.0000   1.0000   1.0000   1.0000   1.0000   1.0000
     1.0000   1.0000   1.0000   1.0000   1.0000   1.0000   1.0000   1.0000
     1.0000   1.0000   1.0000   1.0000   1.0000   1.0000   1.0000   1.0000
     1.0000   1.0000   1.0000   1.0000   1.0000   1.0000   1.0000   1.0000
     1.0000   1.0000   1.0000   1.0000   1.0000   1.0000   1.0000   1.0000
     1.0000   1.0000   1.0000   1.0000   1.0000   1.0000   1.0000   1.0000
     1.0000   1.0000   1.0000   1.0000   1.0000   1.0000   1.0000   1.0000
     1.0000   1.0000   1.0000   1.0000   1.0000   1.0000   1.0000   1.0000
     1.0000   1.0000   1.0000   1.0000   1.0000   1.0000   1.0000   1.0000
     1.0000   0.5880   0.4120   0.0000   0.0000   0.0000   0.0000   0.0000
     0.0000   0.0000   0.0000   0.0000   0.0000   0.0000   0.0000   0.0000
     0.0000   0.0000   0.0000   0.0000   0.0000   0.0000   0.0000

 ------ SPIN DOWN ----------


          k = 0.0000 0.0000 0.0000 ( 87777 PWs)   bands (ev):

   -62.6114 -37.7536 -37.7106 -36.2991 -19.5928 -18.7585 -18.7417 -18.6818
   -18.6434 -18.6347 -18.1854 -16.9023 -16.8990 -16.8927 -16.7533 -16.7457
   -16.4817 -16.0360 -16.0339 -15.9525 -15.7913 -15.7906 -15.0458 -13.8414
   -13.8383 -13.8356 -13.8317 -13.8168 -13.1147 -12.8874 -12.8850 -12.8635
   -12.4766 -12.4753 -12.0744 -11.6062 -11.6056 -11.4866 -11.1061 -11.1045
   -10.1167  -9.2997  -9.2959  -9.2218  -9.1453  -9.1431  -9.0641  -9.0334
    -9.0332  -9.0222  -8.4369  -8.4347  -7.9215  -7.8625  -7.8591  -7.8271
    -7.6468  -7.6380  -7.2264  -7.2226  -6.8688  -6.8653  -6.8523  -6.6501
    -6.6461  -6.6280  -6.5587  -6.5571  -6.5130  -6.4081  -6.4013  -6.3659
    -6.3579  -6.3575  -6.3045  -6.1435  -5.2323  -5.2285  -5.0564  -5.0487
    -4.9142  -4.9139  -4.8076  -4.7195  -4.5607  -4.5416  -4.5359  -4.1739
    -3.9184  -3.9110  -3.6673  -3.6663  -3.5934  -3.5644  -3.4718  -3.4703
    -2.8108  -2.1745  -2.1700  -2.1304  -2.1201  -1.6495  -1.6464  -1.6327
    -0.4810  -0.0113   0.0275   1.1174   1.1213   1.1464   1.3715   1.9223
     2.1363   2.1462   2.5352   2.9746   2.9864   3.0373   3.1418   3.4734
     3.7080   3.7472   3.7508   3.8040   3.9767   4.0882   4.0891

     occupation numbers 
     1.0000   1.0000   1.0000   1.0000   1.0000   1.0000   1.0000   1.0000
     1.0000   1.0000   1.0000   1.0000   1.0000   1.0000   1.0000   1.0000
     1.0000   1.0000   1.0000   1.0000   1.0000   1.0000   1.0000   1.0000
     1.0000   1.0000   1.0000   1.0000   1.0000   1.0000   1.0000   1.0000
     1.0000   1.0000   1.0000   1.0000   1.0000   1.0000   1.0000   1.0000
     1.0000   1.0000   1.0000   1.0000   1.0000   1.0000   1.0000   1.0000
     1.0000   1.0000   1.0000   1.0000   1.0000   1.0000   1.0000   1.0000
     1.0000   1.0000   1.0000   1.0000   1.0000   1.0000   1.0000   1.0000
     1.0000   1.0000   1.0000   1.0000   1.0000   1.0000   1.0000   1.0000
     1.0000   1.0000   1.0000   1.0000   1.0000   1.0000   1.0000   1.0000
     1.0000   1.0000   1.0000   1.0000   1.0000   1.0000   1.0000   1.0000
     1.0000   1.0000   1.0000   1.0000   1.0000   1.0000   1.0000   1.0000
     1.0000   1.0000   1.0000   1.0000   1.0000   1.0000   1.0000   1.0000
     1.0000   0.0000   0.0000   0.0000   0.0000   0.0000   0.0000   0.0000
     0.0000   0.0000   0.0000   0.0000   0.0000   0.0000   0.0000   0.0000
     0.0000   0.0000   0.0000   0.0000   0.0000   0.0000   0.0000

     the Fermi energy is    -0.2166 ev

!    total energy              =    -757.33995936 Ry
     Harris-Foulkes estimate   =    -757.33995937 Ry
     estimated scf accuracy    <       0.00000014 Ry

     The total energy is the sum of the following terms:

     one-electron contribution =   -2595.21068835 Ry
     hartree contribution      =    1344.55457634 Ry
     xc contribution           =    -252.68193207 Ry
     ewald contribution        =     745.99840236 Ry
     smearing contrib. (-TS)   =      -0.00031764 Ry

     total magnetization       =     1.00 Bohr mag/cell
     absolute magnetization    =     1.54 Bohr mag/cell

     convergence has been achieved in  37 iterations

     Writing output data file vanadio-top-distance-2.6.save/

     init_run     :     77.89s CPU     79.64s WALL (       1 calls)
     electrons    :   4237.27s CPU   4312.39s WALL (       1 calls)

     Called by init_run:
     wfcinit      :     47.17s CPU     47.67s WALL (       1 calls)
     wfcinit:atom :      0.07s CPU      0.11s WALL (       2 calls)
     wfcinit:wfcr :     46.69s CPU     47.09s WALL (       2 calls)
     potinit      :     13.25s CPU     13.81s WALL (       1 calls)
     hinit0       :      8.00s CPU      8.05s WALL (       1 calls)

     Called by electrons:
     c_bands      :   2692.00s CPU   2707.77s WALL (      37 calls)
     sum_band     :    905.72s CPU    929.59s WALL (      37 calls)
     v_of_rho     :    316.67s CPU    331.70s WALL (      38 calls)
     v_h          :      3.14s CPU      3.24s WALL (      38 calls)
     v_xc         :    313.53s CPU    328.46s WALL (      38 calls)
     newd         :    310.01s CPU    330.95s WALL (      38 calls)
     mix_rho      :     19.31s CPU     19.67s WALL (      37 calls)

     Called by c_bands:
     init_us_2    :      7.72s CPU      7.78s WALL (     150 calls)
     cegterg      :   2672.61s CPU   2688.27s WALL (      74 calls)

     Called by sum_band:
     sum_band:bec :      0.06s CPU      0.06s WALL (      74 calls)
     addusdens    :    561.28s CPU    582.78s WALL (      37 calls)

     Called by *egterg:
     h_psi        :   1435.09s CPU   1445.93s WALL (     314 calls)
     s_psi        :    469.40s CPU    469.81s WALL (     314 calls)
     g_psi        :      1.58s CPU      1.58s WALL (     238 calls)
     cdiaghg      :     22.11s CPU     22.12s WALL (     312 calls)
     cegterg:over :    321.24s CPU    321.54s WALL (     238 calls)
     cegterg:upda :    193.50s CPU    194.80s WALL (     238 calls)
     cegterg:last :    136.64s CPU    136.73s WALL (      74 calls)

     Called by h_psi:
     h_psi:pot    :   1433.58s CPU   1442.65s WALL (     314 calls)
     h_psi:calbec :    469.10s CPU    469.51s WALL (     314 calls)
     vloc_psi     :    497.57s CPU    505.92s WALL (     314 calls)
     add_vuspsi   :    466.90s CPU    467.21s WALL (     314 calls)

     General routines
     calbec       :    673.53s CPU    674.13s WALL (     388 calls)
     fft          :    176.59s CPU    182.77s WALL (    2844 calls)
     ffts         :      3.21s CPU      3.38s WALL (     150 calls)
     fftw         :    525.89s CPU    534.75s WALL (   52956 calls)
     interpolate  :      7.37s CPU      7.59s WALL (      76 calls)

     Parallel routines
     fft_scatt_xy :    143.22s CPU    144.59s WALL (   55950 calls)
     fft_scatt_yz :    194.99s CPU    205.61s WALL (   55950 calls)

     PWSCF        :      1h11m CPU      1h13m WALL


   This run was terminated on:  22:34: 4  31Aug2022            

=------------------------------------------------------------------------------=
   JOB DONE.
=------------------------------------------------------------------------------=
