
     Program PWSCF v.6.4.1 starts on  1Sep2022 at  0:58:35 

     This program is part of the open-source Quantum ESPRESSO suite
     for quantum simulation of materials; please cite
         "P. Giannozzi et al., J. Phys.:Condens. Matter 21 395502 (2009);
         "P. Giannozzi et al., J. Phys.:Condens. Matter 29 465901 (2017);
          URL http://www.quantum-espresso.org", 
     in publications or presentations arising from this work. More details at
     http://www.quantum-espresso.org/quote

     Parallel version (MPI), running on     5 processors

     MPI processes distributed on     1 nodes
     R & G space division:  proc/nbgrp/npool/nimage =       5
     Reading input from distance-1.8.in

     Current dimensions of program PWSCF are:
     Max number of different atomic species (ntypx) = 10
     Max number of k-points (npk) =  40000
     Max angular momentum in pseudopotentials (lmaxx) =  3

     IMPORTANT: XC functional enforced from input :
     Exchange-correlation      = RVV10 ( 1  4 13  4 3 0)
     Any further DFT definition will be discarded
     Please, verify this is what you really want

               file H.pbe-rrkjus.UPF: wavefunction(s)  1S renormalized
               file V.pbe-spnl-rrkjus_psl.1.0.0.UPF: wavefunction(s)  3P 3D renormalized

     Subspace diagonalization in iterative solution of the eigenvalue problem:
     a serial algorithm will be used


     Parallelization info
     --------------------
     sticks:   dense  smooth     PW     G-vecs:    dense   smooth      PW
     Min        3662    2095    520               325198   140515   17555
     Max        3663    2096    525               325201   140518   17556
     Sum       18313   10477   2611              1626001   702581   87777



     bravais-lattice index     =            4
     lattice parameter (alat)  =      23.2937  a.u.
     unit-cell volume          =    8879.8548 (a.u.)^3
     number of atoms/cell      =           52
     number of atomic types    =            3
     number of electrons       =       211.00
     number of Kohn-Sham states=          127
     kinetic-energy cutoff     =      70.0000  Ry
     charge density cutoff     =     490.0000  Ry
     convergence threshold     =      1.0E-06
     mixing beta               =       0.7000
     number of iterations used =            8  plain     mixing
     Exchange-correlation      = RVV10 ( 1  4 13  4 3 0)

     celldm(1)=  23.293684  celldm(2)=   0.000000  celldm(3)=   0.811261
     celldm(4)=   0.000000  celldm(5)=   0.000000  celldm(6)=   0.000000

     crystal axes: (cart. coord. in units of alat)
               a(1) = (   1.000000   0.000000   0.000000 )  
               a(2) = (  -0.500000   0.866025   0.000000 )  
               a(3) = (   0.000000   0.000000   0.811261 )  

     reciprocal axes: (cart. coord. in units 2 pi/alat)
               b(1) = (  1.000000  0.577350 -0.000000 )  
               b(2) = (  0.000000  1.154701  0.000000 )  
               b(3) = (  0.000000 -0.000000  1.232649 )  


     PseudoPot. # 1 for H  read from file:
     /home/cristian/Escritorio/Proyecto_Grafeno/pseudopotenciales/H.pbe-rrkjus.UPF
     MD5 check sum: 7cc9d459525c9a0585f487a71c3c9563
     Pseudo is Ultrasoft, Zval =  1.0
     Generated by new atomic code, or converted to UPF format
     Using radial grid of 1061 points,  2 beta functions with: 
                l(1) =   0
                l(2) =   0
     Q(r) pseudized with 0 coefficients 


     PseudoPot. # 2 for C  read from file:
     /home/cristian/Escritorio/Proyecto_Grafeno/pseudopotenciales/C.pbe-n-rrkjus_psl.1.0.0.UPF
     MD5 check sum: 1fdd950c42eb37d8afe3dd2f8d12311e
     Pseudo is Ultrasoft + core correction, Zval =  4.0
     Generated using "atomic" code by A. Dal Corso v.6.3MaX
     Using radial grid of 1073 points,  4 beta functions with: 
                l(1) =   0
                l(2) =   0
                l(3) =   1
                l(4) =   1
     Q(r) pseudized with 0 coefficients 


     PseudoPot. # 3 for V  read from file:
     /home/cristian/Escritorio/Proyecto_Grafeno/pseudopotenciales/V.pbe-spnl-rrkjus_psl.1.0.0.UPF
     MD5 check sum: 79b3eb63147daf0b665d9f1bcc691206
     Pseudo is Ultrasoft + core correction, Zval = 13.0
     Generated using "atomic" code by A. Dal Corso v.6.2.2
     Using radial grid of 1181 points,  6 beta functions with: 
                l(1) =   0
                l(2) =   0
                l(3) =   1
                l(4) =   1
                l(5) =   2
                l(6) =   2
     Q(r) pseudized with 0 coefficients 


     vdW kernel table read from file rVV10_kernel_table
     MD5 check sum: b8e2538accc0c0b3206b45ba4daaba6c

     atomic species   valence    mass     pseudopotential
        H              1.00     1.00794     H ( 1.00)
        C              4.00    12.01070     C ( 1.00)
        V             13.00    50.94150     V ( 1.00)

     Starting magnetic structure 
     atomic species   magnetization
        H            0.500
        C            0.300
        V            0.800

     No symmetry found


                                    s                        frac. trans.

      isym =  1     identity                                     

 cryst.   s( 1) = (     1          0          0      )
                  (     0          1          0      )
                  (     0          0          1      )

 cart.    s( 1) = (  1.0000000  0.0000000  0.0000000 )
                  (  0.0000000  1.0000000  0.0000000 )
                  (  0.0000000  0.0000000  1.0000000 )


     point group C_1 (1)    
     there are  1 classes
     the character table:

       E    
A      1.00

     the symmetry operations in each class and the name of the first element:

     E        1
          identity                                               

   Cartesian axes

     site n.     atom                  positions (alat units)
         1           H   tau(   1) = (   0.1694937   0.4618802   0.1460270  )
         2           H   tau(   2) = (   0.2305063   0.4618802   0.1460270  )
         3           C   tau(   3) = (   0.0000000   0.0000000   0.0000000  )
         4           C   tau(   4) = (   0.0000000   0.1154701   0.0000000  )
         5           C   tau(   5) = (  -0.1000000   0.1732051   0.0000000  )
         6           C   tau(   6) = (  -0.1000000   0.2886751   0.0000000  )
         7           C   tau(   7) = (  -0.2000000   0.3464102   0.0000000  )
         8           C   tau(   8) = (  -0.2000000   0.4618802   0.0000000  )
         9           C   tau(   9) = (  -0.3000000   0.5196152   0.0000000  )
        10           C   tau(  10) = (  -0.3000000   0.6350853   0.0000000  )
        11           C   tau(  11) = (  -0.4000000   0.6928203   0.0000000  )
        12           C   tau(  12) = (  -0.4000000   0.8082904   0.0000000  )
        13           C   tau(  13) = (   0.2000000   0.0000000   0.0000000  )
        14           C   tau(  14) = (   0.2000000   0.1154701   0.0000000  )
        15           C   tau(  15) = (   0.1000000   0.1732051   0.0000000  )
        16           C   tau(  16) = (   0.1000000   0.2886751   0.0000000  )
        17           C   tau(  17) = (   0.0000000   0.3464102   0.0000000  )
        18           C   tau(  18) = (   0.0000000   0.4618802   0.0000000  )
        19           C   tau(  19) = (  -0.1000000   0.5196152   0.0000000  )
        20           C   tau(  20) = (  -0.1000000   0.6350853   0.0000000  )
        21           C   tau(  21) = (  -0.2000000   0.6928203   0.0000000  )
        22           C   tau(  22) = (  -0.2000000   0.8082904   0.0000000  )
        23           C   tau(  23) = (   0.4000000   0.0000000   0.0000000  )
        24           C   tau(  24) = (   0.4000000   0.1154701   0.0000000  )
        25           C   tau(  25) = (   0.3000000   0.1732051   0.0000000  )
        26           C   tau(  26) = (   0.3000000   0.2886751   0.0000000  )
        27           C   tau(  27) = (   0.2000000   0.3464102   0.0000000  )
        28           V   tau(  28) = (   0.2000000   0.4618802   0.0000000  )
        29           C   tau(  29) = (   0.1000000   0.5196152   0.0000000  )
        30           C   tau(  30) = (   0.1000000   0.6350853   0.0000000  )
        31           C   tau(  31) = (   0.0000000   0.6928203   0.0000000  )
        32           C   tau(  32) = (   0.0000000   0.8082904   0.0000000  )
        33           C   tau(  33) = (   0.6000000   0.0000000   0.0000000  )
        34           C   tau(  34) = (   0.6000000   0.1154701   0.0000000  )
        35           C   tau(  35) = (   0.5000000   0.1732051   0.0000000  )
        36           C   tau(  36) = (   0.5000000   0.2886751   0.0000000  )
        37           C   tau(  37) = (   0.4000000   0.3464102   0.0000000  )
        38           C   tau(  38) = (   0.4000000   0.4618802   0.0000000  )
        39           C   tau(  39) = (   0.3000000   0.5196152   0.0000000  )
        40           C   tau(  40) = (   0.3000000   0.6350853   0.0000000  )
        41           C   tau(  41) = (   0.2000000   0.6928203   0.0000000  )
        42           C   tau(  42) = (   0.2000000   0.8082904   0.0000000  )
        43           C   tau(  43) = (   0.8000000   0.0000000   0.0000000  )
        44           C   tau(  44) = (   0.8000000   0.1154701   0.0000000  )
        45           C   tau(  45) = (   0.7000000   0.1732051   0.0000000  )
        46           C   tau(  46) = (   0.7000000   0.2886751   0.0000000  )
        47           C   tau(  47) = (   0.6000000   0.3464102   0.0000000  )
        48           C   tau(  48) = (   0.6000000   0.4618802   0.0000000  )
        49           C   tau(  49) = (   0.5000000   0.5196152   0.0000000  )
        50           C   tau(  50) = (   0.5000000   0.6350853   0.0000000  )
        51           C   tau(  51) = (   0.4000000   0.6928203   0.0000000  )
        52           C   tau(  52) = (   0.4000000   0.8082904   0.0000000  )

   Crystallographic axes

     site n.     atom                  positions (cryst. coord.)
         1           H   tau(   1) = (  0.4361603  0.5333333  0.1800000  )
         2           H   tau(   2) = (  0.4971730  0.5333333  0.1800000  )
         3           C   tau(   3) = (  0.0000000  0.0000000  0.0000000  )
         4           C   tau(   4) = (  0.0666667  0.1333333  0.0000000  )
         5           C   tau(   5) = (  0.0000000  0.2000000  0.0000000  )
         6           C   tau(   6) = (  0.0666667  0.3333333  0.0000000  )
         7           C   tau(   7) = (  0.0000000  0.4000000  0.0000000  )
         8           C   tau(   8) = (  0.0666667  0.5333333  0.0000000  )
         9           C   tau(   9) = (  0.0000000  0.6000000  0.0000000  )
        10           C   tau(  10) = (  0.0666667  0.7333333  0.0000000  )
        11           C   tau(  11) = (  0.0000000  0.8000000  0.0000000  )
        12           C   tau(  12) = (  0.0666667  0.9333333  0.0000000  )
        13           C   tau(  13) = (  0.2000000  0.0000000  0.0000000  )
        14           C   tau(  14) = (  0.2666667  0.1333333  0.0000000  )
        15           C   tau(  15) = (  0.2000000  0.2000000  0.0000000  )
        16           C   tau(  16) = (  0.2666667  0.3333333  0.0000000  )
        17           C   tau(  17) = (  0.2000000  0.4000000  0.0000000  )
        18           C   tau(  18) = (  0.2666667  0.5333333  0.0000000  )
        19           C   tau(  19) = (  0.2000000  0.6000000  0.0000000  )
        20           C   tau(  20) = (  0.2666667  0.7333333  0.0000000  )
        21           C   tau(  21) = (  0.2000000  0.8000000  0.0000000  )
        22           C   tau(  22) = (  0.2666667  0.9333333  0.0000000  )
        23           C   tau(  23) = (  0.4000000  0.0000000  0.0000000  )
        24           C   tau(  24) = (  0.4666667  0.1333333  0.0000000  )
        25           C   tau(  25) = (  0.4000000  0.2000000  0.0000000  )
        26           C   tau(  26) = (  0.4666667  0.3333333  0.0000000  )
        27           C   tau(  27) = (  0.4000000  0.4000000  0.0000000  )
        28           V   tau(  28) = (  0.4666667  0.5333333  0.0000000  )
        29           C   tau(  29) = (  0.4000000  0.6000000  0.0000000  )
        30           C   tau(  30) = (  0.4666667  0.7333333  0.0000000  )
        31           C   tau(  31) = (  0.4000000  0.8000000  0.0000000  )
        32           C   tau(  32) = (  0.4666667  0.9333333  0.0000000  )
        33           C   tau(  33) = (  0.6000000  0.0000000  0.0000000  )
        34           C   tau(  34) = (  0.6666667  0.1333333  0.0000000  )
        35           C   tau(  35) = (  0.6000000  0.2000000  0.0000000  )
        36           C   tau(  36) = (  0.6666667  0.3333333  0.0000000  )
        37           C   tau(  37) = (  0.6000000  0.4000000  0.0000000  )
        38           C   tau(  38) = (  0.6666667  0.5333333  0.0000000  )
        39           C   tau(  39) = (  0.6000000  0.6000000  0.0000000  )
        40           C   tau(  40) = (  0.6666667  0.7333333  0.0000000  )
        41           C   tau(  41) = (  0.6000000  0.8000000  0.0000000  )
        42           C   tau(  42) = (  0.6666667  0.9333333  0.0000000  )
        43           C   tau(  43) = (  0.8000000  0.0000000  0.0000000  )
        44           C   tau(  44) = (  0.8666667  0.1333333  0.0000000  )
        45           C   tau(  45) = (  0.8000000  0.2000000  0.0000000  )
        46           C   tau(  46) = (  0.8666667  0.3333333  0.0000000  )
        47           C   tau(  47) = (  0.8000000  0.4000000  0.0000000  )
        48           C   tau(  48) = (  0.8666667  0.5333333  0.0000000  )
        49           C   tau(  49) = (  0.8000000  0.6000000  0.0000000  )
        50           C   tau(  50) = (  0.8666667  0.7333333  0.0000000  )
        51           C   tau(  51) = (  0.8000000  0.8000000  0.0000000  )
        52           C   tau(  52) = (  0.8666667  0.9333333  0.0000000  )

     number of k points=     1  Marzari-Vanderbilt smearing, width (Ry)=  0.0010
                       cart. coord. in units 2pi/alat
        k(    1) = (   0.0000000   0.0000000   0.0000000), wk =   1.0000000

                       cryst. coord.
        k(    1) = (   0.0000000   0.0000000   0.0000000), wk =   1.0000000

     Dense  grid:  1626001 G-vectors     FFT dimensions: ( 180, 180, 135)

     Smooth grid:   702581 G-vectors     FFT dimensions: ( 125, 125, 108)

     Dynamical RAM for                 wfc:      34.04 MB

     Dynamical RAM for     wfc (w. buffer):     102.11 MB

     Dynamical RAM for           str. fact:      14.89 MB

     Dynamical RAM for           local pot:       0.00 MB

     Dynamical RAM for          nlocal pot:     110.95 MB

     Dynamical RAM for                qrad:      19.73 MB

     Dynamical RAM for          rho,v,vnew:      69.82 MB

     Dynamical RAM for               rhoin:      23.27 MB

     Dynamical RAM for            rho*nmix:     158.79 MB

     Dynamical RAM for           G-vectors:      19.68 MB

     Dynamical RAM for          h,s,v(r/c):      11.81 MB

     Dynamical RAM for          <psi|beta>:       0.80 MB

     Dynamical RAM for                 psi:     136.15 MB

     Dynamical RAM for                hpsi:     136.15 MB

     Dynamical RAM for                spsi:     136.15 MB

     Dynamical RAM for      wfcinit/wfcrot:     112.48 MB

     Dynamical RAM for           addusdens:    1171.07 MB

     Estimated static dynamical RAM per process >     579.14 MB

     Estimated max dynamical RAM per process >       1.71 GB

     Estimated total dynamical RAM >       8.55 GB
     Generating pointlists ...
     new r_m :   0.0252 (alat units)  0.5862 (a.u.) for type    1
     new r_m :   0.0476 (alat units)  1.1095 (a.u.) for type    2
     new r_m :   0.0476 (alat units)  1.1095 (a.u.) for type    3

     Check: negative core charge=   -0.000002

     Initial potential from superposition of free atoms

     starting charge  210.80465, renormalised to  211.00000

     negative rho (up, down):  1.541E-04 2.086E-02


---------------------------------------------------------------------------------
Carrying out rVV10 run using the following parameters:
Nqs =      20    Nr_points =    1024   r_max =   100.000
b_value =  6.30000    beta =  0.00901
     q_mesh =  0.00010000  0.00030000  0.00058939  0.00100810
               0.00161396  0.00249058  0.00375900  0.00559430
               0.00824984  0.01209221  0.01765183  0.02569619
               0.03733578  0.05417739  0.07854596  0.11380545
               0.16482331  0.23864234  0.34545298  0.50000000

Gradients computed in Reciprocal space

---------------------------------------------------------------------------------


     Starting wfcs are  208 randomized atomic wfcs

     total cpu time spent up to now is       83.2 secs

     Self-consistent Calculation

     iteration #  1     ecut=    70.00 Ry     beta= 0.70
     Davidson diagonalization with overlap
     ethr =  1.00E-02,  avg # of iterations =  3.0

     negative rho (up, down):  3.198E-04 1.862E-02

     total cpu time spent up to now is      216.4 secs

     total energy              =    -748.58958861 Ry
     Harris-Foulkes estimate   =    -757.42231227 Ry
     estimated scf accuracy    <      17.09315578 Ry

     total magnetization       =     7.00 Bohr mag/cell
     absolute magnetization    =     7.57 Bohr mag/cell

     iteration #  2     ecut=    70.00 Ry     beta= 0.70
     Davidson diagonalization with overlap
     ethr =  8.10E-03,  avg # of iterations =  6.0

     negative rho (up, down):  5.987E-04 1.382E-01

     total cpu time spent up to now is      342.4 secs

     total energy              =    -735.83056531 Ry
     Harris-Foulkes estimate   =    -780.96339637 Ry
     estimated scf accuracy    <     174.34124028 Ry

     total magnetization       =     1.00 Bohr mag/cell
     absolute magnetization    =     2.07 Bohr mag/cell

     iteration #  3     ecut=    70.00 Ry     beta= 0.70
     Davidson diagonalization with overlap
     ethr =  8.10E-03,  avg # of iterations =  6.0

     negative rho (up, down):  9.900E-03 6.440E-02

     total cpu time spent up to now is      501.6 secs

     total energy              =    -755.35480284 Ry
     Harris-Foulkes estimate   =    -758.34907729 Ry
     estimated scf accuracy    <       8.41810791 Ry

     total magnetization       =     3.00 Bohr mag/cell
     absolute magnetization    =     3.53 Bohr mag/cell

     iteration #  4     ecut=    70.00 Ry     beta= 0.70
     Davidson diagonalization with overlap
     ethr =  3.99E-03,  avg # of iterations =  4.5

     negative rho (up, down):  2.004E-02 7.203E-02

     total cpu time spent up to now is      616.6 secs

     total energy              =    -756.56569320 Ry
     Harris-Foulkes estimate   =    -757.62475769 Ry
     estimated scf accuracy    <       3.54627213 Ry

     total magnetization       =     3.00 Bohr mag/cell
     absolute magnetization    =     3.52 Bohr mag/cell

     iteration #  5     ecut=    70.00 Ry     beta= 0.70
     Davidson diagonalization with overlap
     ethr =  1.68E-03,  avg # of iterations =  4.0

     negative rho (up, down):  2.016E-02 3.700E-02

     total cpu time spent up to now is      720.2 secs

     total energy              =    -757.23481233 Ry
     Harris-Foulkes estimate   =    -757.40235508 Ry
     estimated scf accuracy    <       0.65194140 Ry

     total magnetization       =     1.00 Bohr mag/cell
     absolute magnetization    =     1.50 Bohr mag/cell

     iteration #  6     ecut=    70.00 Ry     beta= 0.70
     Davidson diagonalization with overlap
     ethr =  3.09E-04,  avg # of iterations =  4.5

     negative rho (up, down):  1.883E-02 4.379E-02

     total cpu time spent up to now is      823.9 secs

     total energy              =    -757.29565469 Ry
     Harris-Foulkes estimate   =    -757.31831526 Ry
     estimated scf accuracy    <       0.11467222 Ry

     total magnetization       =     0.84 Bohr mag/cell
     absolute magnetization    =     1.42 Bohr mag/cell

     iteration #  7     ecut=    70.00 Ry     beta= 0.70
     Davidson diagonalization with overlap
     ethr =  5.43E-05,  avg # of iterations =  9.0

     negative rho (up, down):  2.688E-02 3.330E-02

     total cpu time spent up to now is      950.9 secs

     total energy              =    -757.30423984 Ry
     Harris-Foulkes estimate   =    -757.35501599 Ry
     estimated scf accuracy    <       0.17946985 Ry

     total magnetization       =     1.00 Bohr mag/cell
     absolute magnetization    =     1.44 Bohr mag/cell

     iteration #  8     ecut=    70.00 Ry     beta= 0.70
     Davidson diagonalization with overlap
     ethr =  5.43E-05,  avg # of iterations =  3.0

     negative rho (up, down):  3.208E-02 2.675E-02

     total cpu time spent up to now is     1060.0 secs

     total energy              =    -757.32352378 Ry
     Harris-Foulkes estimate   =    -757.33222187 Ry
     estimated scf accuracy    <       0.02955147 Ry

     total magnetization       =     1.00 Bohr mag/cell
     absolute magnetization    =     1.46 Bohr mag/cell

     iteration #  9     ecut=    70.00 Ry     beta= 0.70
     Davidson diagonalization with overlap
     ethr =  1.40E-05,  avg # of iterations =  3.0

     negative rho (up, down):  3.669E-02 2.647E-02

     total cpu time spent up to now is     1170.4 secs

     total energy              =    -757.32657264 Ry
     Harris-Foulkes estimate   =    -757.33511220 Ry
     estimated scf accuracy    <       0.04654006 Ry

     total magnetization       =     1.00 Bohr mag/cell
     absolute magnetization    =     1.45 Bohr mag/cell

     iteration # 10     ecut=    70.00 Ry     beta= 0.70
     Davidson diagonalization with overlap
     ethr =  1.40E-05,  avg # of iterations =  3.0

     negative rho (up, down):  3.362E-02 2.834E-02

     total cpu time spent up to now is     1267.6 secs

     total energy              =    -757.33168544 Ry
     Harris-Foulkes estimate   =    -757.33195868 Ry
     estimated scf accuracy    <       0.01268318 Ry

     total magnetization       =     1.00 Bohr mag/cell
     absolute magnetization    =     1.48 Bohr mag/cell

     iteration # 11     ecut=    70.00 Ry     beta= 0.70
     Davidson diagonalization with overlap
     ethr =  6.01E-06,  avg # of iterations =  3.0

     negative rho (up, down):  3.141E-02 3.048E-02

     total cpu time spent up to now is     1366.9 secs

     total energy              =    -757.33336156 Ry
     Harris-Foulkes estimate   =    -757.33276454 Ry
     estimated scf accuracy    <       0.00435040 Ry

     total magnetization       =     1.00 Bohr mag/cell
     absolute magnetization    =     1.49 Bohr mag/cell

     iteration # 12     ecut=    70.00 Ry     beta= 0.70
     Davidson diagonalization with overlap
     ethr =  2.06E-06,  avg # of iterations =  5.5

     negative rho (up, down):  3.021E-02 2.219E-02

     total cpu time spent up to now is     1473.1 secs

     total energy              =    -757.33498409 Ry
     Harris-Foulkes estimate   =    -757.33381224 Ry
     estimated scf accuracy    <       0.00126056 Ry

     total magnetization       =     1.00 Bohr mag/cell
     absolute magnetization    =     1.50 Bohr mag/cell

     iteration # 13     ecut=    70.00 Ry     beta= 0.70
     Davidson diagonalization with overlap
     ethr =  5.97E-07,  avg # of iterations =  4.5

     negative rho (up, down):  3.118E-02 2.684E-02

     total cpu time spent up to now is     1586.6 secs

     total energy              =    -757.33523547 Ry
     Harris-Foulkes estimate   =    -757.33529512 Ry
     estimated scf accuracy    <       0.00026812 Ry

     total magnetization       =     1.00 Bohr mag/cell
     absolute magnetization    =     1.53 Bohr mag/cell

     iteration # 14     ecut=    70.00 Ry     beta= 0.70
     Davidson diagonalization with overlap
     ethr =  1.27E-07,  avg # of iterations =  3.0

     negative rho (up, down):  3.125E-02 2.125E-02

     total cpu time spent up to now is     1700.3 secs

     total energy              =    -757.33537162 Ry
     Harris-Foulkes estimate   =    -757.33531841 Ry
     estimated scf accuracy    <       0.00010681 Ry

     total magnetization       =     1.00 Bohr mag/cell
     absolute magnetization    =     1.54 Bohr mag/cell

     iteration # 15     ecut=    70.00 Ry     beta= 0.70
     Davidson diagonalization with overlap
     ethr =  5.06E-08,  avg # of iterations =  3.0

     negative rho (up, down):  3.132E-02 1.655E-02

     total cpu time spent up to now is     1813.6 secs

     total energy              =    -757.33540175 Ry
     Harris-Foulkes estimate   =    -757.33540635 Ry
     estimated scf accuracy    <       0.00008099 Ry

     total magnetization       =     1.00 Bohr mag/cell
     absolute magnetization    =     1.55 Bohr mag/cell

     iteration # 16     ecut=    70.00 Ry     beta= 0.70
     Davidson diagonalization with overlap
     ethr =  3.84E-08,  avg # of iterations =  2.0

     negative rho (up, down):  3.113E-02 3.708E-03

     total cpu time spent up to now is     1914.8 secs

     total energy              =    -757.33543867 Ry
     Harris-Foulkes estimate   =    -757.33541560 Ry
     estimated scf accuracy    <       0.00002295 Ry

     total magnetization       =     1.00 Bohr mag/cell
     absolute magnetization    =     1.56 Bohr mag/cell

     iteration # 17     ecut=    70.00 Ry     beta= 0.70
     Davidson diagonalization with overlap
     ethr =  1.09E-08,  avg # of iterations =  2.5

     negative rho (up, down):  3.122E-02 6.243E-03

     total cpu time spent up to now is     2016.1 secs

     total energy              =    -757.33543993 Ry
     Harris-Foulkes estimate   =    -757.33544195 Ry
     estimated scf accuracy    <       0.00001382 Ry

     total magnetization       =     1.00 Bohr mag/cell
     absolute magnetization    =     1.56 Bohr mag/cell

     iteration # 18     ecut=    70.00 Ry     beta= 0.70
     Davidson diagonalization with overlap
     ethr =  6.55E-09,  avg # of iterations =  3.0

     negative rho (up, down):  3.114E-02 4.193E-03

     total cpu time spent up to now is     2116.5 secs

     total energy              =    -757.33544260 Ry
     Harris-Foulkes estimate   =    -757.33544232 Ry
     estimated scf accuracy    <       0.00000934 Ry

     total magnetization       =     1.00 Bohr mag/cell
     absolute magnetization    =     1.57 Bohr mag/cell

     iteration # 19     ecut=    70.00 Ry     beta= 0.70
     Davidson diagonalization with overlap
     ethr =  4.43E-09,  avg # of iterations =  3.5

     negative rho (up, down):  3.114E-02 3.660E-03

     total cpu time spent up to now is     2232.5 secs

     total energy              =    -757.33544419 Ry
     Harris-Foulkes estimate   =    -757.33544605 Ry
     estimated scf accuracy    <       0.00000491 Ry

     total magnetization       =     1.00 Bohr mag/cell
     absolute magnetization    =     1.57 Bohr mag/cell

     iteration # 20     ecut=    70.00 Ry     beta= 0.70
     Davidson diagonalization with overlap
     ethr =  2.33E-09,  avg # of iterations =  2.0

     negative rho (up, down):  3.115E-02 2.961E-03

     total cpu time spent up to now is     2335.9 secs

     total energy              =    -757.33544620 Ry
     Harris-Foulkes estimate   =    -757.33544567 Ry
     estimated scf accuracy    <       0.00000398 Ry

     total magnetization       =     1.00 Bohr mag/cell
     absolute magnetization    =     1.57 Bohr mag/cell

     iteration # 21     ecut=    70.00 Ry     beta= 0.70
     Davidson diagonalization with overlap
     ethr =  1.89E-09,  avg # of iterations =  1.5

     negative rho (up, down):  3.116E-02 3.398E-03

     total cpu time spent up to now is     2431.8 secs

     total energy              =    -757.33544618 Ry
     Harris-Foulkes estimate   =    -757.33544645 Ry
     estimated scf accuracy    <       0.00000216 Ry

     total magnetization       =     1.00 Bohr mag/cell
     absolute magnetization    =     1.57 Bohr mag/cell

     iteration # 22     ecut=    70.00 Ry     beta= 0.70
     Davidson diagonalization with overlap
     ethr =  1.02E-09,  avg # of iterations =  3.0

     negative rho (up, down):  3.116E-02 2.647E-03

     Magnetic moment per site:
     atom:    1    charge:    0.2162    magn:    0.0008    constr:    0.0000
     atom:    2    charge:    0.2163    magn:    0.0008    constr:    0.0000
     atom:    3    charge:    1.7171    magn:   -0.0080    constr:    0.0000
     atom:    4    charge:    1.7166    magn:    0.0132    constr:    0.0000
     atom:    5    charge:    1.7180    magn:   -0.0042    constr:    0.0000
     atom:    6    charge:    1.7141    magn:    0.0022    constr:    0.0000
     atom:    7    charge:    1.7188    magn:   -0.0030    constr:    0.0000
     atom:    8    charge:    1.7147    magn:    0.0023    constr:    0.0000
     atom:    9    charge:    1.7191    magn:   -0.0039    constr:    0.0000
     atom:   10    charge:    1.7098    magn:    0.0020    constr:    0.0000
     atom:   11    charge:    1.7189    magn:   -0.0088    constr:    0.0000
     atom:   12    charge:    1.7166    magn:    0.0456    constr:    0.0000
     atom:   13    charge:    1.7182    magn:   -0.0089    constr:    0.0000
     atom:   14    charge:    1.7119    magn:    0.0014    constr:    0.0000
     atom:   15    charge:    1.7177    magn:   -0.0040    constr:    0.0000
     atom:   16    charge:    1.7091    magn:    0.0100    constr:    0.0000
     atom:   17    charge:    1.7280    magn:   -0.0026    constr:    0.0000
     atom:   18    charge:    1.7102    magn:    0.0207    constr:    0.0000
     atom:   19    charge:    1.7170    magn:   -0.0071    constr:    0.0000
     atom:   20    charge:    1.7158    magn:    0.0342    constr:    0.0000
     atom:   21    charge:    1.7189    magn:   -0.0088    constr:    0.0000
     atom:   22    charge:    1.7165    magn:    0.0451    constr:    0.0000
     atom:   23    charge:    1.7172    magn:   -0.0079    constr:    0.0000
     atom:   24    charge:    1.7166    magn:    0.0130    constr:    0.0000
     atom:   25    charge:    1.7177    magn:   -0.0039    constr:    0.0000
     atom:   26    charge:    1.7090    magn:    0.0094    constr:    0.0000
     atom:   27    charge:    1.9139    magn:   -0.0052    constr:    0.0000
     atom:   28    charge:    7.8585    magn:    0.0908    constr:    0.0000
     atom:   29    charge:    1.9115    magn:   -0.0010    constr:    0.0000
     atom:   30    charge:    1.7157    magn:    0.0617    constr:    0.0000
     atom:   31    charge:    1.7159    magn:   -0.0126    constr:    0.0000
     atom:   32    charge:    1.7157    magn:    0.0125    constr:    0.0000
     atom:   33    charge:    1.7182    magn:   -0.0051    constr:    0.0000
     atom:   34    charge:    1.7141    magn:    0.0093    constr:    0.0000
     atom:   35    charge:    1.7181    magn:   -0.0041    constr:    0.0000
     atom:   36    charge:    1.7141    magn:    0.0021    constr:    0.0000
     atom:   37    charge:    1.7280    magn:   -0.0024    constr:    0.0000
     atom:   38    charge:    1.7101    magn:    0.0200    constr:    0.0000
     atom:   39    charge:    1.9115    magn:   -0.0010    constr:    0.0000
     atom:   40    charge:    1.7157    magn:    0.0616    constr:    0.0000
     atom:   41    charge:    1.7252    magn:   -0.0105    constr:    0.0000
     atom:   42    charge:    1.7141    magn:    0.0032    constr:    0.0000
     atom:   43    charge:    1.7182    magn:   -0.0052    constr:    0.0000
     atom:   44    charge:    1.7141    magn:    0.0094    constr:    0.0000
     atom:   45    charge:    1.7248    magn:   -0.0027    constr:    0.0000
     atom:   46    charge:    1.7130    magn:    0.0017    constr:    0.0000
     atom:   47    charge:    1.7188    magn:   -0.0029    constr:    0.0000
     atom:   48    charge:    1.7147    magn:    0.0022    constr:    0.0000
     atom:   49    charge:    1.7170    magn:   -0.0069    constr:    0.0000
     atom:   50    charge:    1.7158    magn:    0.0337    constr:    0.0000
     atom:   51    charge:    1.7159    magn:   -0.0125    constr:    0.0000
     atom:   52    charge:    1.7158    magn:    0.0127    constr:    0.0000

     total cpu time spent up to now is     2544.0 secs

     End of self-consistent calculation

 ------ SPIN UP ------------


          k = 0.0000 0.0000 0.0000 ( 87777 PWs)   bands (ev):

   -62.7139 -37.8542 -37.7851 -36.4850 -19.6257 -18.8187 -18.7440 -18.7141
   -18.6796 -18.6428 -18.2241 -16.9333 -16.9330 -16.9058 -16.8025 -16.7709
   -16.5058 -16.0688 -16.0674 -15.9741 -15.8219 -15.8183 -15.0753 -13.8978
   -13.8860 -13.8641 -13.8451 -13.8374 -13.1237 -12.9078 -12.9011 -12.8845
   -12.4969 -12.4914 -12.1079 -11.6363 -11.6272 -11.5066 -11.1257 -11.1254
   -10.1916  -9.3701  -9.3157  -9.3070  -9.2428  -9.1760  -9.1705  -9.0819
    -9.0544  -9.0508  -9.0358  -8.4537  -8.4473  -7.8858  -7.8701  -7.8422
    -7.7472  -7.6627  -7.2537  -7.2322  -6.9748  -6.9670  -6.8741  -6.6962
    -6.6832  -6.6799  -6.5833  -6.5755  -6.5323  -6.4338  -6.4126  -6.3890
    -6.3618  -6.3555  -6.3174  -6.1419  -5.2564  -5.2502  -5.2017  -5.1581
    -4.9317  -4.9291  -4.8204  -4.7296  -4.6127  -4.6028  -4.5914  -4.1956
    -3.9890  -3.9789  -3.7543  -3.7445  -3.6461  -3.5555  -3.4864  -3.4822
    -2.7776  -2.2912  -2.2478  -2.1820  -2.1542  -1.7352  -1.6760  -1.6636
    -0.4251  -0.2885  -0.2246   1.0553   1.0845   1.0969   1.7370   2.0378
     2.0676   2.3974   2.6569   2.8896   2.9123   2.9930   3.1885   3.5010
     3.6630   3.7446   3.7550   3.8054   3.9476   4.0136   4.0249

     occupation numbers 
     1.0000   1.0000   1.0000   1.0000   1.0000   1.0000   1.0000   1.0000
     1.0000   1.0000   1.0000   1.0000   1.0000   1.0000   1.0000   1.0000
     1.0000   1.0000   1.0000   1.0000   1.0000   1.0000   1.0000   1.0000
     1.0000   1.0000   1.0000   1.0000   1.0000   1.0000   1.0000   1.0000
     1.0000   1.0000   1.0000   1.0000   1.0000   1.0000   1.0000   1.0000
     1.0000   1.0000   1.0000   1.0000   1.0000   1.0000   1.0000   1.0000
     1.0000   1.0000   1.0000   1.0000   1.0000   1.0000   1.0000   1.0000
     1.0000   1.0000   1.0000   1.0000   1.0000   1.0000   1.0000   1.0000
     1.0000   1.0000   1.0000   1.0000   1.0000   1.0000   1.0000   1.0000
     1.0000   1.0000   1.0000   1.0000   1.0000   1.0000   1.0000   1.0000
     1.0000   1.0000   1.0000   1.0000   1.0000   1.0000   1.0000   1.0000
     1.0000   1.0000   1.0000   1.0000   1.0000   1.0000   1.0000   1.0000
     1.0000   1.0000   1.0000   1.0000   1.0000   1.0000   1.0000   1.0000
     1.0000   1.0000   0.0000   0.0000   0.0000   0.0000   0.0000   0.0000
     0.0000   0.0000   0.0000   0.0000   0.0000   0.0000   0.0000   0.0000
     0.0000   0.0000   0.0000   0.0000   0.0000   0.0000   0.0000

 ------ SPIN DOWN ----------


          k = 0.0000 0.0000 0.0000 ( 87777 PWs)   bands (ev):

   -62.5399 -37.7934 -37.5581 -36.2480 -19.6053 -18.8097 -18.7117 -18.6943
   -18.6668 -18.6240 -18.1895 -16.9221 -16.9207 -16.8779 -16.7828 -16.7355
   -16.4904 -16.0470 -16.0348 -15.9558 -15.7991 -15.7966 -15.0604 -13.8771
   -13.8684 -13.8403 -13.8335 -13.7837 -13.1266 -12.8997 -12.8868 -12.8688
   -12.4905 -12.4815 -12.0899 -11.6144 -11.6121 -11.4939 -11.1177 -11.1088
   -10.1748  -9.3410  -9.2952  -9.2894  -9.2301  -9.1643  -9.1516  -9.0736
    -9.0433  -9.0339  -9.0207  -8.4490  -8.4384  -7.8757  -7.8594  -7.8334
    -7.7015  -7.6540  -7.2443  -7.2240  -6.9165  -6.8868  -6.8548  -6.6619
    -6.6396  -6.6367  -6.5720  -6.5676  -6.5232  -6.4246  -6.4023  -6.3845
    -6.3568  -6.3416  -6.3085  -6.0583  -5.2495  -5.2308  -5.1220  -5.0959
    -4.9230  -4.9186  -4.8143  -4.7229  -4.5826  -4.5649  -4.5177  -4.1578
    -3.9522  -3.9206  -3.6802  -3.6707  -3.5912  -3.5316  -3.4806  -3.4735
    -2.7412  -2.2080  -2.2070  -2.1352  -2.0807  -1.6781  -1.6511  -1.6196
    -0.4273  -0.1255   0.0506   1.0935   1.1158   1.1531   1.8061   2.1019
     2.1348   2.4086   2.6976   2.9609   2.9744   3.0425   3.2210   3.5082
     3.6740   3.7453   3.7595   3.8104   3.9844   4.0672   4.1116

     occupation numbers 
     1.0000   1.0000   1.0000   1.0000   1.0000   1.0000   1.0000   1.0000
     1.0000   1.0000   1.0000   1.0000   1.0000   1.0000   1.0000   1.0000
     1.0000   1.0000   1.0000   1.0000   1.0000   1.0000   1.0000   1.0000
     1.0000   1.0000   1.0000   1.0000   1.0000   1.0000   1.0000   1.0000
     1.0000   1.0000   1.0000   1.0000   1.0000   1.0000   1.0000   1.0000
     1.0000   1.0000   1.0000   1.0000   1.0000   1.0000   1.0000   1.0000
     1.0000   1.0000   1.0000   1.0000   1.0000   1.0000   1.0000   1.0000
     1.0000   1.0000   1.0000   1.0000   1.0000   1.0000   1.0000   1.0000
     1.0000   1.0000   1.0000   1.0000   1.0000   1.0000   1.0000   1.0000
     1.0000   1.0000   1.0000   1.0000   1.0000   1.0000   1.0000   1.0000
     1.0000   1.0000   1.0000   1.0000   1.0000   1.0000   1.0000   1.0000
     1.0000   1.0000   1.0000   1.0000   1.0000   1.0000   1.0000   1.0000
     1.0000   1.0000   1.0000   1.0000   1.0000   1.0000   1.0000   1.0000
     1.0000   0.0000   0.0000   0.0000   0.0000   0.0000   0.0000   0.0000
     0.0000   0.0000   0.0000   0.0000   0.0000   0.0000   0.0000   0.0000
     0.0000   0.0000   0.0000   0.0000   0.0000   0.0000   0.0000

     the Fermi energy is    -0.2760 ev

!    total energy              =    -757.33544682 Ry
     Harris-Foulkes estimate   =    -757.33544681 Ry
     estimated scf accuracy    <       0.00000028 Ry

     The total energy is the sum of the following terms:

     one-electron contribution =   -2618.92932237 Ry
     hartree contribution      =    1356.32539372 Ry
     xc contribution           =    -252.75731404 Ry
     ewald contribution        =     758.02571432 Ry
     smearing contrib. (-TS)   =       0.00008155 Ry

     total magnetization       =     1.00 Bohr mag/cell
     absolute magnetization    =     1.57 Bohr mag/cell

     convergence has been achieved in  22 iterations

     Writing output data file vanadio-top-distance-1.8.save/

     init_run     :     80.49s CPU     81.99s WALL (       1 calls)
     electrons    :   2419.81s CPU   2460.87s WALL (       1 calls)

     Called by init_run:
     wfcinit      :     44.40s CPU     44.69s WALL (       1 calls)
     wfcinit:atom :      0.07s CPU      0.11s WALL (       2 calls)
     wfcinit:wfcr :     43.95s CPU     44.14s WALL (       2 calls)
     potinit      :     14.77s CPU     15.30s WALL (       1 calls)
     hinit0       :     12.36s CPU     12.42s WALL (       1 calls)

     Called by electrons:
     c_bands      :   1595.60s CPU   1604.43s WALL (      22 calls)
     sum_band     :    476.22s CPU    489.23s WALL (      22 calls)
     v_of_rho     :    178.68s CPU    187.22s WALL (      23 calls)
     v_h          :      1.81s CPU      1.86s WALL (      23 calls)
     v_xc         :    176.87s CPU    185.36s WALL (      23 calls)
     newd         :    169.53s CPU    180.92s WALL (      23 calls)
     mix_rho      :      9.83s CPU     10.04s WALL (      22 calls)

     Called by c_bands:
     init_us_2    :      4.13s CPU      4.17s WALL (      90 calls)
     cegterg      :   1585.23s CPU   1594.02s WALL (      44 calls)

     Called by sum_band:
     sum_band:bec :      0.03s CPU      0.03s WALL (      44 calls)
     addusdens    :    288.05s CPU    299.94s WALL (      22 calls)

     Called by *egterg:
     h_psi        :    843.94s CPU    850.36s WALL (     211 calls)
     s_psi        :    280.49s CPU    280.60s WALL (     211 calls)
     g_psi        :      0.99s CPU      0.99s WALL (     165 calls)
     cdiaghg      :     15.78s CPU     15.79s WALL (     209 calls)
     cegterg:over :    198.54s CPU    198.60s WALL (     165 calls)
     cegterg:upda :    129.06s CPU    129.70s WALL (     165 calls)
     cegterg:last :     79.30s CPU     79.31s WALL (      44 calls)

     Called by h_psi:
     h_psi:pot    :    843.05s CPU    848.34s WALL (     211 calls)
     h_psi:calbec :    283.15s CPU    283.26s WALL (     211 calls)
     vloc_psi     :    278.50s CPU    283.62s WALL (     211 calls)
     add_vuspsi   :    281.40s CPU    281.47s WALL (     211 calls)

     General routines
     calbec       :    395.51s CPU    395.66s WALL (     255 calls)
     fft          :    102.54s CPU    105.90s WALL (    1719 calls)
     ffts         :      1.69s CPU      1.78s WALL (      90 calls)
     fftw         :    285.82s CPU    291.11s WALL (   33858 calls)
     interpolate  :      4.10s CPU      4.21s WALL (      46 calls)

     Parallel routines
     fft_scatt_xy :     71.90s CPU     72.85s WALL (   35667 calls)
     fft_scatt_yz :    120.43s CPU    126.50s WALL (   35667 calls)

     PWSCF        :  41m41.69s CPU  42m24.60s WALL


   This run was terminated on:   1:40:59   1Sep2022            

=------------------------------------------------------------------------------=
   JOB DONE.
=------------------------------------------------------------------------------=
