
     Program PWSCF v.6.4.1 starts on 31Aug2022 at 19:27:26 

     This program is part of the open-source Quantum ESPRESSO suite
     for quantum simulation of materials; please cite
         "P. Giannozzi et al., J. Phys.:Condens. Matter 21 395502 (2009);
         "P. Giannozzi et al., J. Phys.:Condens. Matter 29 465901 (2017);
          URL http://www.quantum-espresso.org", 
     in publications or presentations arising from this work. More details at
     http://www.quantum-espresso.org/quote

     Parallel version (MPI), running on     5 processors

     MPI processes distributed on     1 nodes
     R & G space division:  proc/nbgrp/npool/nimage =       5
     Reading input from distance-3.0.in

     Current dimensions of program PWSCF are:
     Max number of different atomic species (ntypx) = 10
     Max number of k-points (npk) =  40000
     Max angular momentum in pseudopotentials (lmaxx) =  3

     IMPORTANT: XC functional enforced from input :
     Exchange-correlation      = RVV10 ( 1  4 13  4 3 0)
     Any further DFT definition will be discarded
     Please, verify this is what you really want

               file H.pbe-rrkjus.UPF: wavefunction(s)  1S renormalized
               file V.pbe-spnl-rrkjus_psl.1.0.0.UPF: wavefunction(s)  3P 3D renormalized

     Subspace diagonalization in iterative solution of the eigenvalue problem:
     a serial algorithm will be used


     Parallelization info
     --------------------
     sticks:   dense  smooth     PW     G-vecs:    dense   smooth      PW
     Min        3662    2095    520               325198   140515   17555
     Max        3663    2096    525               325201   140518   17556
     Sum       18313   10477   2611              1626001   702581   87777



     bravais-lattice index     =            4
     lattice parameter (alat)  =      23.2937  a.u.
     unit-cell volume          =    8879.8548 (a.u.)^3
     number of atoms/cell      =           52
     number of atomic types    =            3
     number of electrons       =       211.00
     number of Kohn-Sham states=          127
     kinetic-energy cutoff     =      70.0000  Ry
     charge density cutoff     =     490.0000  Ry
     convergence threshold     =      1.0E-06
     mixing beta               =       0.7000
     number of iterations used =            8  plain     mixing
     Exchange-correlation      = RVV10 ( 1  4 13  4 3 0)

     celldm(1)=  23.293684  celldm(2)=   0.000000  celldm(3)=   0.811261
     celldm(4)=   0.000000  celldm(5)=   0.000000  celldm(6)=   0.000000

     crystal axes: (cart. coord. in units of alat)
               a(1) = (   1.000000   0.000000   0.000000 )  
               a(2) = (  -0.500000   0.866025   0.000000 )  
               a(3) = (   0.000000   0.000000   0.811261 )  

     reciprocal axes: (cart. coord. in units 2 pi/alat)
               b(1) = (  1.000000  0.577350 -0.000000 )  
               b(2) = (  0.000000  1.154701  0.000000 )  
               b(3) = (  0.000000 -0.000000  1.232649 )  


     PseudoPot. # 1 for H  read from file:
     /home/cristian/Escritorio/Proyecto_Grafeno/pseudopotenciales/H.pbe-rrkjus.UPF
     MD5 check sum: 7cc9d459525c9a0585f487a71c3c9563
     Pseudo is Ultrasoft, Zval =  1.0
     Generated by new atomic code, or converted to UPF format
     Using radial grid of 1061 points,  2 beta functions with: 
                l(1) =   0
                l(2) =   0
     Q(r) pseudized with 0 coefficients 


     PseudoPot. # 2 for C  read from file:
     /home/cristian/Escritorio/Proyecto_Grafeno/pseudopotenciales/C.pbe-n-rrkjus_psl.1.0.0.UPF
     MD5 check sum: 1fdd950c42eb37d8afe3dd2f8d12311e
     Pseudo is Ultrasoft + core correction, Zval =  4.0
     Generated using "atomic" code by A. Dal Corso v.6.3MaX
     Using radial grid of 1073 points,  4 beta functions with: 
                l(1) =   0
                l(2) =   0
                l(3) =   1
                l(4) =   1
     Q(r) pseudized with 0 coefficients 


     PseudoPot. # 3 for V  read from file:
     /home/cristian/Escritorio/Proyecto_Grafeno/pseudopotenciales/V.pbe-spnl-rrkjus_psl.1.0.0.UPF
     MD5 check sum: 79b3eb63147daf0b665d9f1bcc691206
     Pseudo is Ultrasoft + core correction, Zval = 13.0
     Generated using "atomic" code by A. Dal Corso v.6.2.2
     Using radial grid of 1181 points,  6 beta functions with: 
                l(1) =   0
                l(2) =   0
                l(3) =   1
                l(4) =   1
                l(5) =   2
                l(6) =   2
     Q(r) pseudized with 0 coefficients 


     vdW kernel table read from file rVV10_kernel_table
     MD5 check sum: b8e2538accc0c0b3206b45ba4daaba6c

     atomic species   valence    mass     pseudopotential
        H              1.00     1.00794     H ( 1.00)
        C              4.00    12.01070     C ( 1.00)
        V             13.00    50.94150     V ( 1.00)

     Starting magnetic structure 
     atomic species   magnetization
        H            0.500
        C            0.300
        V            0.800

     No symmetry found


                                    s                        frac. trans.

      isym =  1     identity                                     

 cryst.   s( 1) = (     1          0          0      )
                  (     0          1          0      )
                  (     0          0          1      )

 cart.    s( 1) = (  1.0000000  0.0000000  0.0000000 )
                  (  0.0000000  1.0000000  0.0000000 )
                  (  0.0000000  0.0000000  1.0000000 )


     point group C_1 (1)    
     there are  1 classes
     the character table:

       E    
A      1.00

     the symmetry operations in each class and the name of the first element:

     E        1
          identity                                               

   Cartesian axes

     site n.     atom                  positions (alat units)
         1           H   tau(   1) = (   0.1694937   0.4618802   0.2433783  )
         2           H   tau(   2) = (   0.2305063   0.4618802   0.2433783  )
         3           C   tau(   3) = (   0.0000000   0.0000000   0.0000000  )
         4           C   tau(   4) = (   0.0000000   0.1154701   0.0000000  )
         5           C   tau(   5) = (  -0.1000000   0.1732051   0.0000000  )
         6           C   tau(   6) = (  -0.1000000   0.2886751   0.0000000  )
         7           C   tau(   7) = (  -0.2000000   0.3464102   0.0000000  )
         8           C   tau(   8) = (  -0.2000000   0.4618802   0.0000000  )
         9           C   tau(   9) = (  -0.3000000   0.5196152   0.0000000  )
        10           C   tau(  10) = (  -0.3000000   0.6350853   0.0000000  )
        11           C   tau(  11) = (  -0.4000000   0.6928203   0.0000000  )
        12           C   tau(  12) = (  -0.4000000   0.8082904   0.0000000  )
        13           C   tau(  13) = (   0.2000000   0.0000000   0.0000000  )
        14           C   tau(  14) = (   0.2000000   0.1154701   0.0000000  )
        15           C   tau(  15) = (   0.1000000   0.1732051   0.0000000  )
        16           C   tau(  16) = (   0.1000000   0.2886751   0.0000000  )
        17           C   tau(  17) = (   0.0000000   0.3464102   0.0000000  )
        18           C   tau(  18) = (   0.0000000   0.4618802   0.0000000  )
        19           C   tau(  19) = (  -0.1000000   0.5196152   0.0000000  )
        20           C   tau(  20) = (  -0.1000000   0.6350853   0.0000000  )
        21           C   tau(  21) = (  -0.2000000   0.6928203   0.0000000  )
        22           C   tau(  22) = (  -0.2000000   0.8082904   0.0000000  )
        23           C   tau(  23) = (   0.4000000   0.0000000   0.0000000  )
        24           C   tau(  24) = (   0.4000000   0.1154701   0.0000000  )
        25           C   tau(  25) = (   0.3000000   0.1732051   0.0000000  )
        26           C   tau(  26) = (   0.3000000   0.2886751   0.0000000  )
        27           C   tau(  27) = (   0.2000000   0.3464102   0.0000000  )
        28           V   tau(  28) = (   0.2000000   0.4618802   0.0000000  )
        29           C   tau(  29) = (   0.1000000   0.5196152   0.0000000  )
        30           C   tau(  30) = (   0.1000000   0.6350853   0.0000000  )
        31           C   tau(  31) = (   0.0000000   0.6928203   0.0000000  )
        32           C   tau(  32) = (   0.0000000   0.8082904   0.0000000  )
        33           C   tau(  33) = (   0.6000000   0.0000000   0.0000000  )
        34           C   tau(  34) = (   0.6000000   0.1154701   0.0000000  )
        35           C   tau(  35) = (   0.5000000   0.1732051   0.0000000  )
        36           C   tau(  36) = (   0.5000000   0.2886751   0.0000000  )
        37           C   tau(  37) = (   0.4000000   0.3464102   0.0000000  )
        38           C   tau(  38) = (   0.4000000   0.4618802   0.0000000  )
        39           C   tau(  39) = (   0.3000000   0.5196152   0.0000000  )
        40           C   tau(  40) = (   0.3000000   0.6350853   0.0000000  )
        41           C   tau(  41) = (   0.2000000   0.6928203   0.0000000  )
        42           C   tau(  42) = (   0.2000000   0.8082904   0.0000000  )
        43           C   tau(  43) = (   0.8000000   0.0000000   0.0000000  )
        44           C   tau(  44) = (   0.8000000   0.1154701   0.0000000  )
        45           C   tau(  45) = (   0.7000000   0.1732051   0.0000000  )
        46           C   tau(  46) = (   0.7000000   0.2886751   0.0000000  )
        47           C   tau(  47) = (   0.6000000   0.3464102   0.0000000  )
        48           C   tau(  48) = (   0.6000000   0.4618802   0.0000000  )
        49           C   tau(  49) = (   0.5000000   0.5196152   0.0000000  )
        50           C   tau(  50) = (   0.5000000   0.6350853   0.0000000  )
        51           C   tau(  51) = (   0.4000000   0.6928203   0.0000000  )
        52           C   tau(  52) = (   0.4000000   0.8082904   0.0000000  )

   Crystallographic axes

     site n.     atom                  positions (cryst. coord.)
         1           H   tau(   1) = (  0.4361603  0.5333333  0.3000000  )
         2           H   tau(   2) = (  0.4971730  0.5333333  0.3000000  )
         3           C   tau(   3) = (  0.0000000  0.0000000  0.0000000  )
         4           C   tau(   4) = (  0.0666667  0.1333333  0.0000000  )
         5           C   tau(   5) = (  0.0000000  0.2000000  0.0000000  )
         6           C   tau(   6) = (  0.0666667  0.3333333  0.0000000  )
         7           C   tau(   7) = (  0.0000000  0.4000000  0.0000000  )
         8           C   tau(   8) = (  0.0666667  0.5333333  0.0000000  )
         9           C   tau(   9) = (  0.0000000  0.6000000  0.0000000  )
        10           C   tau(  10) = (  0.0666667  0.7333333  0.0000000  )
        11           C   tau(  11) = (  0.0000000  0.8000000  0.0000000  )
        12           C   tau(  12) = (  0.0666667  0.9333333  0.0000000  )
        13           C   tau(  13) = (  0.2000000  0.0000000  0.0000000  )
        14           C   tau(  14) = (  0.2666667  0.1333333  0.0000000  )
        15           C   tau(  15) = (  0.2000000  0.2000000  0.0000000  )
        16           C   tau(  16) = (  0.2666667  0.3333333  0.0000000  )
        17           C   tau(  17) = (  0.2000000  0.4000000  0.0000000  )
        18           C   tau(  18) = (  0.2666667  0.5333333  0.0000000  )
        19           C   tau(  19) = (  0.2000000  0.6000000  0.0000000  )
        20           C   tau(  20) = (  0.2666667  0.7333333  0.0000000  )
        21           C   tau(  21) = (  0.2000000  0.8000000  0.0000000  )
        22           C   tau(  22) = (  0.2666667  0.9333333  0.0000000  )
        23           C   tau(  23) = (  0.4000000  0.0000000  0.0000000  )
        24           C   tau(  24) = (  0.4666667  0.1333333  0.0000000  )
        25           C   tau(  25) = (  0.4000000  0.2000000  0.0000000  )
        26           C   tau(  26) = (  0.4666667  0.3333333  0.0000000  )
        27           C   tau(  27) = (  0.4000000  0.4000000  0.0000000  )
        28           V   tau(  28) = (  0.4666667  0.5333333  0.0000000  )
        29           C   tau(  29) = (  0.4000000  0.6000000  0.0000000  )
        30           C   tau(  30) = (  0.4666667  0.7333333  0.0000000  )
        31           C   tau(  31) = (  0.4000000  0.8000000  0.0000000  )
        32           C   tau(  32) = (  0.4666667  0.9333333  0.0000000  )
        33           C   tau(  33) = (  0.6000000  0.0000000  0.0000000  )
        34           C   tau(  34) = (  0.6666667  0.1333333  0.0000000  )
        35           C   tau(  35) = (  0.6000000  0.2000000  0.0000000  )
        36           C   tau(  36) = (  0.6666667  0.3333333  0.0000000  )
        37           C   tau(  37) = (  0.6000000  0.4000000  0.0000000  )
        38           C   tau(  38) = (  0.6666667  0.5333333  0.0000000  )
        39           C   tau(  39) = (  0.6000000  0.6000000  0.0000000  )
        40           C   tau(  40) = (  0.6666667  0.7333333  0.0000000  )
        41           C   tau(  41) = (  0.6000000  0.8000000  0.0000000  )
        42           C   tau(  42) = (  0.6666667  0.9333333  0.0000000  )
        43           C   tau(  43) = (  0.8000000  0.0000000  0.0000000  )
        44           C   tau(  44) = (  0.8666667  0.1333333  0.0000000  )
        45           C   tau(  45) = (  0.8000000  0.2000000  0.0000000  )
        46           C   tau(  46) = (  0.8666667  0.3333333  0.0000000  )
        47           C   tau(  47) = (  0.8000000  0.4000000  0.0000000  )
        48           C   tau(  48) = (  0.8666667  0.5333333  0.0000000  )
        49           C   tau(  49) = (  0.8000000  0.6000000  0.0000000  )
        50           C   tau(  50) = (  0.8666667  0.7333333  0.0000000  )
        51           C   tau(  51) = (  0.8000000  0.8000000  0.0000000  )
        52           C   tau(  52) = (  0.8666667  0.9333333  0.0000000  )

     number of k points=     1  Marzari-Vanderbilt smearing, width (Ry)=  0.0010
                       cart. coord. in units 2pi/alat
        k(    1) = (   0.0000000   0.0000000   0.0000000), wk =   1.0000000

                       cryst. coord.
        k(    1) = (   0.0000000   0.0000000   0.0000000), wk =   1.0000000

     Dense  grid:  1626001 G-vectors     FFT dimensions: ( 180, 180, 135)

     Smooth grid:   702581 G-vectors     FFT dimensions: ( 125, 125, 108)

     Dynamical RAM for                 wfc:      34.04 MB

     Dynamical RAM for     wfc (w. buffer):     102.11 MB

     Dynamical RAM for           str. fact:      14.89 MB

     Dynamical RAM for           local pot:       0.00 MB

     Dynamical RAM for          nlocal pot:     110.95 MB

     Dynamical RAM for                qrad:      19.73 MB

     Dynamical RAM for          rho,v,vnew:      69.82 MB

     Dynamical RAM for               rhoin:      23.27 MB

     Dynamical RAM for            rho*nmix:     158.79 MB

     Dynamical RAM for           G-vectors:      19.68 MB

     Dynamical RAM for          h,s,v(r/c):      11.81 MB

     Dynamical RAM for          <psi|beta>:       0.80 MB

     Dynamical RAM for                 psi:     136.15 MB

     Dynamical RAM for                hpsi:     136.15 MB

     Dynamical RAM for                spsi:     136.15 MB

     Dynamical RAM for      wfcinit/wfcrot:     112.48 MB

     Dynamical RAM for           addusdens:    1171.07 MB

     Estimated static dynamical RAM per process >     579.14 MB

     Estimated max dynamical RAM per process >       1.71 GB

     Estimated total dynamical RAM >       8.55 GB
     Generating pointlists ...
     new r_m :   0.0252 (alat units)  0.5862 (a.u.) for type    1
     new r_m :   0.0476 (alat units)  1.1095 (a.u.) for type    2
     new r_m :   0.0476 (alat units)  1.1095 (a.u.) for type    3

     Check: negative core charge=   -0.000002

     Initial potential from superposition of free atoms

     starting charge  210.80465, renormalised to  211.00000

     negative rho (up, down):  1.127E-04 1.451E-02


---------------------------------------------------------------------------------
Carrying out rVV10 run using the following parameters:
Nqs =      20    Nr_points =    1024   r_max =   100.000
b_value =  6.30000    beta =  0.00901
     q_mesh =  0.00010000  0.00030000  0.00058939  0.00100810
               0.00161396  0.00249058  0.00375900  0.00559430
               0.00824984  0.01209221  0.01765183  0.02569619
               0.03733578  0.05417739  0.07854596  0.11380545
               0.16482331  0.23864234  0.34545298  0.50000000

Gradients computed in Reciprocal space

---------------------------------------------------------------------------------


     Starting wfcs are  208 randomized atomic wfcs

     total cpu time spent up to now is       89.8 secs

     Self-consistent Calculation

     iteration #  1     ecut=    70.00 Ry     beta= 0.70
     Davidson diagonalization with overlap
     ethr =  1.00E-02,  avg # of iterations =  4.5

     negative rho (up, down):  2.280E-04 1.221E-02

     total cpu time spent up to now is      238.7 secs

     total energy              =    -753.12401966 Ry
     Harris-Foulkes estimate   =    -756.92828895 Ry
     estimated scf accuracy    <      11.62603907 Ry

     total magnetization       =     5.00 Bohr mag/cell
     absolute magnetization    =     6.01 Bohr mag/cell

     iteration #  2     ecut=    70.00 Ry     beta= 0.70
     Davidson diagonalization with overlap
     ethr =  5.51E-03,  avg # of iterations =  7.5

     negative rho (up, down):  3.246E-03 1.814E-01

     total cpu time spent up to now is      374.7 secs

     total energy              =    -746.82998381 Ry
     Harris-Foulkes estimate   =    -767.42315565 Ry
     estimated scf accuracy    <      71.08259599 Ry

     total magnetization       =     3.00 Bohr mag/cell
     absolute magnetization    =     3.35 Bohr mag/cell

     iteration #  3     ecut=    70.00 Ry     beta= 0.70
     Davidson diagonalization with overlap
     ethr =  5.51E-03,  avg # of iterations =  5.0

     negative rho (up, down):  1.079E-03 1.871E-02

     total cpu time spent up to now is      562.0 secs

     total energy              =    -755.75950270 Ry
     Harris-Foulkes estimate   =    -758.12689233 Ry
     estimated scf accuracy    <      11.04145480 Ry

     total magnetization       =     5.00 Bohr mag/cell
     absolute magnetization    =     5.82 Bohr mag/cell

     iteration #  4     ecut=    70.00 Ry     beta= 0.70
     Davidson diagonalization with overlap
     ethr =  5.23E-03,  avg # of iterations =  3.0

     negative rho (up, down):  4.209E-02 2.039E-02

     total cpu time spent up to now is      670.6 secs

     total energy              =    -757.11349485 Ry
     Harris-Foulkes estimate   =    -757.45830708 Ry
     estimated scf accuracy    <       1.07620771 Ry

     total magnetization       =     1.00 Bohr mag/cell
     absolute magnetization    =     1.71 Bohr mag/cell

     iteration #  5     ecut=    70.00 Ry     beta= 0.70
     Davidson diagonalization with overlap
     ethr =  5.10E-04,  avg # of iterations =  8.5

     negative rho (up, down):  2.184E-02 2.239E-02

     total cpu time spent up to now is      800.8 secs

     total energy              =    -757.30057471 Ry
     Harris-Foulkes estimate   =    -757.28758977 Ry
     estimated scf accuracy    <       0.09569612 Ry

     total magnetization       =     1.00 Bohr mag/cell
     absolute magnetization    =     1.48 Bohr mag/cell

     iteration #  6     ecut=    70.00 Ry     beta= 0.70
     Davidson diagonalization with overlap
     ethr =  4.54E-05,  avg # of iterations =  6.0

     negative rho (up, down):  3.969E-02 1.066E-02

     total cpu time spent up to now is      936.6 secs

     total energy              =    -757.29663330 Ry
     Harris-Foulkes estimate   =    -757.33510392 Ry
     estimated scf accuracy    <       0.10460780 Ry

     total magnetization       =     1.00 Bohr mag/cell
     absolute magnetization    =     1.41 Bohr mag/cell

     iteration #  7     ecut=    70.00 Ry     beta= 0.70
     Davidson diagonalization with overlap
     ethr =  4.54E-05,  avg # of iterations =  3.5

     negative rho (up, down):  3.357E-02 1.612E-02

     total cpu time spent up to now is     1062.9 secs

     total energy              =    -757.31719410 Ry
     Harris-Foulkes estimate   =    -757.33770403 Ry
     estimated scf accuracy    <       0.09236722 Ry

     total magnetization       =     1.00 Bohr mag/cell
     absolute magnetization    =     1.38 Bohr mag/cell

     iteration #  8     ecut=    70.00 Ry     beta= 0.70
     Davidson diagonalization with overlap
     ethr =  4.38E-05,  avg # of iterations =  3.0

     negative rho (up, down):  3.129E-02 2.726E-02

     total cpu time spent up to now is     1175.7 secs

     total energy              =    -757.32768856 Ry
     Harris-Foulkes estimate   =    -757.33856213 Ry
     estimated scf accuracy    <       0.05617297 Ry

     total magnetization       =     1.00 Bohr mag/cell
     absolute magnetization    =     1.39 Bohr mag/cell

     iteration #  9     ecut=    70.00 Ry     beta= 0.70
     Davidson diagonalization with overlap
     ethr =  2.66E-05,  avg # of iterations =  7.0

     negative rho (up, down):  3.430E-02 2.064E-02

     total cpu time spent up to now is     1288.1 secs

     total energy              =    -757.33384971 Ry
     Harris-Foulkes estimate   =    -757.33466521 Ry
     estimated scf accuracy    <       0.00805188 Ry

     total magnetization       =     1.00 Bohr mag/cell
     absolute magnetization    =     1.40 Bohr mag/cell

     iteration # 10     ecut=    70.00 Ry     beta= 0.70
     Davidson diagonalization with overlap
     ethr =  3.82E-06,  avg # of iterations =  4.0

     negative rho (up, down):  3.391E-02 2.089E-02

     total cpu time spent up to now is     1397.1 secs

     total energy              =    -757.33501721 Ry
     Harris-Foulkes estimate   =    -757.33461090 Ry
     estimated scf accuracy    <       0.00124377 Ry

     total magnetization       =     1.00 Bohr mag/cell
     absolute magnetization    =     1.42 Bohr mag/cell

     iteration # 11     ecut=    70.00 Ry     beta= 0.70
     Davidson diagonalization with overlap
     ethr =  5.89E-07,  avg # of iterations =  4.0

     negative rho (up, down):  3.453E-02 1.796E-02

     total cpu time spent up to now is     1513.3 secs

     total energy              =    -757.33504189 Ry
     Harris-Foulkes estimate   =    -757.33530324 Ry
     estimated scf accuracy    <       0.00156638 Ry

     total magnetization       =     1.00 Bohr mag/cell
     absolute magnetization    =     1.44 Bohr mag/cell

     iteration # 12     ecut=    70.00 Ry     beta= 0.70
     Davidson diagonalization with overlap
     ethr =  5.89E-07,  avg # of iterations =  2.0

     negative rho (up, down):  3.347E-02 3.478E-03

     total cpu time spent up to now is     1619.7 secs

     total energy              =    -757.33601767 Ry
     Harris-Foulkes estimate   =    -757.33549591 Ry
     estimated scf accuracy    <       0.00697544 Ry

     total magnetization       =     1.00 Bohr mag/cell
     absolute magnetization    =     1.46 Bohr mag/cell

     iteration # 13     ecut=    70.00 Ry     beta= 0.70
     Davidson diagonalization with overlap
     ethr =  5.89E-07,  avg # of iterations =  3.0

     negative rho (up, down):  3.372E-02 6.146E-03

     total cpu time spent up to now is     1729.2 secs

     total energy              =    -757.33621395 Ry
     Harris-Foulkes estimate   =    -757.33627795 Ry
     estimated scf accuracy    <       0.00010743 Ry

     total magnetization       =     1.00 Bohr mag/cell
     absolute magnetization    =     1.47 Bohr mag/cell

     iteration # 14     ecut=    70.00 Ry     beta= 0.70
     Davidson diagonalization with overlap
     ethr =  5.09E-08,  avg # of iterations =  3.0

     negative rho (up, down):  3.399E-02 3.499E-03

     total cpu time spent up to now is     1849.7 secs

     total energy              =    -757.33627790 Ry
     Harris-Foulkes estimate   =    -757.33624945 Ry
     estimated scf accuracy    <       0.00004444 Ry

     total magnetization       =     1.00 Bohr mag/cell
     absolute magnetization    =     1.48 Bohr mag/cell

     iteration # 15     ecut=    70.00 Ry     beta= 0.70
     Davidson diagonalization with overlap
     ethr =  2.11E-08,  avg # of iterations =  3.0

     negative rho (up, down):  3.402E-02 2.258E-03

     total cpu time spent up to now is     1966.1 secs

     total energy              =    -757.33629111 Ry
     Harris-Foulkes estimate   =    -757.33628872 Ry
     estimated scf accuracy    <       0.00000880 Ry

     total magnetization       =     1.00 Bohr mag/cell
     absolute magnetization    =     1.49 Bohr mag/cell

     iteration # 16     ecut=    70.00 Ry     beta= 0.70
     Davidson diagonalization with overlap
     ethr =  4.17E-09,  avg # of iterations =  2.5

     negative rho (up, down):  3.403E-02 1.888E-03

     total cpu time spent up to now is     2080.9 secs

     total energy              =    -757.33629290 Ry
     Harris-Foulkes estimate   =    -757.33629310 Ry
     estimated scf accuracy    <       0.00000600 Ry

     total magnetization       =     1.00 Bohr mag/cell
     absolute magnetization    =     1.50 Bohr mag/cell

     iteration # 17     ecut=    70.00 Ry     beta= 0.70
     Davidson diagonalization with overlap
     ethr =  2.84E-09,  avg # of iterations =  3.5

     negative rho (up, down):  3.408E-02 2.434E-03

     total cpu time spent up to now is     2187.5 secs

     total energy              =    -757.33629358 Ry
     Harris-Foulkes estimate   =    -757.33629401 Ry
     estimated scf accuracy    <       0.00000640 Ry

     total magnetization       =     1.00 Bohr mag/cell
     absolute magnetization    =     1.51 Bohr mag/cell

     iteration # 18     ecut=    70.00 Ry     beta= 0.70
     Davidson diagonalization with overlap
     ethr =  2.84E-09,  avg # of iterations =  3.0

     negative rho (up, down):  3.410E-02 2.512E-03

     total cpu time spent up to now is     2292.8 secs

     total energy              =    -757.33629387 Ry
     Harris-Foulkes estimate   =    -757.33629462 Ry
     estimated scf accuracy    <       0.00001171 Ry

     total magnetization       =     1.00 Bohr mag/cell
     absolute magnetization    =     1.51 Bohr mag/cell

     iteration # 19     ecut=    70.00 Ry     beta= 0.70
     Davidson diagonalization with overlap
     ethr =  2.84E-09,  avg # of iterations =  2.5

     negative rho (up, down):  3.409E-02 2.242E-03

     total cpu time spent up to now is     2400.3 secs

     total energy              =    -757.33629445 Ry
     Harris-Foulkes estimate   =    -757.33629435 Ry
     estimated scf accuracy    <       0.00000308 Ry

     total magnetization       =     1.00 Bohr mag/cell
     absolute magnetization    =     1.52 Bohr mag/cell

     iteration # 20     ecut=    70.00 Ry     beta= 0.70
     Davidson diagonalization with overlap
     ethr =  1.46E-09,  avg # of iterations =  2.5

     negative rho (up, down):  3.409E-02 2.016E-03

     total cpu time spent up to now is     2507.9 secs

     total energy              =    -757.33629526 Ry
     Harris-Foulkes estimate   =    -757.33629482 Ry
     estimated scf accuracy    <       0.00000658 Ry

     total magnetization       =     1.00 Bohr mag/cell
     absolute magnetization    =     1.52 Bohr mag/cell

     iteration # 21     ecut=    70.00 Ry     beta= 0.70
     Davidson diagonalization with overlap
     ethr =  1.46E-09,  avg # of iterations =  2.0

     negative rho (up, down):  3.406E-02 1.896E-03

     total cpu time spent up to now is     2615.1 secs

     total energy              =    -757.33629576 Ry
     Harris-Foulkes estimate   =    -757.33629547 Ry
     estimated scf accuracy    <       0.00000393 Ry

     total magnetization       =     1.00 Bohr mag/cell
     absolute magnetization    =     1.53 Bohr mag/cell

     iteration # 22     ecut=    70.00 Ry     beta= 0.70
     Davidson diagonalization with overlap
     ethr =  1.46E-09,  avg # of iterations =  3.0

     negative rho (up, down):  3.407E-02 1.782E-03

     total cpu time spent up to now is     2726.8 secs

     total energy              =    -757.33629609 Ry
     Harris-Foulkes estimate   =    -757.33629634 Ry
     estimated scf accuracy    <       0.00000315 Ry

     total magnetization       =     1.00 Bohr mag/cell
     absolute magnetization    =     1.53 Bohr mag/cell

     iteration # 23     ecut=    70.00 Ry     beta= 0.70
     Davidson diagonalization with overlap
     ethr =  1.46E-09,  avg # of iterations =  1.0

     negative rho (up, down):  3.407E-02 1.829E-03

     total cpu time spent up to now is     2832.5 secs

     total energy              =    -757.33629630 Ry
     Harris-Foulkes estimate   =    -757.33629632 Ry
     estimated scf accuracy    <       0.00000202 Ry

     total magnetization       =     1.00 Bohr mag/cell
     absolute magnetization    =     1.53 Bohr mag/cell

     iteration # 24     ecut=    70.00 Ry     beta= 0.70
     Davidson diagonalization with overlap
     ethr =  9.55E-10,  avg # of iterations =  1.0

     negative rho (up, down):  3.407E-02 1.822E-03

     total cpu time spent up to now is     2939.7 secs

     total energy              =    -757.33629635 Ry
     Harris-Foulkes estimate   =    -757.33629637 Ry
     estimated scf accuracy    <       0.00000267 Ry

     total magnetization       =     1.00 Bohr mag/cell
     absolute magnetization    =     1.53 Bohr mag/cell

     iteration # 25     ecut=    70.00 Ry     beta= 0.70
     Davidson diagonalization with overlap
     ethr =  9.55E-10,  avg # of iterations =  1.0

     negative rho (up, down):  3.407E-02 1.835E-03

     total cpu time spent up to now is     3048.1 secs

     total energy              =    -757.33629637 Ry
     Harris-Foulkes estimate   =    -757.33629636 Ry
     estimated scf accuracy    <       0.00000247 Ry

     total magnetization       =     1.00 Bohr mag/cell
     absolute magnetization    =     1.53 Bohr mag/cell

     iteration # 26     ecut=    70.00 Ry     beta= 0.70
     Davidson diagonalization with overlap
     ethr =  9.55E-10,  avg # of iterations =  1.0

     negative rho (up, down):  3.407E-02 1.829E-03

     total cpu time spent up to now is     3151.6 secs

     total energy              =    -757.33629625 Ry
     Harris-Foulkes estimate   =    -757.33629638 Ry
     estimated scf accuracy    <       0.00000231 Ry

     total magnetization       =     1.00 Bohr mag/cell
     absolute magnetization    =     1.53 Bohr mag/cell

     iteration # 27     ecut=    70.00 Ry     beta= 0.70
     Davidson diagonalization with overlap
     ethr =  9.55E-10,  avg # of iterations =  1.0

     negative rho (up, down):  3.406E-02 1.837E-03

     total cpu time spent up to now is     3255.8 secs

     total energy              =    -757.33629626 Ry
     Harris-Foulkes estimate   =    -757.33629635 Ry
     estimated scf accuracy    <       0.00000164 Ry

     total magnetization       =     1.00 Bohr mag/cell
     absolute magnetization    =     1.54 Bohr mag/cell

     iteration # 28     ecut=    70.00 Ry     beta= 0.70
     Davidson diagonalization with overlap
     ethr =  7.77E-10,  avg # of iterations =  2.0

     negative rho (up, down):  3.406E-02 1.817E-03

     Magnetic moment per site:
     atom:    1    charge:    0.2098    magn:   -0.0000    constr:    0.0000
     atom:    2    charge:    0.2098    magn:   -0.0000    constr:    0.0000
     atom:    3    charge:    1.7176    magn:   -0.0069    constr:    0.0000
     atom:    4    charge:    1.7157    magn:    0.0096    constr:    0.0000
     atom:    5    charge:    1.7183    magn:   -0.0042    constr:    0.0000
     atom:    6    charge:    1.7141    magn:    0.0026    constr:    0.0000
     atom:    7    charge:    1.7183    magn:   -0.0041    constr:    0.0000
     atom:    8    charge:    1.7157    magn:    0.0091    constr:    0.0000
     atom:    9    charge:    1.7177    magn:   -0.0067    constr:    0.0000
     atom:   10    charge:    1.7142    magn:    0.0298    constr:    0.0000
     atom:   11    charge:    1.7186    magn:   -0.0089    constr:    0.0000
     atom:   12    charge:    1.7146    magn:    0.0317    constr:    0.0000
     atom:   13    charge:    1.7186    magn:   -0.0089    constr:    0.0000
     atom:   14    charge:    1.7144    magn:    0.0223    constr:    0.0000
     atom:   15    charge:    1.7169    magn:   -0.0078    constr:    0.0000
     atom:   16    charge:    1.7109    magn:    0.0292    constr:    0.0000
     atom:   17    charge:    1.7271    magn:   -0.0051    constr:    0.0000
     atom:   18    charge:    1.7110    magn:    0.0296    constr:    0.0000
     atom:   19    charge:    1.7169    magn:   -0.0079    constr:    0.0000
     atom:   20    charge:    1.7146    magn:    0.0237    constr:    0.0000
     atom:   21    charge:    1.7186    magn:   -0.0089    constr:    0.0000
     atom:   22    charge:    1.7146    magn:    0.0312    constr:    0.0000
     atom:   23    charge:    1.7177    magn:   -0.0068    constr:    0.0000
     atom:   24    charge:    1.7157    magn:    0.0094    constr:    0.0000
     atom:   25    charge:    1.7169    magn:   -0.0077    constr:    0.0000
     atom:   26    charge:    1.7109    magn:    0.0286    constr:    0.0000
     atom:   27    charge:    1.9149    magn:   -0.0005    constr:    0.0000
     atom:   28    charge:    7.8605    magn:    0.1019    constr:    0.0000
     atom:   29    charge:    1.9149    magn:   -0.0002    constr:    0.0000
     atom:   30    charge:    1.7112    magn:    0.0309    constr:    0.0000
     atom:   31    charge:    1.7169    magn:   -0.0080    constr:    0.0000
     atom:   32    charge:    1.7157    magn:    0.0094    constr:    0.0000
     atom:   33    charge:    1.7183    magn:   -0.0042    constr:    0.0000
     atom:   34    charge:    1.7138    magn:    0.0068    constr:    0.0000
     atom:   35    charge:    1.7183    magn:   -0.0041    constr:    0.0000
     atom:   36    charge:    1.7141    magn:    0.0026    constr:    0.0000
     atom:   37    charge:    1.7271    magn:   -0.0050    constr:    0.0000
     atom:   38    charge:    1.7110    magn:    0.0289    constr:    0.0000
     atom:   39    charge:    1.9149    magn:   -0.0003    constr:    0.0000
     atom:   40    charge:    1.7112    magn:    0.0308    constr:    0.0000
     atom:   41    charge:    1.7269    magn:   -0.0054    constr:    0.0000
     atom:   42    charge:    1.7141    magn:    0.0026    constr:    0.0000
     atom:   43    charge:    1.7183    magn:   -0.0042    constr:    0.0000
     atom:   44    charge:    1.7138    magn:    0.0069    constr:    0.0000
     atom:   45    charge:    1.7246    magn:   -0.0030    constr:    0.0000
     atom:   46    charge:    1.7138    magn:    0.0066    constr:    0.0000
     atom:   47    charge:    1.7183    magn:   -0.0041    constr:    0.0000
     atom:   48    charge:    1.7157    magn:    0.0091    constr:    0.0000
     atom:   49    charge:    1.7170    magn:   -0.0077    constr:    0.0000
     atom:   50    charge:    1.7146    magn:    0.0233    constr:    0.0000
     atom:   51    charge:    1.7169    magn:   -0.0080    constr:    0.0000
     atom:   52    charge:    1.7157    magn:    0.0095    constr:    0.0000

     total cpu time spent up to now is     3363.7 secs

     End of self-consistent calculation

 ------ SPIN UP ------------


          k = 0.0000 0.0000 0.0000 ( 87777 PWs)   bands (ev):

   -62.8247 -37.9105 -37.9081 -36.5886 -19.6231 -18.7815 -18.7788 -18.7106
   -18.6657 -18.6635 -18.2274 -16.9253 -16.9244 -16.9240 -16.7874 -16.7866
   -16.5047 -16.0712 -16.0710 -15.9774 -15.8218 -15.8210 -15.0697 -13.8828
   -13.8765 -13.8749 -13.8507 -13.8504 -13.1211 -12.9057 -12.9055 -12.8879
   -12.4935 -12.4933 -12.1010 -11.6334 -11.6330 -11.5090 -11.1272 -11.1269
   -10.1386  -9.3251  -9.3242  -9.2444  -9.1705  -9.1703  -9.0809  -9.0564
    -9.0562  -9.0403  -8.4516  -8.4514  -7.8822  -7.8815  -7.8481  -7.8044
    -7.6647  -7.3112  -7.2426  -7.2415  -6.9519  -6.9488  -6.8830  -6.6891
    -6.6882  -6.6880  -6.5791  -6.5785  -6.5322  -6.4238  -6.4221  -6.3786
    -6.3746  -6.3742  -6.3218  -6.2621  -5.2480  -5.2474  -5.1444  -5.1410
    -4.9334  -4.9331  -4.8223  -4.7346  -4.6094  -4.5979  -4.5975  -4.2271
    -3.9737  -3.9737  -3.7488  -3.7486  -3.6483  -3.6104  -3.4868  -3.4865
    -2.8733  -2.2480  -2.2464  -2.2053  -2.2040  -1.7366  -1.6714  -1.6705
    -0.5133  -0.2265  -0.2258   1.0605   1.0704   1.0906   1.0920   1.8182
     2.0623   2.0627   2.5508   2.9039   2.9074   2.9867   3.1801   3.4723
     3.6612   3.7440   3.7457   3.7890   3.9711   4.0084   4.0128

     occupation numbers 
     1.0000   1.0000   1.0000   1.0000   1.0000   1.0000   1.0000   1.0000
     1.0000   1.0000   1.0000   1.0000   1.0000   1.0000   1.0000   1.0000
     1.0000   1.0000   1.0000   1.0000   1.0000   1.0000   1.0000   1.0000
     1.0000   1.0000   1.0000   1.0000   1.0000   1.0000   1.0000   1.0000
     1.0000   1.0000   1.0000   1.0000   1.0000   1.0000   1.0000   1.0000
     1.0000   1.0000   1.0000   1.0000   1.0000   1.0000   1.0000   1.0000
     1.0000   1.0000   1.0000   1.0000   1.0000   1.0000   1.0000   1.0000
     1.0000   1.0000   1.0000   1.0000   1.0000   1.0000   1.0000   1.0000
     1.0000   1.0000   1.0000   1.0000   1.0000   1.0000   1.0000   1.0000
     1.0000   1.0000   1.0000   1.0000   1.0000   1.0000   1.0000   1.0000
     1.0000   1.0000   1.0000   1.0000   1.0000   1.0000   1.0000   1.0000
     1.0000   1.0000   1.0000   1.0000   1.0000   1.0000   1.0000   1.0000
     1.0000   1.0000   1.0000   1.0000   1.0000   1.0000   1.0000   1.0000
     1.0000   0.5199   0.4801   0.0000   0.0000   0.0000   0.0000   0.0000
     0.0000   0.0000   0.0000   0.0000   0.0000   0.0000   0.0000   0.0000
     0.0000   0.0000   0.0000   0.0000   0.0000   0.0000   0.0000

 ------ SPIN DOWN ----------


          k = 0.0000 0.0000 0.0000 ( 87777 PWs)   bands (ev):

   -62.6278 -37.7515 -37.7424 -36.3194 -19.6013 -18.7603 -18.7567 -18.6903
   -18.6492 -18.6466 -18.1954 -16.9091 -16.9057 -16.9049 -16.7593 -16.7580
   -16.4905 -16.0443 -16.0436 -15.9615 -15.8007 -15.8000 -15.0550 -13.8475
   -13.8468 -13.8458 -13.8363 -13.8330 -13.1242 -12.8952 -12.8948 -12.8723
   -12.4853 -12.4851 -12.0827 -11.6154 -11.6152 -11.4957 -11.1147 -11.1144
   -10.1240  -9.3082  -9.3071  -9.2315  -9.1532  -9.1527  -9.0728  -9.0422
    -9.0421  -9.0311  -8.4450  -8.4446  -7.8708  -7.8699  -7.8409  -7.7531
    -7.6563  -7.3074  -7.2338  -7.2327  -6.8737  -6.8717  -6.8626  -6.6566
    -6.6554  -6.6373  -6.5677  -6.5672  -6.5226  -6.4144  -6.4125  -6.3729
    -6.3679  -6.3676  -6.3136  -6.1854  -5.2398  -5.2390  -5.0584  -5.0569
    -4.9235  -4.9232  -4.8166  -4.7286  -4.5675  -4.5469  -4.5462  -4.1894
    -3.9231  -3.9214  -3.6745  -3.6741  -3.6020  -3.5803  -3.4803  -3.4798
    -2.8394  -2.1798  -2.1791  -2.1398  -2.1376  -1.6557  -1.6550  -1.6421
    -0.5081  -0.0037   0.0052   1.1117   1.1131   1.1379   1.1490   1.8889
     2.1319   2.1342   2.5571   2.9741   2.9786   3.0283   3.1881   3.4791
     3.7001   3.7460   3.7481   3.7964   3.9904   4.0797   4.0833

     occupation numbers 
     1.0000   1.0000   1.0000   1.0000   1.0000   1.0000   1.0000   1.0000
     1.0000   1.0000   1.0000   1.0000   1.0000   1.0000   1.0000   1.0000
     1.0000   1.0000   1.0000   1.0000   1.0000   1.0000   1.0000   1.0000
     1.0000   1.0000   1.0000   1.0000   1.0000   1.0000   1.0000   1.0000
     1.0000   1.0000   1.0000   1.0000   1.0000   1.0000   1.0000   1.0000
     1.0000   1.0000   1.0000   1.0000   1.0000   1.0000   1.0000   1.0000
     1.0000   1.0000   1.0000   1.0000   1.0000   1.0000   1.0000   1.0000
     1.0000   1.0000   1.0000   1.0000   1.0000   1.0000   1.0000   1.0000
     1.0000   1.0000   1.0000   1.0000   1.0000   1.0000   1.0000   1.0000
     1.0000   1.0000   1.0000   1.0000   1.0000   1.0000   1.0000   1.0000
     1.0000   1.0000   1.0000   1.0000   1.0000   1.0000   1.0000   1.0000
     1.0000   1.0000   1.0000   1.0000   1.0000   1.0000   1.0000   1.0000
     1.0000   1.0000   1.0000   1.0000   1.0000   1.0000   1.0000   1.0000
     1.0000   0.0000   0.0000   0.0000   0.0000   0.0000   0.0000   0.0000
     0.0000   0.0000   0.0000   0.0000   0.0000   0.0000   0.0000   0.0000
     0.0000   0.0000   0.0000   0.0000   0.0000   0.0000   0.0000

     the Fermi energy is    -0.2243 ev

!    total energy              =    -757.33629622 Ry
     Harris-Foulkes estimate   =    -757.33629635 Ry
     estimated scf accuracy    <       0.00000028 Ry

     The total energy is the sum of the following terms:

     one-electron contribution =   -2586.33996967 Ry
     hartree contribution      =    1340.07267698 Ry
     xc contribution           =    -252.67169066 Ry
     ewald contribution        =     741.60301478 Ry
     smearing contrib. (-TS)   =      -0.00032765 Ry

     total magnetization       =     1.00 Bohr mag/cell
     absolute magnetization    =     1.54 Bohr mag/cell

     convergence has been achieved in  28 iterations

     Writing output data file vanadio-top-distance-3.0.save/

     init_run     :     86.59s CPU     88.24s WALL (       1 calls)
     electrons    :   3216.93s CPU   3274.09s WALL (       1 calls)

     Called by init_run:
     wfcinit      :     54.51s CPU     54.84s WALL (       1 calls)
     wfcinit:atom :      0.07s CPU      0.11s WALL (       2 calls)
     wfcinit:wfcr :     53.94s CPU     54.16s WALL (       2 calls)
     potinit      :     13.82s CPU     14.38s WALL (       1 calls)
     hinit0       :      6.94s CPU      6.98s WALL (       1 calls)

     Called by electrons:
     c_bands      :   2054.37s CPU   2065.62s WALL (      28 calls)
     sum_band     :    679.05s CPU    696.94s WALL (      28 calls)
     v_of_rho     :    242.44s CPU    254.40s WALL (      29 calls)
     v_h          :      2.51s CPU      2.57s WALL (      29 calls)
     v_xc         :    239.93s CPU    251.83s WALL (      29 calls)
     newd         :    238.77s CPU    255.51s WALL (      29 calls)
     mix_rho      :     14.30s CPU     14.52s WALL (      28 calls)

     Called by c_bands:
     init_us_2    :      5.92s CPU      5.98s WALL (     114 calls)
     cegterg      :   2039.94s CPU   2051.14s WALL (      56 calls)

     Called by sum_band:
     sum_band:bec :      0.05s CPU      0.05s WALL (      56 calls)
     addusdens    :    425.79s CPU    442.19s WALL (      28 calls)

     Called by *egterg:
     h_psi        :   1104.49s CPU   1112.73s WALL (     244 calls)
     s_psi        :    360.11s CPU    360.32s WALL (     244 calls)
     g_psi        :      1.24s CPU      1.24s WALL (     186 calls)
     cdiaghg      :     17.80s CPU     17.81s WALL (     242 calls)
     cegterg:over :    244.93s CPU    245.07s WALL (     186 calls)
     cegterg:upda :    151.63s CPU    152.39s WALL (     186 calls)
     cegterg:last :    103.83s CPU    103.86s WALL (      56 calls)

     Called by h_psi:
     h_psi:pot    :   1103.35s CPU   1110.13s WALL (     244 calls)
     h_psi:calbec :    361.05s CPU    361.22s WALL (     244 calls)
     vloc_psi     :    381.82s CPU    388.31s WALL (     244 calls)
     add_vuspsi   :    360.48s CPU    360.59s WALL (     244 calls)

     General routines
     calbec       :    512.78s CPU    513.01s WALL (     300 calls)
     fft          :    133.13s CPU    137.79s WALL (    2169 calls)
     ffts         :      2.49s CPU      2.59s WALL (     114 calls)
     fftw         :    401.92s CPU    408.57s WALL (   40572 calls)
     interpolate  :      5.61s CPU      5.81s WALL (      58 calls)

     Parallel routines
     fft_scatt_xy :    110.70s CPU    111.80s WALL (   42855 calls)
     fft_scatt_yz :    140.64s CPU    148.36s WALL (   42855 calls)

     PWSCF        :  55m 5.23s CPU  56m 4.43s WALL


   This run was terminated on:  20:23:31  31Aug2022            

=------------------------------------------------------------------------------=
   JOB DONE.
=------------------------------------------------------------------------------=
