
     Program PWSCF v.6.4.1 starts on 31Aug2022 at 23:30: 5 

     This program is part of the open-source Quantum ESPRESSO suite
     for quantum simulation of materials; please cite
         "P. Giannozzi et al., J. Phys.:Condens. Matter 21 395502 (2009);
         "P. Giannozzi et al., J. Phys.:Condens. Matter 29 465901 (2017);
          URL http://www.quantum-espresso.org", 
     in publications or presentations arising from this work. More details at
     http://www.quantum-espresso.org/quote

     Parallel version (MPI), running on     5 processors

     MPI processes distributed on     1 nodes
     R & G space division:  proc/nbgrp/npool/nimage =       5
     Reading input from distance-2.2.in

     Current dimensions of program PWSCF are:
     Max number of different atomic species (ntypx) = 10
     Max number of k-points (npk) =  40000
     Max angular momentum in pseudopotentials (lmaxx) =  3

     IMPORTANT: XC functional enforced from input :
     Exchange-correlation      = RVV10 ( 1  4 13  4 3 0)
     Any further DFT definition will be discarded
     Please, verify this is what you really want

               file H.pbe-rrkjus.UPF: wavefunction(s)  1S renormalized
               file V.pbe-spnl-rrkjus_psl.1.0.0.UPF: wavefunction(s)  3P 3D renormalized

     Subspace diagonalization in iterative solution of the eigenvalue problem:
     a serial algorithm will be used


     Parallelization info
     --------------------
     sticks:   dense  smooth     PW     G-vecs:    dense   smooth      PW
     Min        3662    2095    520               325198   140515   17555
     Max        3663    2096    525               325201   140518   17556
     Sum       18313   10477   2611              1626001   702581   87777



     bravais-lattice index     =            4
     lattice parameter (alat)  =      23.2937  a.u.
     unit-cell volume          =    8879.8548 (a.u.)^3
     number of atoms/cell      =           52
     number of atomic types    =            3
     number of electrons       =       211.00
     number of Kohn-Sham states=          127
     kinetic-energy cutoff     =      70.0000  Ry
     charge density cutoff     =     490.0000  Ry
     convergence threshold     =      1.0E-06
     mixing beta               =       0.7000
     number of iterations used =            8  plain     mixing
     Exchange-correlation      = RVV10 ( 1  4 13  4 3 0)

     celldm(1)=  23.293684  celldm(2)=   0.000000  celldm(3)=   0.811261
     celldm(4)=   0.000000  celldm(5)=   0.000000  celldm(6)=   0.000000

     crystal axes: (cart. coord. in units of alat)
               a(1) = (   1.000000   0.000000   0.000000 )  
               a(2) = (  -0.500000   0.866025   0.000000 )  
               a(3) = (   0.000000   0.000000   0.811261 )  

     reciprocal axes: (cart. coord. in units 2 pi/alat)
               b(1) = (  1.000000  0.577350 -0.000000 )  
               b(2) = (  0.000000  1.154701  0.000000 )  
               b(3) = (  0.000000 -0.000000  1.232649 )  


     PseudoPot. # 1 for H  read from file:
     /home/cristian/Escritorio/Proyecto_Grafeno/pseudopotenciales/H.pbe-rrkjus.UPF
     MD5 check sum: 7cc9d459525c9a0585f487a71c3c9563
     Pseudo is Ultrasoft, Zval =  1.0
     Generated by new atomic code, or converted to UPF format
     Using radial grid of 1061 points,  2 beta functions with: 
                l(1) =   0
                l(2) =   0
     Q(r) pseudized with 0 coefficients 


     PseudoPot. # 2 for C  read from file:
     /home/cristian/Escritorio/Proyecto_Grafeno/pseudopotenciales/C.pbe-n-rrkjus_psl.1.0.0.UPF
     MD5 check sum: 1fdd950c42eb37d8afe3dd2f8d12311e
     Pseudo is Ultrasoft + core correction, Zval =  4.0
     Generated using "atomic" code by A. Dal Corso v.6.3MaX
     Using radial grid of 1073 points,  4 beta functions with: 
                l(1) =   0
                l(2) =   0
                l(3) =   1
                l(4) =   1
     Q(r) pseudized with 0 coefficients 


     PseudoPot. # 3 for V  read from file:
     /home/cristian/Escritorio/Proyecto_Grafeno/pseudopotenciales/V.pbe-spnl-rrkjus_psl.1.0.0.UPF
     MD5 check sum: 79b3eb63147daf0b665d9f1bcc691206
     Pseudo is Ultrasoft + core correction, Zval = 13.0
     Generated using "atomic" code by A. Dal Corso v.6.2.2
     Using radial grid of 1181 points,  6 beta functions with: 
                l(1) =   0
                l(2) =   0
                l(3) =   1
                l(4) =   1
                l(5) =   2
                l(6) =   2
     Q(r) pseudized with 0 coefficients 


     vdW kernel table read from file rVV10_kernel_table
     MD5 check sum: b8e2538accc0c0b3206b45ba4daaba6c

     atomic species   valence    mass     pseudopotential
        H              1.00     1.00794     H ( 1.00)
        C              4.00    12.01070     C ( 1.00)
        V             13.00    50.94150     V ( 1.00)

     Starting magnetic structure 
     atomic species   magnetization
        H            0.500
        C            0.300
        V            0.800

     No symmetry found


                                    s                        frac. trans.

      isym =  1     identity                                     

 cryst.   s( 1) = (     1          0          0      )
                  (     0          1          0      )
                  (     0          0          1      )

 cart.    s( 1) = (  1.0000000  0.0000000  0.0000000 )
                  (  0.0000000  1.0000000  0.0000000 )
                  (  0.0000000  0.0000000  1.0000000 )


     point group C_1 (1)    
     there are  1 classes
     the character table:

       E    
A      1.00

     the symmetry operations in each class and the name of the first element:

     E        1
          identity                                               

   Cartesian axes

     site n.     atom                  positions (alat units)
         1           H   tau(   1) = (   0.1694937   0.4618802   0.1784775  )
         2           H   tau(   2) = (   0.2305063   0.4618802   0.1784775  )
         3           C   tau(   3) = (   0.0000000   0.0000000   0.0000000  )
         4           C   tau(   4) = (   0.0000000   0.1154701   0.0000000  )
         5           C   tau(   5) = (  -0.1000000   0.1732051   0.0000000  )
         6           C   tau(   6) = (  -0.1000000   0.2886751   0.0000000  )
         7           C   tau(   7) = (  -0.2000000   0.3464102   0.0000000  )
         8           C   tau(   8) = (  -0.2000000   0.4618802   0.0000000  )
         9           C   tau(   9) = (  -0.3000000   0.5196152   0.0000000  )
        10           C   tau(  10) = (  -0.3000000   0.6350853   0.0000000  )
        11           C   tau(  11) = (  -0.4000000   0.6928203   0.0000000  )
        12           C   tau(  12) = (  -0.4000000   0.8082904   0.0000000  )
        13           C   tau(  13) = (   0.2000000   0.0000000   0.0000000  )
        14           C   tau(  14) = (   0.2000000   0.1154701   0.0000000  )
        15           C   tau(  15) = (   0.1000000   0.1732051   0.0000000  )
        16           C   tau(  16) = (   0.1000000   0.2886751   0.0000000  )
        17           C   tau(  17) = (   0.0000000   0.3464102   0.0000000  )
        18           C   tau(  18) = (   0.0000000   0.4618802   0.0000000  )
        19           C   tau(  19) = (  -0.1000000   0.5196152   0.0000000  )
        20           C   tau(  20) = (  -0.1000000   0.6350853   0.0000000  )
        21           C   tau(  21) = (  -0.2000000   0.6928203   0.0000000  )
        22           C   tau(  22) = (  -0.2000000   0.8082904   0.0000000  )
        23           C   tau(  23) = (   0.4000000   0.0000000   0.0000000  )
        24           C   tau(  24) = (   0.4000000   0.1154701   0.0000000  )
        25           C   tau(  25) = (   0.3000000   0.1732051   0.0000000  )
        26           C   tau(  26) = (   0.3000000   0.2886751   0.0000000  )
        27           C   tau(  27) = (   0.2000000   0.3464102   0.0000000  )
        28           V   tau(  28) = (   0.2000000   0.4618802   0.0000000  )
        29           C   tau(  29) = (   0.1000000   0.5196152   0.0000000  )
        30           C   tau(  30) = (   0.1000000   0.6350853   0.0000000  )
        31           C   tau(  31) = (   0.0000000   0.6928203   0.0000000  )
        32           C   tau(  32) = (   0.0000000   0.8082904   0.0000000  )
        33           C   tau(  33) = (   0.6000000   0.0000000   0.0000000  )
        34           C   tau(  34) = (   0.6000000   0.1154701   0.0000000  )
        35           C   tau(  35) = (   0.5000000   0.1732051   0.0000000  )
        36           C   tau(  36) = (   0.5000000   0.2886751   0.0000000  )
        37           C   tau(  37) = (   0.4000000   0.3464102   0.0000000  )
        38           C   tau(  38) = (   0.4000000   0.4618802   0.0000000  )
        39           C   tau(  39) = (   0.3000000   0.5196152   0.0000000  )
        40           C   tau(  40) = (   0.3000000   0.6350853   0.0000000  )
        41           C   tau(  41) = (   0.2000000   0.6928203   0.0000000  )
        42           C   tau(  42) = (   0.2000000   0.8082904   0.0000000  )
        43           C   tau(  43) = (   0.8000000   0.0000000   0.0000000  )
        44           C   tau(  44) = (   0.8000000   0.1154701   0.0000000  )
        45           C   tau(  45) = (   0.7000000   0.1732051   0.0000000  )
        46           C   tau(  46) = (   0.7000000   0.2886751   0.0000000  )
        47           C   tau(  47) = (   0.6000000   0.3464102   0.0000000  )
        48           C   tau(  48) = (   0.6000000   0.4618802   0.0000000  )
        49           C   tau(  49) = (   0.5000000   0.5196152   0.0000000  )
        50           C   tau(  50) = (   0.5000000   0.6350853   0.0000000  )
        51           C   tau(  51) = (   0.4000000   0.6928203   0.0000000  )
        52           C   tau(  52) = (   0.4000000   0.8082904   0.0000000  )

   Crystallographic axes

     site n.     atom                  positions (cryst. coord.)
         1           H   tau(   1) = (  0.4361603  0.5333333  0.2200000  )
         2           H   tau(   2) = (  0.4971730  0.5333333  0.2200000  )
         3           C   tau(   3) = (  0.0000000  0.0000000  0.0000000  )
         4           C   tau(   4) = (  0.0666667  0.1333333  0.0000000  )
         5           C   tau(   5) = (  0.0000000  0.2000000  0.0000000  )
         6           C   tau(   6) = (  0.0666667  0.3333333  0.0000000  )
         7           C   tau(   7) = (  0.0000000  0.4000000  0.0000000  )
         8           C   tau(   8) = (  0.0666667  0.5333333  0.0000000  )
         9           C   tau(   9) = (  0.0000000  0.6000000  0.0000000  )
        10           C   tau(  10) = (  0.0666667  0.7333333  0.0000000  )
        11           C   tau(  11) = (  0.0000000  0.8000000  0.0000000  )
        12           C   tau(  12) = (  0.0666667  0.9333333  0.0000000  )
        13           C   tau(  13) = (  0.2000000  0.0000000  0.0000000  )
        14           C   tau(  14) = (  0.2666667  0.1333333  0.0000000  )
        15           C   tau(  15) = (  0.2000000  0.2000000  0.0000000  )
        16           C   tau(  16) = (  0.2666667  0.3333333  0.0000000  )
        17           C   tau(  17) = (  0.2000000  0.4000000  0.0000000  )
        18           C   tau(  18) = (  0.2666667  0.5333333  0.0000000  )
        19           C   tau(  19) = (  0.2000000  0.6000000  0.0000000  )
        20           C   tau(  20) = (  0.2666667  0.7333333  0.0000000  )
        21           C   tau(  21) = (  0.2000000  0.8000000  0.0000000  )
        22           C   tau(  22) = (  0.2666667  0.9333333  0.0000000  )
        23           C   tau(  23) = (  0.4000000  0.0000000  0.0000000  )
        24           C   tau(  24) = (  0.4666667  0.1333333  0.0000000  )
        25           C   tau(  25) = (  0.4000000  0.2000000  0.0000000  )
        26           C   tau(  26) = (  0.4666667  0.3333333  0.0000000  )
        27           C   tau(  27) = (  0.4000000  0.4000000  0.0000000  )
        28           V   tau(  28) = (  0.4666667  0.5333333  0.0000000  )
        29           C   tau(  29) = (  0.4000000  0.6000000  0.0000000  )
        30           C   tau(  30) = (  0.4666667  0.7333333  0.0000000  )
        31           C   tau(  31) = (  0.4000000  0.8000000  0.0000000  )
        32           C   tau(  32) = (  0.4666667  0.9333333  0.0000000  )
        33           C   tau(  33) = (  0.6000000  0.0000000  0.0000000  )
        34           C   tau(  34) = (  0.6666667  0.1333333  0.0000000  )
        35           C   tau(  35) = (  0.6000000  0.2000000  0.0000000  )
        36           C   tau(  36) = (  0.6666667  0.3333333  0.0000000  )
        37           C   tau(  37) = (  0.6000000  0.4000000  0.0000000  )
        38           C   tau(  38) = (  0.6666667  0.5333333  0.0000000  )
        39           C   tau(  39) = (  0.6000000  0.6000000  0.0000000  )
        40           C   tau(  40) = (  0.6666667  0.7333333  0.0000000  )
        41           C   tau(  41) = (  0.6000000  0.8000000  0.0000000  )
        42           C   tau(  42) = (  0.6666667  0.9333333  0.0000000  )
        43           C   tau(  43) = (  0.8000000  0.0000000  0.0000000  )
        44           C   tau(  44) = (  0.8666667  0.1333333  0.0000000  )
        45           C   tau(  45) = (  0.8000000  0.2000000  0.0000000  )
        46           C   tau(  46) = (  0.8666667  0.3333333  0.0000000  )
        47           C   tau(  47) = (  0.8000000  0.4000000  0.0000000  )
        48           C   tau(  48) = (  0.8666667  0.5333333  0.0000000  )
        49           C   tau(  49) = (  0.8000000  0.6000000  0.0000000  )
        50           C   tau(  50) = (  0.8666667  0.7333333  0.0000000  )
        51           C   tau(  51) = (  0.8000000  0.8000000  0.0000000  )
        52           C   tau(  52) = (  0.8666667  0.9333333  0.0000000  )

     number of k points=     1  Marzari-Vanderbilt smearing, width (Ry)=  0.0010
                       cart. coord. in units 2pi/alat
        k(    1) = (   0.0000000   0.0000000   0.0000000), wk =   1.0000000

                       cryst. coord.
        k(    1) = (   0.0000000   0.0000000   0.0000000), wk =   1.0000000

     Dense  grid:  1626001 G-vectors     FFT dimensions: ( 180, 180, 135)

     Smooth grid:   702581 G-vectors     FFT dimensions: ( 125, 125, 108)

     Dynamical RAM for                 wfc:      34.04 MB

     Dynamical RAM for     wfc (w. buffer):     102.11 MB

     Dynamical RAM for           str. fact:      14.89 MB

     Dynamical RAM for           local pot:       0.00 MB

     Dynamical RAM for          nlocal pot:     110.95 MB

     Dynamical RAM for                qrad:      19.73 MB

     Dynamical RAM for          rho,v,vnew:      69.82 MB

     Dynamical RAM for               rhoin:      23.27 MB

     Dynamical RAM for            rho*nmix:     158.79 MB

     Dynamical RAM for           G-vectors:      19.68 MB

     Dynamical RAM for          h,s,v(r/c):      11.81 MB

     Dynamical RAM for          <psi|beta>:       0.80 MB

     Dynamical RAM for                 psi:     136.15 MB

     Dynamical RAM for                hpsi:     136.15 MB

     Dynamical RAM for                spsi:     136.15 MB

     Dynamical RAM for      wfcinit/wfcrot:     112.48 MB

     Dynamical RAM for           addusdens:    1171.07 MB

     Estimated static dynamical RAM per process >     579.14 MB

     Estimated max dynamical RAM per process >       1.71 GB

     Estimated total dynamical RAM >       8.55 GB
     Generating pointlists ...
     new r_m :   0.0252 (alat units)  0.5862 (a.u.) for type    1
     new r_m :   0.0476 (alat units)  1.1095 (a.u.) for type    2
     new r_m :   0.0476 (alat units)  1.1095 (a.u.) for type    3

     Check: negative core charge=   -0.000002

     Initial potential from superposition of free atoms

     starting charge  210.80465, renormalised to  211.00000

     negative rho (up, down):  1.369E-04 1.841E-02


---------------------------------------------------------------------------------
Carrying out rVV10 run using the following parameters:
Nqs =      20    Nr_points =    1024   r_max =   100.000
b_value =  6.30000    beta =  0.00901
     q_mesh =  0.00010000  0.00030000  0.00058939  0.00100810
               0.00161396  0.00249058  0.00375900  0.00559430
               0.00824984  0.01209221  0.01765183  0.02569619
               0.03733578  0.05417739  0.07854596  0.11380545
               0.16482331  0.23864234  0.34545298  0.50000000

Gradients computed in Reciprocal space

---------------------------------------------------------------------------------


     Starting wfcs are  208 randomized atomic wfcs

     total cpu time spent up to now is       82.6 secs

     Self-consistent Calculation

     iteration #  1     ecut=    70.00 Ry     beta= 0.70
     Davidson diagonalization with overlap
     ethr =  1.00E-02,  avg # of iterations =  4.5

     negative rho (up, down):  2.846E-04 1.596E-02

     total cpu time spent up to now is      230.8 secs

     total energy              =    -750.19026426 Ry
     Harris-Foulkes estimate   =    -757.13269187 Ry
     estimated scf accuracy    <      14.95402435 Ry

     total magnetization       =     7.00 Bohr mag/cell
     absolute magnetization    =     7.61 Bohr mag/cell

     iteration #  2     ecut=    70.00 Ry     beta= 0.70
     Davidson diagonalization with overlap
     ethr =  7.09E-03,  avg # of iterations =  6.5

     negative rho (up, down):  1.613E-03 1.760E-01

     total cpu time spent up to now is      364.1 secs

     total energy              =    -739.43945690 Ry
     Harris-Foulkes estimate   =    -775.99846265 Ry
     estimated scf accuracy    <     140.29831252 Ry

     total magnetization       =     3.00 Bohr mag/cell
     absolute magnetization    =     3.47 Bohr mag/cell

     iteration #  3     ecut=    70.00 Ry     beta= 0.70
     Davidson diagonalization with overlap
     ethr =  7.09E-03,  avg # of iterations =  5.5

     negative rho (up, down):  1.187E-02 7.258E-02

     total cpu time spent up to now is      535.7 secs

     total energy              =    -755.66822965 Ry
     Harris-Foulkes estimate   =    -758.05439009 Ry
     estimated scf accuracy    <       7.02968481 Ry

     total magnetization       =     3.00 Bohr mag/cell
     absolute magnetization    =     3.70 Bohr mag/cell

     iteration #  4     ecut=    70.00 Ry     beta= 0.70
     Davidson diagonalization with overlap
     ethr =  3.33E-03,  avg # of iterations =  4.0

     negative rho (up, down):  9.500E-03 1.887E-01

     total cpu time spent up to now is      668.0 secs

     total energy              =    -756.32588474 Ry
     Harris-Foulkes estimate   =    -757.75958032 Ry
     estimated scf accuracy    <       4.82106191 Ry

     total magnetization       =     3.00 Bohr mag/cell
     absolute magnetization    =     3.51 Bohr mag/cell

     iteration #  5     ecut=    70.00 Ry     beta= 0.70
     Davidson diagonalization with overlap
     ethr =  2.28E-03,  avg # of iterations =  4.0

     negative rho (up, down):  2.808E-02 2.634E-02

     total cpu time spent up to now is      776.9 secs

     total energy              =    -757.23736561 Ry
     Harris-Foulkes estimate   =    -757.42638955 Ry
     estimated scf accuracy    <       0.79691031 Ry

     total magnetization       =     1.00 Bohr mag/cell
     absolute magnetization    =     1.54 Bohr mag/cell

     iteration #  6     ecut=    70.00 Ry     beta= 0.70
     Davidson diagonalization with overlap
     ethr =  3.78E-04,  avg # of iterations =  9.5

     negative rho (up, down):  2.989E-02 2.492E-02

     total cpu time spent up to now is      891.2 secs

     total energy              =    -757.28573236 Ry
     Harris-Foulkes estimate   =    -757.33105431 Ry
     estimated scf accuracy    <       0.19226102 Ry

     total magnetization       =     1.00 Bohr mag/cell
     absolute magnetization    =     1.52 Bohr mag/cell

     iteration #  7     ecut=    70.00 Ry     beta= 0.70
     Davidson diagonalization with overlap
     ethr =  9.11E-05,  avg # of iterations =  7.0

     negative rho (up, down):  2.991E-02 3.823E-02

     total cpu time spent up to now is     1015.3 secs

     total energy              =    -757.30650688 Ry
     Harris-Foulkes estimate   =    -757.36091094 Ry
     estimated scf accuracy    <       0.23139946 Ry

     total magnetization       =     1.00 Bohr mag/cell
     absolute magnetization    =     1.52 Bohr mag/cell

     iteration #  8     ecut=    70.00 Ry     beta= 0.70
     Davidson diagonalization with overlap
     ethr =  9.11E-05,  avg # of iterations =  3.0

     negative rho (up, down):  3.007E-02 4.901E-02

     total cpu time spent up to now is     1118.8 secs

     total energy              =    -757.33458649 Ry
     Harris-Foulkes estimate   =    -757.33697307 Ry
     estimated scf accuracy    <       0.01581944 Ry

     total magnetization       =     1.00 Bohr mag/cell
     absolute magnetization    =     1.47 Bohr mag/cell

     iteration #  9     ecut=    70.00 Ry     beta= 0.70
     Davidson diagonalization with overlap
     ethr =  7.50E-06,  avg # of iterations = 11.0

     negative rho (up, down):  3.637E-02 3.152E-02

     total cpu time spent up to now is     1253.2 secs

     total energy              =    -757.33904252 Ry
     Harris-Foulkes estimate   =    -757.34154707 Ry
     estimated scf accuracy    <       0.01534179 Ry

     total magnetization       =     1.00 Bohr mag/cell
     absolute magnetization    =     1.49 Bohr mag/cell

     iteration # 10     ecut=    70.00 Ry     beta= 0.70
     Davidson diagonalization with overlap
     ethr =  7.27E-06,  avg # of iterations =  3.0

     negative rho (up, down):  3.815E-02 3.453E-02

     total cpu time spent up to now is     1352.5 secs

     total energy              =    -757.33964578 Ry
     Harris-Foulkes estimate   =    -757.34098555 Ry
     estimated scf accuracy    <       0.00833251 Ry

     total magnetization       =     1.00 Bohr mag/cell
     absolute magnetization    =     1.49 Bohr mag/cell

     iteration # 11     ecut=    70.00 Ry     beta= 0.70
     Davidson diagonalization with overlap
     ethr =  3.95E-06,  avg # of iterations =  3.0

     negative rho (up, down):  3.581E-02 3.507E-02

     total cpu time spent up to now is     1450.6 secs

     total energy              =    -757.34083098 Ry
     Harris-Foulkes estimate   =    -757.34205739 Ry
     estimated scf accuracy    <       0.01995729 Ry

     total magnetization       =     1.00 Bohr mag/cell
     absolute magnetization    =     1.50 Bohr mag/cell

     iteration # 12     ecut=    70.00 Ry     beta= 0.70
     Davidson diagonalization with overlap
     ethr =  3.95E-06,  avg # of iterations =  3.0

     negative rho (up, down):  3.347E-02 4.003E-02

     total cpu time spent up to now is     1550.1 secs

     total energy              =    -757.34270612 Ry
     Harris-Foulkes estimate   =    -757.34203883 Ry
     estimated scf accuracy    <       0.00426957 Ry

     total magnetization       =     1.00 Bohr mag/cell
     absolute magnetization    =     1.50 Bohr mag/cell

     iteration # 13     ecut=    70.00 Ry     beta= 0.70
     Davidson diagonalization with overlap
     ethr =  2.02E-06,  avg # of iterations =  4.0

     negative rho (up, down):  3.276E-02 4.117E-02

     total cpu time spent up to now is     1652.0 secs

     total energy              =    -757.34341643 Ry
     Harris-Foulkes estimate   =    -757.34300799 Ry
     estimated scf accuracy    <       0.00057301 Ry

     total magnetization       =     1.00 Bohr mag/cell
     absolute magnetization    =     1.50 Bohr mag/cell

     iteration # 14     ecut=    70.00 Ry     beta= 0.70
     Davidson diagonalization with overlap
     ethr =  2.72E-07,  avg # of iterations =  3.5

     negative rho (up, down):  3.318E-02 1.114E-02

     total cpu time spent up to now is     1764.1 secs

     total energy              =    -757.34379815 Ry
     Harris-Foulkes estimate   =    -757.34363037 Ry
     estimated scf accuracy    <       0.00111172 Ry

     total magnetization       =     1.00 Bohr mag/cell
     absolute magnetization    =     1.50 Bohr mag/cell

     iteration # 15     ecut=    70.00 Ry     beta= 0.70
     Davidson diagonalization with overlap
     ethr =  2.72E-07,  avg # of iterations =  3.0

     negative rho (up, down):  3.341E-02 1.343E-02

     total cpu time spent up to now is     1863.4 secs

     total energy              =    -757.34389909 Ry
     Harris-Foulkes estimate   =    -757.34388640 Ry
     estimated scf accuracy    <       0.00045204 Ry

     total magnetization       =     1.00 Bohr mag/cell
     absolute magnetization    =     1.51 Bohr mag/cell

     iteration # 16     ecut=    70.00 Ry     beta= 0.70
     Davidson diagonalization with overlap
     ethr =  2.14E-07,  avg # of iterations =  1.0

     negative rho (up, down):  3.339E-02 1.025E-02

     total cpu time spent up to now is     1958.9 secs

     total energy              =    -757.34393887 Ry
     Harris-Foulkes estimate   =    -757.34391009 Ry
     estimated scf accuracy    <       0.00020854 Ry

     total magnetization       =     1.00 Bohr mag/cell
     absolute magnetization    =     1.52 Bohr mag/cell

     iteration # 17     ecut=    70.00 Ry     beta= 0.70
     Davidson diagonalization with overlap
     ethr =  9.88E-08,  avg # of iterations =  1.5

     negative rho (up, down):  3.346E-02 1.312E-02

     total cpu time spent up to now is     2056.0 secs

     total energy              =    -757.34395253 Ry
     Harris-Foulkes estimate   =    -757.34395458 Ry
     estimated scf accuracy    <       0.00031631 Ry

     total magnetization       =     1.00 Bohr mag/cell
     absolute magnetization    =     1.53 Bohr mag/cell

     iteration # 18     ecut=    70.00 Ry     beta= 0.70
     Davidson diagonalization with overlap
     ethr =  9.88E-08,  avg # of iterations =  1.0

     negative rho (up, down):  3.345E-02 1.017E-02

     total cpu time spent up to now is     2151.5 secs

     total energy              =    -757.34395759 Ry
     Harris-Foulkes estimate   =    -757.34395648 Ry
     estimated scf accuracy    <       0.00021377 Ry

     total magnetization       =     1.00 Bohr mag/cell
     absolute magnetization    =     1.53 Bohr mag/cell

     iteration # 19     ecut=    70.00 Ry     beta= 0.70
     Davidson diagonalization with overlap
     ethr =  9.88E-08,  avg # of iterations =  3.0

     negative rho (up, down):  3.403E-02 3.044E-02

     total cpu time spent up to now is     2251.9 secs

     total energy              =    -757.34382785 Ry
     Harris-Foulkes estimate   =    -757.34398665 Ry
     estimated scf accuracy    <       0.00019439 Ry

     total magnetization       =     1.00 Bohr mag/cell
     absolute magnetization    =     1.54 Bohr mag/cell

     iteration # 20     ecut=    70.00 Ry     beta= 0.70
     Davidson diagonalization with overlap
     ethr =  9.21E-08,  avg # of iterations =  3.0

     negative rho (up, down):  3.372E-02 1.998E-02

     total cpu time spent up to now is     2361.6 secs

     total energy              =    -757.34395460 Ry
     Harris-Foulkes estimate   =    -757.34387054 Ry
     estimated scf accuracy    <       0.00012821 Ry

     total magnetization       =     1.00 Bohr mag/cell
     absolute magnetization    =     1.55 Bohr mag/cell

     iteration # 21     ecut=    70.00 Ry     beta= 0.70
     Davidson diagonalization with overlap
     ethr =  6.08E-08,  avg # of iterations =  2.0

     negative rho (up, down):  3.339E-02 3.341E-03

     total cpu time spent up to now is     2458.1 secs

     total energy              =    -757.34400603 Ry
     Harris-Foulkes estimate   =    -757.34396276 Ry
     estimated scf accuracy    <       0.00005587 Ry

     total magnetization       =     1.00 Bohr mag/cell
     absolute magnetization    =     1.55 Bohr mag/cell

     iteration # 22     ecut=    70.00 Ry     beta= 0.70
     Davidson diagonalization with overlap
     ethr =  2.65E-08,  avg # of iterations =  3.0

     negative rho (up, down):  3.345E-02 8.918E-03

     total cpu time spent up to now is     2563.2 secs

     total energy              =    -757.34398719 Ry
     Harris-Foulkes estimate   =    -757.34401960 Ry
     estimated scf accuracy    <       0.00004136 Ry

     total magnetization       =     1.00 Bohr mag/cell
     absolute magnetization    =     1.55 Bohr mag/cell

     iteration # 23     ecut=    70.00 Ry     beta= 0.70
     Davidson diagonalization with overlap
     ethr =  1.96E-08,  avg # of iterations =  3.0

     negative rho (up, down):  3.339E-02 4.901E-03

     total cpu time spent up to now is     2689.7 secs

     total energy              =    -757.34402105 Ry
     Harris-Foulkes estimate   =    -757.34401607 Ry
     estimated scf accuracy    <       0.00000579 Ry

     total magnetization       =     1.00 Bohr mag/cell
     absolute magnetization    =     1.56 Bohr mag/cell

     iteration # 24     ecut=    70.00 Ry     beta= 0.70
     Davidson diagonalization with overlap
     ethr =  2.75E-09,  avg # of iterations =  2.5

     negative rho (up, down):  3.335E-02 2.324E-03

     Magnetic moment per site:
     atom:    1    charge:    0.2104    magn:    0.0000    constr:    0.0000
     atom:    2    charge:    0.2104    magn:    0.0000    constr:    0.0000
     atom:    3    charge:    1.7173    magn:   -0.0078    constr:    0.0000
     atom:    4    charge:    1.7164    magn:    0.0122    constr:    0.0000
     atom:    5    charge:    1.7181    magn:   -0.0042    constr:    0.0000
     atom:    6    charge:    1.7141    magn:    0.0023    constr:    0.0000
     atom:    7    charge:    1.7187    magn:   -0.0033    constr:    0.0000
     atom:    8    charge:    1.7150    magn:    0.0044    constr:    0.0000
     atom:    9    charge:    1.7187    magn:   -0.0050    constr:    0.0000
     atom:   10    charge:    1.7111    magn:    0.0105    constr:    0.0000
     atom:   11    charge:    1.7188    magn:   -0.0089    constr:    0.0000
     atom:   12    charge:    1.7160    magn:    0.0413    constr:    0.0000
     atom:   13    charge:    1.7183    magn:   -0.0091    constr:    0.0000
     atom:   14    charge:    1.7126    magn:    0.0080    constr:    0.0000
     atom:   15    charge:    1.7175    magn:   -0.0054    constr:    0.0000
     atom:   16    charge:    1.7095    magn:    0.0156    constr:    0.0000
     atom:   17    charge:    1.7277    magn:   -0.0032    constr:    0.0000
     atom:   18    charge:    1.7101    magn:    0.0225    constr:    0.0000
     atom:   19    charge:    1.7170    magn:   -0.0073    constr:    0.0000
     atom:   20    charge:    1.7154    magn:    0.0307    constr:    0.0000
     atom:   21    charge:    1.7188    magn:   -0.0089    constr:    0.0000
     atom:   22    charge:    1.7162    magn:    0.0413    constr:    0.0000
     atom:   23    charge:    1.7172    magn:   -0.0078    constr:    0.0000
     atom:   24    charge:    1.7164    magn:    0.0122    constr:    0.0000
     atom:   25    charge:    1.7175    magn:   -0.0053    constr:    0.0000
     atom:   26    charge:    1.7096    magn:    0.0156    constr:    0.0000
     atom:   27    charge:    1.9150    magn:   -0.0037    constr:    0.0000
     atom:   28    charge:    7.8581    magn:    0.0982    constr:    0.0000
     atom:   29    charge:    1.9137    magn:    0.0004    constr:    0.0000
     atom:   30    charge:    1.7141    magn:    0.0516    constr:    0.0000
     atom:   31    charge:    1.7162    magn:   -0.0110    constr:    0.0000
     atom:   32    charge:    1.7157    magn:    0.0116    constr:    0.0000
     atom:   33    charge:    1.7182    magn:   -0.0049    constr:    0.0000
     atom:   34    charge:    1.7141    magn:    0.0087    constr:    0.0000
     atom:   35    charge:    1.7181    magn:   -0.0042    constr:    0.0000
     atom:   36    charge:    1.7141    magn:    0.0023    constr:    0.0000
     atom:   37    charge:    1.7278    magn:   -0.0031    constr:    0.0000
     atom:   38    charge:    1.7103    magn:    0.0225    constr:    0.0000
     atom:   39    charge:    1.9138    magn:    0.0005    constr:    0.0000
     atom:   40    charge:    1.7142    magn:    0.0516    constr:    0.0000
     atom:   41    charge:    1.7258    magn:   -0.0090    constr:    0.0000
     atom:   42    charge:    1.7141    magn:    0.0031    constr:    0.0000
     atom:   43    charge:    1.7182    magn:   -0.0049    constr:    0.0000
     atom:   44    charge:    1.7141    magn:    0.0087    constr:    0.0000
     atom:   45    charge:    1.7248    magn:   -0.0030    constr:    0.0000
     atom:   46    charge:    1.7132    magn:    0.0032    constr:    0.0000
     atom:   47    charge:    1.7187    magn:   -0.0033    constr:    0.0000
     atom:   48    charge:    1.7150    magn:    0.0044    constr:    0.0000
     atom:   49    charge:    1.7171    magn:   -0.0072    constr:    0.0000
     atom:   50    charge:    1.7156    magn:    0.0307    constr:    0.0000
     atom:   51    charge:    1.7163    magn:   -0.0110    constr:    0.0000
     atom:   52    charge:    1.7157    magn:    0.0116    constr:    0.0000

     total cpu time spent up to now is     2791.4 secs

     End of self-consistent calculation

 ------ SPIN UP ------------


          k = 0.0000 0.0000 0.0000 ( 87777 PWs)   bands (ev):

   -62.7765 -37.8959 -37.8425 -36.5289 -19.6114 -18.7952 -18.7406 -18.6990
   -18.6642 -18.6373 -18.2115 -16.9192 -16.9181 -16.8988 -16.7851 -16.7612
   -16.4915 -16.0573 -16.0562 -15.9630 -15.8078 -15.8068 -15.0574 -13.8779
   -13.8721 -13.8525 -13.8342 -13.8295 -13.1082 -12.8952 -12.8897 -12.8734
   -12.4824 -12.4776 -12.0895 -11.6229 -11.6152 -11.4948 -11.1137 -11.1123
   -10.1358  -9.3142  -9.3062  -9.2295  -9.1615  -9.1571  -9.0680  -9.0430
    -9.0397  -9.0255  -8.6054  -8.4406  -8.4349  -7.8731  -7.8612  -7.8311
    -7.7303  -7.6500  -7.2367  -7.2214  -6.9488  -6.9445  -6.8660  -6.6825
    -6.6729  -6.6696  -6.5695  -6.5624  -6.5185  -6.4197  -6.4005  -6.3751
    -6.3536  -6.3504  -6.3067  -6.1740  -5.2408  -5.2283  -5.1492  -5.1371
    -4.9196  -4.9178  -4.8081  -4.7198  -4.6006  -4.5897  -4.5821  -4.1953
    -3.9643  -3.9642  -3.7405  -3.7337  -3.6350  -3.5772  -3.4742  -3.4707
    -2.8074  -2.2483  -2.2326  -2.1897  -2.1658  -1.7246  -1.6629  -1.6536
    -0.4491  -0.2268  -0.2115   1.0694   1.0974   1.1076   1.6120   2.0002
     2.0698   2.0784   2.5101   2.8999   2.9235   3.0001   3.1059   3.4727
     3.6737   3.7471   3.7559   3.8045   3.9382   4.0193   4.0302

     occupation numbers 
     1.0000   1.0000   1.0000   1.0000   1.0000   1.0000   1.0000   1.0000
     1.0000   1.0000   1.0000   1.0000   1.0000   1.0000   1.0000   1.0000
     1.0000   1.0000   1.0000   1.0000   1.0000   1.0000   1.0000   1.0000
     1.0000   1.0000   1.0000   1.0000   1.0000   1.0000   1.0000   1.0000
     1.0000   1.0000   1.0000   1.0000   1.0000   1.0000   1.0000   1.0000
     1.0000   1.0000   1.0000   1.0000   1.0000   1.0000   1.0000   1.0000
     1.0000   1.0000   1.0000   1.0000   1.0000   1.0000   1.0000   1.0000
     1.0000   1.0000   1.0000   1.0000   1.0000   1.0000   1.0000   1.0000
     1.0000   1.0000   1.0000   1.0000   1.0000   1.0000   1.0000   1.0000
     1.0000   1.0000   1.0000   1.0000   1.0000   1.0000   1.0000   1.0000
     1.0000   1.0000   1.0000   1.0000   1.0000   1.0000   1.0000   1.0000
     1.0000   1.0000   1.0000   1.0000   1.0000   1.0000   1.0000   1.0000
     1.0000   1.0000   1.0000   1.0000   1.0000   1.0000   1.0000   1.0000
     1.0000   0.8572   0.1428   0.0000   0.0000   0.0000   0.0000   0.0000
     0.0000   0.0000   0.0000   0.0000   0.0000   0.0000   0.0000   0.0000
     0.0000   0.0000   0.0000   0.0000   0.0000   0.0000   0.0000

 ------ SPIN DOWN ----------


          k = 0.0000 0.0000 0.0000 ( 87777 PWs)   bands (ev):

   -62.5882 -37.8030 -37.6248 -36.2713 -19.5903 -18.7821 -18.7115 -18.6790
   -18.6502 -18.6189 -18.1783 -16.9062 -16.9039 -16.8736 -16.7625 -16.7281
   -16.4767 -16.0340 -16.0254 -15.9459 -15.7857 -15.7856 -15.0425 -13.8518
   -13.8501 -13.8289 -13.8248 -13.7840 -13.1112 -12.8864 -12.8768 -12.8580
   -12.4757 -12.4680 -12.0713 -11.6022 -11.5995 -11.4818 -11.1044 -11.0966
   -10.1212  -9.3004  -9.2864  -9.2170  -9.1477  -9.1384  -9.0598  -9.0299
    -9.0247  -9.0128  -8.5920  -8.4354  -8.4265  -7.8625  -7.8496  -7.8231
    -7.6846  -7.6415  -7.2275  -7.2130  -6.8885  -6.8589  -6.8458  -6.6498
    -6.6335  -6.6234  -6.5579  -6.5529  -6.5092  -6.4108  -6.3896  -6.3712
    -6.3483  -6.3391  -6.2981  -6.0935  -5.2336  -5.2179  -5.0844  -5.0402
    -4.9103  -4.9073  -4.8022  -4.7135  -4.5657  -4.5481  -4.5159  -4.1576
    -3.9293  -3.8995  -3.6667  -3.6603  -3.5841  -3.5484  -3.4685  -3.4627
    -2.7715  -2.1842  -2.1644  -2.1348  -2.0929  -1.6591  -1.6402  -1.6166
    -0.4472  -0.0730   0.0820   1.1109   1.1270   1.1578   1.6850   2.0603
     2.1238   2.1623   2.5186   2.9675   2.9885   3.0458   3.1285   3.4803
     3.6932   3.7481   3.7601   3.8129   3.9709   4.0809   4.1100

     occupation numbers 
     1.0000   1.0000   1.0000   1.0000   1.0000   1.0000   1.0000   1.0000
     1.0000   1.0000   1.0000   1.0000   1.0000   1.0000   1.0000   1.0000
     1.0000   1.0000   1.0000   1.0000   1.0000   1.0000   1.0000   1.0000
     1.0000   1.0000   1.0000   1.0000   1.0000   1.0000   1.0000   1.0000
     1.0000   1.0000   1.0000   1.0000   1.0000   1.0000   1.0000   1.0000
     1.0000   1.0000   1.0000   1.0000   1.0000   1.0000   1.0000   1.0000
     1.0000   1.0000   1.0000   1.0000   1.0000   1.0000   1.0000   1.0000
     1.0000   1.0000   1.0000   1.0000   1.0000   1.0000   1.0000   1.0000
     1.0000   1.0000   1.0000   1.0000   1.0000   1.0000   1.0000   1.0000
     1.0000   1.0000   1.0000   1.0000   1.0000   1.0000   1.0000   1.0000
     1.0000   1.0000   1.0000   1.0000   1.0000   1.0000   1.0000   1.0000
     1.0000   1.0000   1.0000   1.0000   1.0000   1.0000   1.0000   1.0000
     1.0000   1.0000   1.0000   1.0000   1.0000   1.0000   1.0000   1.0000
     1.0000   0.0000   0.0000   0.0000   0.0000   0.0000   0.0000   0.0000
     0.0000   0.0000   0.0000   0.0000   0.0000   0.0000   0.0000   0.0000
     0.0000   0.0000   0.0000   0.0000   0.0000   0.0000   0.0000

     the Fermi energy is    -0.2181 ev

!    total energy              =    -757.34402297 Ry
     Harris-Foulkes estimate   =    -757.34402214 Ry
     estimated scf accuracy    <       0.00000076 Ry

     The total energy is the sum of the following terms:

     one-electron contribution =   -2605.99362004 Ry
     hartree contribution      =    1349.95405443 Ry
     xc contribution           =    -252.70424684 Ry
     ewald contribution        =     751.39993258 Ry
     smearing contrib. (-TS)   =      -0.00014310 Ry

     total magnetization       =     1.00 Bohr mag/cell
     absolute magnetization    =     1.55 Bohr mag/cell

     convergence has been achieved in  24 iterations

     Writing output data file vanadio-top-distance-2.2.save/

     init_run     :     80.06s CPU     81.60s WALL (       1 calls)
     electrons    :   2663.57s CPU   2708.94s WALL (       1 calls)

     Called by init_run:
     wfcinit      :     46.86s CPU     47.17s WALL (       1 calls)
     wfcinit:atom :      0.06s CPU      0.10s WALL (       2 calls)
     wfcinit:wfcr :     46.35s CPU     46.59s WALL (       2 calls)
     potinit      :     13.56s CPU     14.11s WALL (       1 calls)
     hinit0       :     10.65s CPU     10.73s WALL (       1 calls)

     Called by electrons:
     c_bands      :   1739.20s CPU   1748.70s WALL (      24 calls)
     sum_band     :    538.18s CPU    552.72s WALL (      24 calls)
     v_of_rho     :    195.32s CPU    204.86s WALL (      25 calls)
     v_h          :      1.96s CPU      2.00s WALL (      25 calls)
     v_xc         :    193.37s CPU    202.86s WALL (      25 calls)
     newd         :    189.53s CPU    202.06s WALL (      25 calls)
     mix_rho      :     11.06s CPU     11.22s WALL (      24 calls)

     Called by c_bands:
     init_us_2    :      4.77s CPU      4.80s WALL (      98 calls)
     cegterg      :   1727.91s CPU   1737.36s WALL (      48 calls)

     Called by sum_band:
     sum_band:bec :      0.04s CPU      0.04s WALL (      48 calls)
     addusdens    :    330.87s CPU    344.10s WALL (      24 calls)

     Called by *egterg:
     h_psi        :    922.65s CPU    929.26s WALL (     239 calls)
     s_psi        :    307.73s CPU    307.81s WALL (     239 calls)
     g_psi        :      1.06s CPU      1.07s WALL (     189 calls)
     cdiaghg      :     18.12s CPU     18.12s WALL (     237 calls)
     cegterg:over :    212.77s CPU    212.85s WALL (     189 calls)
     cegterg:upda :    135.48s CPU    136.37s WALL (     189 calls)
     cegterg:last :     87.16s CPU     87.17s WALL (      48 calls)

     Called by h_psi:
     h_psi:pot    :    921.58s CPU    927.05s WALL (     239 calls)
     h_psi:calbec :    307.76s CPU    307.89s WALL (     239 calls)
     vloc_psi     :    304.11s CPU    309.42s WALL (     239 calls)
     add_vuspsi   :    309.70s CPU    309.74s WALL (     239 calls)

     General routines
     calbec       :    433.14s CPU    433.30s WALL (     287 calls)
     fft          :    109.82s CPU    113.60s WALL (    1869 calls)
     ffts         :      1.90s CPU      1.98s WALL (      98 calls)
     fftw         :    311.48s CPU    317.11s WALL (   36004 calls)
     interpolate  :      4.50s CPU      4.63s WALL (      50 calls)

     Parallel routines
     fft_scatt_xy :     78.72s CPU     79.74s WALL (   37971 calls)
     fft_scatt_yz :    126.54s CPU    133.07s WALL (   37971 calls)

     PWSCF        :  45m44.88s CPU  46m32.07s WALL


   This run was terminated on:   0:16:38   1Sep2022            

=------------------------------------------------------------------------------=
   JOB DONE.
=------------------------------------------------------------------------------=
