
     Program PWSCF v.6.4.1 starts on  1Sep2022 at  6:36:22 

     This program is part of the open-source Quantum ESPRESSO suite
     for quantum simulation of materials; please cite
         "P. Giannozzi et al., J. Phys.:Condens. Matter 21 395502 (2009);
         "P. Giannozzi et al., J. Phys.:Condens. Matter 29 465901 (2017);
          URL http://www.quantum-espresso.org", 
     in publications or presentations arising from this work. More details at
     http://www.quantum-espresso.org/quote

     Parallel version (MPI), running on     6 processors

     MPI processes distributed on     1 nodes
     R & G space division:  proc/nbgrp/npool/nimage =       6
     Reading input from distance-2.6.in

     Current dimensions of program PWSCF are:
     Max number of different atomic species (ntypx) = 10
     Max number of k-points (npk) =  40000
     Max angular momentum in pseudopotentials (lmaxx) =  3

     IMPORTANT: XC functional enforced from input :
     Exchange-correlation      = RVV10 ( 1  4 13  4 3 0)
     Any further DFT definition will be discarded
     Please, verify this is what you really want

               file H.pbe-rrkjus.UPF: wavefunction(s)  1S renormalized
               file V.pbe-spnl-rrkjus_psl.1.0.0.UPF: wavefunction(s)  3P 3D renormalized

     Subspace diagonalization in iterative solution of the eigenvalue problem:
     a serial algorithm will be used


     Parallelization info
     --------------------
     sticks:   dense  smooth     PW     G-vecs:    dense   smooth      PW
     Min        3051    1746    432               270999   117096   14629
     Max        3053    1747    437               271001   117099   14630
     Sum       18313   10477   2611              1626001   702581   87777



     bravais-lattice index     =            4
     lattice parameter (alat)  =      23.2937  a.u.
     unit-cell volume          =    8879.8548 (a.u.)^3
     number of atoms/cell      =           52
     number of atomic types    =            3
     number of electrons       =       211.00
     number of Kohn-Sham states=          127
     kinetic-energy cutoff     =      70.0000  Ry
     charge density cutoff     =     490.0000  Ry
     convergence threshold     =      1.0E-06
     mixing beta               =       0.7000
     number of iterations used =            8  plain     mixing
     Exchange-correlation      = RVV10 ( 1  4 13  4 3 0)

     celldm(1)=  23.293684  celldm(2)=   0.000000  celldm(3)=   0.811261
     celldm(4)=   0.000000  celldm(5)=   0.000000  celldm(6)=   0.000000

     crystal axes: (cart. coord. in units of alat)
               a(1) = (   1.000000   0.000000   0.000000 )  
               a(2) = (  -0.500000   0.866025   0.000000 )  
               a(3) = (   0.000000   0.000000   0.811261 )  

     reciprocal axes: (cart. coord. in units 2 pi/alat)
               b(1) = (  1.000000  0.577350 -0.000000 )  
               b(2) = (  0.000000  1.154701  0.000000 )  
               b(3) = (  0.000000 -0.000000  1.232649 )  


     PseudoPot. # 1 for H  read from file:
     /home/cristian/Escritorio/Proyecto_Grafeno/pseudopotenciales/H.pbe-rrkjus.UPF
     MD5 check sum: 7cc9d459525c9a0585f487a71c3c9563
     Pseudo is Ultrasoft, Zval =  1.0
     Generated by new atomic code, or converted to UPF format
     Using radial grid of 1061 points,  2 beta functions with: 
                l(1) =   0
                l(2) =   0
     Q(r) pseudized with 0 coefficients 


     PseudoPot. # 2 for C  read from file:
     /home/cristian/Escritorio/Proyecto_Grafeno/pseudopotenciales/C.pbe-n-rrkjus_psl.1.0.0.UPF
     MD5 check sum: 1fdd950c42eb37d8afe3dd2f8d12311e
     Pseudo is Ultrasoft + core correction, Zval =  4.0
     Generated using "atomic" code by A. Dal Corso v.6.3MaX
     Using radial grid of 1073 points,  4 beta functions with: 
                l(1) =   0
                l(2) =   0
                l(3) =   1
                l(4) =   1
     Q(r) pseudized with 0 coefficients 


     PseudoPot. # 3 for V  read from file:
     /home/cristian/Escritorio/Proyecto_Grafeno/pseudopotenciales/V.pbe-spnl-rrkjus_psl.1.0.0.UPF
     MD5 check sum: 79b3eb63147daf0b665d9f1bcc691206
     Pseudo is Ultrasoft + core correction, Zval = 13.0
     Generated using "atomic" code by A. Dal Corso v.6.2.2
     Using radial grid of 1181 points,  6 beta functions with: 
                l(1) =   0
                l(2) =   0
                l(3) =   1
                l(4) =   1
                l(5) =   2
                l(6) =   2
     Q(r) pseudized with 0 coefficients 


     vdW kernel table read from file rVV10_kernel_table
     MD5 check sum: b8e2538accc0c0b3206b45ba4daaba6c

     atomic species   valence    mass     pseudopotential
        H              1.00     1.00794     H ( 1.00)
        C              4.00    12.01070     C ( 1.00)
        V             13.00    50.94150     V ( 1.00)

     Starting magnetic structure 
     atomic species   magnetization
        H            0.500
        C            0.300
        V            0.800

     No symmetry found


                                    s                        frac. trans.

      isym =  1     identity                                     

 cryst.   s( 1) = (     1          0          0      )
                  (     0          1          0      )
                  (     0          0          1      )

 cart.    s( 1) = (  1.0000000  0.0000000  0.0000000 )
                  (  0.0000000  1.0000000  0.0000000 )
                  (  0.0000000  0.0000000  1.0000000 )


     point group C_1 (1)    
     there are  1 classes
     the character table:

       E    
A      1.00

     the symmetry operations in each class and the name of the first element:

     E        1
          identity                                               

   Cartesian axes

     site n.     atom                  positions (alat units)
         1           H   tau(   1) = (   0.2194937   0.4907477   0.2109279  )
         2           H   tau(   2) = (   0.2805063   0.4907477   0.2109279  )
         3           C   tau(   3) = (   0.0000000   0.0000000   0.0000000  )
         4           C   tau(   4) = (   0.0000000   0.1154701   0.0000000  )
         5           C   tau(   5) = (  -0.1000000   0.1732051   0.0000000  )
         6           C   tau(   6) = (  -0.1000000   0.2886751   0.0000000  )
         7           C   tau(   7) = (  -0.2000000   0.3464102   0.0000000  )
         8           C   tau(   8) = (  -0.2000000   0.4618802   0.0000000  )
         9           C   tau(   9) = (  -0.3000000   0.5196152   0.0000000  )
        10           C   tau(  10) = (  -0.3000000   0.6350853   0.0000000  )
        11           C   tau(  11) = (  -0.4000000   0.6928203   0.0000000  )
        12           C   tau(  12) = (  -0.4000000   0.8082904   0.0000000  )
        13           C   tau(  13) = (   0.2000000   0.0000000   0.0000000  )
        14           C   tau(  14) = (   0.2000000   0.1154701   0.0000000  )
        15           C   tau(  15) = (   0.1000000   0.1732051   0.0000000  )
        16           C   tau(  16) = (   0.1000000   0.2886751   0.0000000  )
        17           C   tau(  17) = (   0.0000000   0.3464102   0.0000000  )
        18           C   tau(  18) = (   0.0000000   0.4618802   0.0000000  )
        19           C   tau(  19) = (  -0.1000000   0.5196152   0.0000000  )
        20           C   tau(  20) = (  -0.1000000   0.6350853   0.0000000  )
        21           C   tau(  21) = (  -0.2000000   0.6928203   0.0000000  )
        22           C   tau(  22) = (  -0.2000000   0.8082904   0.0000000  )
        23           C   tau(  23) = (   0.4000000   0.0000000   0.0000000  )
        24           C   tau(  24) = (   0.4000000   0.1154701   0.0000000  )
        25           C   tau(  25) = (   0.3000000   0.1732051   0.0000000  )
        26           C   tau(  26) = (   0.3000000   0.2886751   0.0000000  )
        27           C   tau(  27) = (   0.2000000   0.3464102   0.0000000  )
        28           V   tau(  28) = (   0.2000000   0.4618802   0.0000000  )
        29           C   tau(  29) = (   0.1000000   0.5196152   0.0000000  )
        30           C   tau(  30) = (   0.1000000   0.6350853   0.0000000  )
        31           C   tau(  31) = (   0.0000000   0.6928203   0.0000000  )
        32           C   tau(  32) = (   0.0000000   0.8082904   0.0000000  )
        33           C   tau(  33) = (   0.6000000   0.0000000   0.0000000  )
        34           C   tau(  34) = (   0.6000000   0.1154701   0.0000000  )
        35           C   tau(  35) = (   0.5000000   0.1732051   0.0000000  )
        36           C   tau(  36) = (   0.5000000   0.2886751   0.0000000  )
        37           C   tau(  37) = (   0.4000000   0.3464102   0.0000000  )
        38           C   tau(  38) = (   0.4000000   0.4618802   0.0000000  )
        39           C   tau(  39) = (   0.3000000   0.5196152   0.0000000  )
        40           C   tau(  40) = (   0.3000000   0.6350853   0.0000000  )
        41           C   tau(  41) = (   0.2000000   0.6928203   0.0000000  )
        42           C   tau(  42) = (   0.2000000   0.8082904   0.0000000  )
        43           C   tau(  43) = (   0.8000000   0.0000000   0.0000000  )
        44           C   tau(  44) = (   0.8000000   0.1154701   0.0000000  )
        45           C   tau(  45) = (   0.7000000   0.1732051   0.0000000  )
        46           C   tau(  46) = (   0.7000000   0.2886751   0.0000000  )
        47           C   tau(  47) = (   0.6000000   0.3464102   0.0000000  )
        48           C   tau(  48) = (   0.6000000   0.4618802   0.0000000  )
        49           C   tau(  49) = (   0.5000000   0.5196152   0.0000000  )
        50           C   tau(  50) = (   0.5000000   0.6350853   0.0000000  )
        51           C   tau(  51) = (   0.4000000   0.6928203   0.0000000  )
        52           C   tau(  52) = (   0.4000000   0.8082904   0.0000000  )

   Crystallographic axes

     site n.     atom                  positions (cryst. coord.)
         1           H   tau(   1) = (  0.5028270  0.5666667  0.2600000  )
         2           H   tau(   2) = (  0.5638397  0.5666667  0.2600000  )
         3           C   tau(   3) = (  0.0000000  0.0000000  0.0000000  )
         4           C   tau(   4) = (  0.0666667  0.1333333  0.0000000  )
         5           C   tau(   5) = (  0.0000000  0.2000000  0.0000000  )
         6           C   tau(   6) = (  0.0666667  0.3333333  0.0000000  )
         7           C   tau(   7) = (  0.0000000  0.4000000  0.0000000  )
         8           C   tau(   8) = (  0.0666667  0.5333333  0.0000000  )
         9           C   tau(   9) = (  0.0000000  0.6000000  0.0000000  )
        10           C   tau(  10) = (  0.0666667  0.7333333  0.0000000  )
        11           C   tau(  11) = (  0.0000000  0.8000000  0.0000000  )
        12           C   tau(  12) = (  0.0666667  0.9333333  0.0000000  )
        13           C   tau(  13) = (  0.2000000  0.0000000  0.0000000  )
        14           C   tau(  14) = (  0.2666667  0.1333333  0.0000000  )
        15           C   tau(  15) = (  0.2000000  0.2000000  0.0000000  )
        16           C   tau(  16) = (  0.2666667  0.3333333  0.0000000  )
        17           C   tau(  17) = (  0.2000000  0.4000000  0.0000000  )
        18           C   tau(  18) = (  0.2666667  0.5333333  0.0000000  )
        19           C   tau(  19) = (  0.2000000  0.6000000  0.0000000  )
        20           C   tau(  20) = (  0.2666667  0.7333333  0.0000000  )
        21           C   tau(  21) = (  0.2000000  0.8000000  0.0000000  )
        22           C   tau(  22) = (  0.2666667  0.9333333  0.0000000  )
        23           C   tau(  23) = (  0.4000000  0.0000000  0.0000000  )
        24           C   tau(  24) = (  0.4666667  0.1333333  0.0000000  )
        25           C   tau(  25) = (  0.4000000  0.2000000  0.0000000  )
        26           C   tau(  26) = (  0.4666667  0.3333333  0.0000000  )
        27           C   tau(  27) = (  0.4000000  0.4000000  0.0000000  )
        28           V   tau(  28) = (  0.4666667  0.5333333  0.0000000  )
        29           C   tau(  29) = (  0.4000000  0.6000000  0.0000000  )
        30           C   tau(  30) = (  0.4666667  0.7333333  0.0000000  )
        31           C   tau(  31) = (  0.4000000  0.8000000  0.0000000  )
        32           C   tau(  32) = (  0.4666667  0.9333333  0.0000000  )
        33           C   tau(  33) = (  0.6000000  0.0000000  0.0000000  )
        34           C   tau(  34) = (  0.6666667  0.1333333  0.0000000  )
        35           C   tau(  35) = (  0.6000000  0.2000000  0.0000000  )
        36           C   tau(  36) = (  0.6666667  0.3333333  0.0000000  )
        37           C   tau(  37) = (  0.6000000  0.4000000  0.0000000  )
        38           C   tau(  38) = (  0.6666667  0.5333333  0.0000000  )
        39           C   tau(  39) = (  0.6000000  0.6000000  0.0000000  )
        40           C   tau(  40) = (  0.6666667  0.7333333  0.0000000  )
        41           C   tau(  41) = (  0.6000000  0.8000000  0.0000000  )
        42           C   tau(  42) = (  0.6666667  0.9333333  0.0000000  )
        43           C   tau(  43) = (  0.8000000  0.0000000  0.0000000  )
        44           C   tau(  44) = (  0.8666667  0.1333333  0.0000000  )
        45           C   tau(  45) = (  0.8000000  0.2000000  0.0000000  )
        46           C   tau(  46) = (  0.8666667  0.3333333  0.0000000  )
        47           C   tau(  47) = (  0.8000000  0.4000000  0.0000000  )
        48           C   tau(  48) = (  0.8666667  0.5333333  0.0000000  )
        49           C   tau(  49) = (  0.8000000  0.6000000  0.0000000  )
        50           C   tau(  50) = (  0.8666667  0.7333333  0.0000000  )
        51           C   tau(  51) = (  0.8000000  0.8000000  0.0000000  )
        52           C   tau(  52) = (  0.8666667  0.9333333  0.0000000  )

     number of k points=     1  Marzari-Vanderbilt smearing, width (Ry)=  0.0010
                       cart. coord. in units 2pi/alat
        k(    1) = (   0.0000000   0.0000000   0.0000000), wk =   1.0000000

                       cryst. coord.
        k(    1) = (   0.0000000   0.0000000   0.0000000), wk =   1.0000000

     Dense  grid:  1626001 G-vectors     FFT dimensions: ( 180, 180, 135)

     Smooth grid:   702581 G-vectors     FFT dimensions: ( 125, 125, 108)

     Dynamical RAM for                 wfc:      28.36 MB

     Dynamical RAM for     wfc (w. buffer):      85.09 MB

     Dynamical RAM for           str. fact:      12.41 MB

     Dynamical RAM for           local pot:       0.00 MB

     Dynamical RAM for          nlocal pot:      92.46 MB

     Dynamical RAM for                qrad:      19.73 MB

     Dynamical RAM for          rho,v,vnew:      58.92 MB

     Dynamical RAM for               rhoin:      19.64 MB

     Dynamical RAM for            rho*nmix:     132.32 MB

     Dynamical RAM for           G-vectors:      16.40 MB

     Dynamical RAM for          h,s,v(r/c):      11.81 MB

     Dynamical RAM for          <psi|beta>:       0.80 MB

     Dynamical RAM for                 psi:     113.46 MB

     Dynamical RAM for                hpsi:     113.46 MB

     Dynamical RAM for                spsi:     113.46 MB

     Dynamical RAM for      wfcinit/wfcrot:      93.90 MB

     Dynamical RAM for           addusdens:     975.89 MB

     Estimated static dynamical RAM per process >     487.63 MB

     Estimated max dynamical RAM per process >       1.43 GB

     Estimated total dynamical RAM >       8.58 GB
     Generating pointlists ...
     new r_m :   0.0252 (alat units)  0.5862 (a.u.) for type    1
     new r_m :   0.0476 (alat units)  1.1095 (a.u.) for type    2
     new r_m :   0.0476 (alat units)  1.1095 (a.u.) for type    3

     Check: negative core charge=   -0.000002

     Initial potential from superposition of free atoms

     starting charge  210.80465, renormalised to  211.00000

     negative rho (up, down):  1.234E-04 1.634E-02


---------------------------------------------------------------------------------
Carrying out rVV10 run using the following parameters:
Nqs =      20    Nr_points =    1024   r_max =   100.000
b_value =  6.30000    beta =  0.00901
     q_mesh =  0.00010000  0.00030000  0.00058939  0.00100810
               0.00161396  0.00249058  0.00375900  0.00559430
               0.00824984  0.01209221  0.01765183  0.02569619
               0.03733578  0.05417739  0.07854596  0.11380545
               0.16482331  0.23864234  0.34545298  0.50000000

Gradients computed in Reciprocal space

---------------------------------------------------------------------------------


     Starting wfcs are  208 randomized atomic wfcs

     total cpu time spent up to now is       75.8 secs

     Self-consistent Calculation

     iteration #  1     ecut=    70.00 Ry     beta= 0.70
     Davidson diagonalization with overlap
     ethr =  1.00E-02,  avg # of iterations =  2.5

     negative rho (up, down):  2.552E-04 1.368E-02

     total cpu time spent up to now is      207.5 secs

     total energy              =    -752.79413934 Ry
     Harris-Foulkes estimate   =    -756.98734941 Ry
     estimated scf accuracy    <      12.06470510 Ry

     total magnetization       =     5.00 Bohr mag/cell
     absolute magnetization    =     6.04 Bohr mag/cell

     iteration #  2     ecut=    70.00 Ry     beta= 0.70
     Davidson diagonalization with overlap
     ethr =  5.72E-03,  avg # of iterations =  6.5

     negative rho (up, down):  3.600E-03 1.893E-01

     total cpu time spent up to now is      331.4 secs

     total energy              =    -746.52778260 Ry
     Harris-Foulkes estimate   =    -768.42893454 Ry
     estimated scf accuracy    <      75.26645223 Ry

     total magnetization       =     3.00 Bohr mag/cell
     absolute magnetization    =     3.37 Bohr mag/cell

     iteration #  3     ecut=    70.00 Ry     beta= 0.70
     Davidson diagonalization with overlap
     ethr =  5.72E-03,  avg # of iterations =  5.5

     negative rho (up, down):  1.588E-03 2.139E-02

     total cpu time spent up to now is      501.4 secs

     total energy              =    -755.73374380 Ry
     Harris-Foulkes estimate   =    -758.05631912 Ry
     estimated scf accuracy    <      10.47248979 Ry

     total magnetization       =     5.00 Bohr mag/cell
     absolute magnetization    =     5.82 Bohr mag/cell

     iteration #  4     ecut=    70.00 Ry     beta= 0.70
     Davidson diagonalization with overlap
     ethr =  4.96E-03,  avg # of iterations =  2.5

     negative rho (up, down):  4.525E-02 2.364E-02

     total cpu time spent up to now is      599.1 secs

     total energy              =    -757.04893209 Ry
     Harris-Foulkes estimate   =    -757.48720432 Ry
     estimated scf accuracy    <       1.30803904 Ry

     total magnetization       =     1.00 Bohr mag/cell
     absolute magnetization    =     1.80 Bohr mag/cell

     iteration #  5     ecut=    70.00 Ry     beta= 0.70
     Davidson diagonalization with overlap
     ethr =  6.20E-04,  avg # of iterations =  6.5

     negative rho (up, down):  5.163E-02 2.011E-02

     total cpu time spent up to now is      716.6 secs

     total energy              =    -757.21787169 Ry
     Harris-Foulkes estimate   =    -757.32949957 Ry
     estimated scf accuracy    <       0.36512800 Ry

     total magnetization       =     1.00 Bohr mag/cell
     absolute magnetization    =     1.55 Bohr mag/cell

     iteration #  6     ecut=    70.00 Ry     beta= 0.70
     Davidson diagonalization with overlap
     ethr =  1.73E-04,  avg # of iterations =  4.0

     negative rho (up, down):  2.860E-02 2.084E-02

     total cpu time spent up to now is      826.6 secs

     total energy              =    -757.29405637 Ry
     Harris-Foulkes estimate   =    -757.32366485 Ry
     estimated scf accuracy    <       0.20203082 Ry

     total magnetization       =     1.00 Bohr mag/cell
     absolute magnetization    =     1.44 Bohr mag/cell

     iteration #  7     ecut=    70.00 Ry     beta= 0.70
     Davidson diagonalization with overlap
     ethr =  9.57E-05,  avg # of iterations =  3.5

     negative rho (up, down):  3.452E-02 1.399E-02

     total cpu time spent up to now is      929.0 secs

     total energy              =    -757.31920370 Ry
     Harris-Foulkes estimate   =    -757.33005671 Ry
     estimated scf accuracy    <       0.04683813 Ry

     total magnetization       =     1.00 Bohr mag/cell
     absolute magnetization    =     1.40 Bohr mag/cell

     iteration #  8     ecut=    70.00 Ry     beta= 0.70
     Davidson diagonalization with overlap
     ethr =  2.22E-05,  avg # of iterations =  5.5

     negative rho (up, down):  3.049E-02 3.155E-02

     total cpu time spent up to now is     1047.6 secs

     total energy              =    -757.32784889 Ry
     Harris-Foulkes estimate   =    -757.33416409 Ry
     estimated scf accuracy    <       0.04113428 Ry

     total magnetization       =     1.00 Bohr mag/cell
     absolute magnetization    =     1.38 Bohr mag/cell

     iteration #  9     ecut=    70.00 Ry     beta= 0.70
     Davidson diagonalization with overlap
     ethr =  1.95E-05,  avg # of iterations =  5.0

     negative rho (up, down):  3.391E-02 2.260E-02

     total cpu time spent up to now is     1151.6 secs

     total energy              =    -757.33249710 Ry
     Harris-Foulkes estimate   =    -757.33365913 Ry
     estimated scf accuracy    <       0.00869332 Ry

     total magnetization       =     1.00 Bohr mag/cell
     absolute magnetization    =     1.40 Bohr mag/cell

     iteration # 10     ecut=    70.00 Ry     beta= 0.70
     Davidson diagonalization with overlap
     ethr =  4.12E-06,  avg # of iterations =  3.0

     negative rho (up, down):  3.690E-02 1.635E-02

     total cpu time spent up to now is     1250.8 secs

     total energy              =    -757.33243977 Ry
     Harris-Foulkes estimate   =    -757.33376156 Ry
     estimated scf accuracy    <       0.00685899 Ry

     total magnetization       =     1.00 Bohr mag/cell
     absolute magnetization    =     1.41 Bohr mag/cell

     iteration # 11     ecut=    70.00 Ry     beta= 0.70
     Davidson diagonalization with overlap
     ethr =  3.25E-06,  avg # of iterations =  3.0

     negative rho (up, down):  3.495E-02 1.583E-02

     total cpu time spent up to now is     1351.3 secs

     total energy              =    -757.33329119 Ry
     Harris-Foulkes estimate   =    -757.33366568 Ry
     estimated scf accuracy    <       0.01396710 Ry

     total magnetization       =     1.00 Bohr mag/cell
     absolute magnetization    =     1.44 Bohr mag/cell

     iteration # 12     ecut=    70.00 Ry     beta= 0.70
     Davidson diagonalization with overlap
     ethr =  3.25E-06,  avg # of iterations =  3.0

     negative rho (up, down):  3.333E-02 7.195E-03

     total cpu time spent up to now is     1452.2 secs

     total energy              =    -757.33487986 Ry
     Harris-Foulkes estimate   =    -757.33387255 Ry
     estimated scf accuracy    <       0.00018596 Ry

     total magnetization       =     1.00 Bohr mag/cell
     absolute magnetization    =     1.43 Bohr mag/cell

     iteration # 13     ecut=    70.00 Ry     beta= 0.70
     Davidson diagonalization with overlap
     ethr =  8.81E-08,  avg # of iterations =  4.0

     negative rho (up, down):  3.367E-02 3.553E-03

     total cpu time spent up to now is     1578.5 secs

     total energy              =    -757.33498231 Ry
     Harris-Foulkes estimate   =    -757.33497485 Ry
     estimated scf accuracy    <       0.00014511 Ry

     total magnetization       =     1.00 Bohr mag/cell
     absolute magnetization    =     1.46 Bohr mag/cell

     iteration # 14     ecut=    70.00 Ry     beta= 0.70
     Davidson diagonalization with overlap
     ethr =  6.88E-08,  avg # of iterations =  3.0

     negative rho (up, down):  3.390E-02 2.374E-03

     total cpu time spent up to now is     1685.0 secs

     total energy              =    -757.33501720 Ry
     Harris-Foulkes estimate   =    -757.33502034 Ry
     estimated scf accuracy    <       0.00004615 Ry

     total magnetization       =     1.00 Bohr mag/cell
     absolute magnetization    =     1.48 Bohr mag/cell

     iteration # 15     ecut=    70.00 Ry     beta= 0.70
     Davidson diagonalization with overlap
     ethr =  2.19E-08,  avg # of iterations =  3.5

     negative rho (up, down):  3.403E-02 3.385E-03

     total cpu time spent up to now is     1792.1 secs

     total energy              =    -757.33502766 Ry
     Harris-Foulkes estimate   =    -757.33502940 Ry
     estimated scf accuracy    <       0.00003803 Ry

     total magnetization       =     1.00 Bohr mag/cell
     absolute magnetization    =     1.49 Bohr mag/cell

     iteration # 16     ecut=    70.00 Ry     beta= 0.70
     Davidson diagonalization with overlap
     ethr =  1.80E-08,  avg # of iterations =  2.0

     negative rho (up, down):  3.408E-02 2.891E-03

     total cpu time spent up to now is     1888.5 secs

     total energy              =    -757.33503214 Ry
     Harris-Foulkes estimate   =    -757.33503186 Ry
     estimated scf accuracy    <       0.00001956 Ry

     total magnetization       =     1.00 Bohr mag/cell
     absolute magnetization    =     1.49 Bohr mag/cell

     iteration # 17     ecut=    70.00 Ry     beta= 0.70
     Davidson diagonalization with overlap
     ethr =  9.27E-09,  avg # of iterations =  1.5

     negative rho (up, down):  3.407E-02 1.956E-03

     total cpu time spent up to now is     1984.1 secs

     total energy              =    -757.33503418 Ry
     Harris-Foulkes estimate   =    -757.33503305 Ry
     estimated scf accuracy    <       0.00001059 Ry

     total magnetization       =     1.00 Bohr mag/cell
     absolute magnetization    =     1.50 Bohr mag/cell

     iteration # 18     ecut=    70.00 Ry     beta= 0.70
     Davidson diagonalization with overlap
     ethr =  5.02E-09,  avg # of iterations =  2.0

     negative rho (up, down):  3.411E-02 2.475E-03

     total cpu time spent up to now is     2080.8 secs

     total energy              =    -757.33503368 Ry
     Harris-Foulkes estimate   =    -757.33503502 Ry
     estimated scf accuracy    <       0.00000381 Ry

     total magnetization       =     1.00 Bohr mag/cell
     absolute magnetization    =     1.51 Bohr mag/cell

     iteration # 19     ecut=    70.00 Ry     beta= 0.70
     Davidson diagonalization with overlap
     ethr =  1.81E-09,  avg # of iterations =  3.0

     negative rho (up, down):  3.409E-02 2.014E-03

     total cpu time spent up to now is     2179.1 secs

     total energy              =    -757.33503550 Ry
     Harris-Foulkes estimate   =    -757.33503414 Ry
     estimated scf accuracy    <       0.00000379 Ry

     total magnetization       =     1.00 Bohr mag/cell
     absolute magnetization    =     1.52 Bohr mag/cell

     iteration # 20     ecut=    70.00 Ry     beta= 0.70
     Davidson diagonalization with overlap
     ethr =  1.79E-09,  avg # of iterations =  1.0

     negative rho (up, down):  3.406E-02 2.195E-03

     total cpu time spent up to now is     2274.5 secs

     total energy              =    -757.33503549 Ry
     Harris-Foulkes estimate   =    -757.33503572 Ry
     estimated scf accuracy    <       0.00000346 Ry

     total magnetization       =     1.00 Bohr mag/cell
     absolute magnetization    =     1.52 Bohr mag/cell

     iteration # 21     ecut=    70.00 Ry     beta= 0.70
     Davidson diagonalization with overlap
     ethr =  1.64E-09,  avg # of iterations =  3.0

     negative rho (up, down):  3.409E-02 1.907E-03

     total cpu time spent up to now is     2375.1 secs

     total energy              =    -757.33503552 Ry
     Harris-Foulkes estimate   =    -757.33503596 Ry
     estimated scf accuracy    <       0.00000181 Ry

     total magnetization       =     1.00 Bohr mag/cell
     absolute magnetization    =     1.53 Bohr mag/cell

     iteration # 22     ecut=    70.00 Ry     beta= 0.70
     Davidson diagonalization with overlap
     ethr =  8.60E-10,  avg # of iterations =  6.5

     negative rho (up, down):  3.407E-02 1.829E-03

     Magnetic moment per site:
     atom:    1    charge:    0.2126    magn:   -0.0001    constr:    0.0000
     atom:    2    charge:    0.2085    magn:   -0.0000    constr:    0.0000
     atom:    3    charge:    1.7177    magn:   -0.0068    constr:    0.0000
     atom:    4    charge:    1.7156    magn:    0.0093    constr:    0.0000
     atom:    5    charge:    1.7183    magn:   -0.0041    constr:    0.0000
     atom:    6    charge:    1.7140    magn:    0.0026    constr:    0.0000
     atom:    7    charge:    1.7183    magn:   -0.0042    constr:    0.0000
     atom:    8    charge:    1.7157    magn:    0.0097    constr:    0.0000
     atom:    9    charge:    1.7176    magn:   -0.0069    constr:    0.0000
     atom:   10    charge:    1.7148    magn:    0.0325    constr:    0.0000
     atom:   11    charge:    1.7186    magn:   -0.0089    constr:    0.0000
     atom:   12    charge:    1.7144    magn:    0.0309    constr:    0.0000
     atom:   13    charge:    1.7186    magn:   -0.0088    constr:    0.0000
     atom:   14    charge:    1.7147    magn:    0.0242    constr:    0.0000
     atom:   15    charge:    1.7169    magn:   -0.0081    constr:    0.0000
     atom:   16    charge:    1.7111    magn:    0.0316    constr:    0.0000
     atom:   17    charge:    1.7270    magn:   -0.0055    constr:    0.0000
     atom:   18    charge:    1.7112    magn:    0.0314    constr:    0.0000
     atom:   19    charge:    1.7169    magn:   -0.0081    constr:    0.0000
     atom:   20    charge:    1.7145    magn:    0.0231    constr:    0.0000
     atom:   21    charge:    1.7186    magn:   -0.0089    constr:    0.0000
     atom:   22    charge:    1.7142    magn:    0.0292    constr:    0.0000
     atom:   23    charge:    1.7178    magn:   -0.0066    constr:    0.0000
     atom:   24    charge:    1.7156    magn:    0.0089    constr:    0.0000
     atom:   25    charge:    1.7169    magn:   -0.0079    constr:    0.0000
     atom:   26    charge:    1.7112    magn:    0.0299    constr:    0.0000
     atom:   27    charge:    1.9147    magn:   -0.0001    constr:    0.0000
     atom:   28    charge:    7.8604    magn:    0.1019    constr:    0.0000
     atom:   29    charge:    1.9148    magn:   -0.0004    constr:    0.0000
     atom:   30    charge:    1.7109    magn:    0.0282    constr:    0.0000
     atom:   31    charge:    1.7170    magn:   -0.0076    constr:    0.0000
     atom:   32    charge:    1.7157    magn:    0.0089    constr:    0.0000
     atom:   33    charge:    1.7183    magn:   -0.0040    constr:    0.0000
     atom:   34    charge:    1.7138    magn:    0.0065    constr:    0.0000
     atom:   35    charge:    1.7183    magn:   -0.0040    constr:    0.0000
     atom:   36    charge:    1.7141    magn:    0.0025    constr:    0.0000
     atom:   37    charge:    1.7269    magn:   -0.0050    constr:    0.0000
     atom:   38    charge:    1.7115    magn:    0.0289    constr:    0.0000
     atom:   39    charge:    1.9156    magn:   -0.0005    constr:    0.0000
     atom:   40    charge:    1.7110    magn:    0.0275    constr:    0.0000
     atom:   41    charge:    1.7270    magn:   -0.0048    constr:    0.0000
     atom:   42    charge:    1.7141    magn:    0.0025    constr:    0.0000
     atom:   43    charge:    1.7183    magn:   -0.0041    constr:    0.0000
     atom:   44    charge:    1.7138    magn:    0.0068    constr:    0.0000
     atom:   45    charge:    1.7246    magn:   -0.0030    constr:    0.0000
     atom:   46    charge:    1.7139    magn:    0.0070    constr:    0.0000
     atom:   47    charge:    1.7183    magn:   -0.0041    constr:    0.0000
     atom:   48    charge:    1.7158    magn:    0.0097    constr:    0.0000
     atom:   49    charge:    1.7169    magn:   -0.0076    constr:    0.0000
     atom:   50    charge:    1.7144    magn:    0.0218    constr:    0.0000
     atom:   51    charge:    1.7170    magn:   -0.0075    constr:    0.0000
     atom:   52    charge:    1.7157    magn:    0.0093    constr:    0.0000

     total cpu time spent up to now is     2482.0 secs

     End of self-consistent calculation

 ------ SPIN UP ------------


          k = 0.0000 0.0000 0.0000 ( 87777 PWs)   bands (ev):

   -62.8151 -37.9026 -37.8981 -36.5783 -19.6207 -18.7811 -18.7747 -18.7080
   -18.6638 -18.6600 -18.2239 -16.9233 -16.9220 -16.9209 -16.7854 -16.7827
   -16.5022 -16.0686 -16.0678 -15.9748 -15.8190 -15.8177 -15.0668 -13.8797
   -13.8737 -13.8716 -13.8482 -13.8479 -13.1181 -12.9034 -12.9025 -12.8853
   -12.4910 -12.4899 -12.0989 -11.6303 -11.6297 -11.5060 -11.1248 -11.1238
   -10.1373  -9.3217  -9.3202  -9.2408  -9.1678  -9.1674  -9.0783  -9.0542
    -9.0534  -9.0379  -8.4508  -8.4485  -7.8961  -7.8789  -7.8782  -7.8423
    -7.6613  -7.6044  -7.2400  -7.2378  -6.9475  -6.9155  -6.8759  -6.6876
    -6.6860  -6.6802  -6.5758  -6.5749  -6.5287  -6.4218  -6.4190  -6.3761
    -6.3725  -6.3707  -6.3190  -6.2127  -5.2454  -5.2439  -5.1406  -5.1212
    -4.9305  -4.9297  -4.8197  -4.7317  -4.6081  -4.5967  -4.5959  -4.2173
    -3.9717  -3.9692  -3.7486  -3.7457  -3.6462  -3.6024  -3.4839  -3.4838
    -2.8537  -2.2461  -2.2439  -2.1979  -2.1960  -1.7348  -1.6697  -1.6681
    -0.4973  -0.2253  -0.2241   1.0619   1.0906   1.0940   1.1629   1.8230
     2.0630   2.0643   2.5291   2.9037   2.9096   2.9865   3.2107   3.4848
     3.6954   3.7367   3.7521   3.7918   3.9540   4.0097   4.0152

     occupation numbers 
     1.0000   1.0000   1.0000   1.0000   1.0000   1.0000   1.0000   1.0000
     1.0000   1.0000   1.0000   1.0000   1.0000   1.0000   1.0000   1.0000
     1.0000   1.0000   1.0000   1.0000   1.0000   1.0000   1.0000   1.0000
     1.0000   1.0000   1.0000   1.0000   1.0000   1.0000   1.0000   1.0000
     1.0000   1.0000   1.0000   1.0000   1.0000   1.0000   1.0000   1.0000
     1.0000   1.0000   1.0000   1.0000   1.0000   1.0000   1.0000   1.0000
     1.0000   1.0000   1.0000   1.0000   1.0000   1.0000   1.0000   1.0000
     1.0000   1.0000   1.0000   1.0000   1.0000   1.0000   1.0000   1.0000
     1.0000   1.0000   1.0000   1.0000   1.0000   1.0000   1.0000   1.0000
     1.0000   1.0000   1.0000   1.0000   1.0000   1.0000   1.0000   1.0000
     1.0000   1.0000   1.0000   1.0000   1.0000   1.0000   1.0000   1.0000
     1.0000   1.0000   1.0000   1.0000   1.0000   1.0000   1.0000   1.0000
     1.0000   1.0000   1.0000   1.0000   1.0000   1.0000   1.0000   1.0000
     1.0000   0.5340   0.4660   0.0000   0.0000   0.0000   0.0000   0.0000
     0.0000   0.0000   0.0000   0.0000   0.0000   0.0000   0.0000   0.0000
     0.0000   0.0000   0.0000   0.0000   0.0000   0.0000   0.0000

 ------ SPIN DOWN ----------


          k = 0.0000 0.0000 0.0000 ( 87777 PWs)   bands (ev):

   -62.6182 -37.7453 -37.7308 -36.3091 -19.5989 -18.7601 -18.7524 -18.6878
   -18.6472 -18.6432 -18.1919 -16.9072 -16.9036 -16.9016 -16.7575 -16.7539
   -16.4880 -16.0412 -16.0409 -15.9590 -15.7980 -15.7965 -15.0521 -13.8460
   -13.8441 -13.8423 -13.8339 -13.8287 -13.1210 -12.8931 -12.8917 -12.8696
   -12.4829 -12.4816 -12.0805 -11.6123 -11.6119 -11.4927 -11.1126 -11.1110
   -10.1227  -9.3049  -9.3030  -9.2279  -9.1506  -9.1498  -9.0702  -9.0397
    -9.0395  -9.0286  -8.4441  -8.4415  -7.8675  -7.8667  -7.8635  -7.8303
    -7.6529  -7.5805  -7.2311  -7.2289  -6.8693  -6.8625  -6.8355  -6.6547
    -6.6522  -6.6325  -6.5644  -6.5636  -6.5190  -6.4123  -6.4094  -6.3704
    -6.3656  -6.3641  -6.3108  -6.1364  -5.2373  -5.2355  -5.0542  -5.0375
    -4.9206  -4.9198  -4.8139  -4.7256  -4.5663  -4.5461  -4.5442  -4.1799
    -3.9204  -3.9176  -3.6741  -3.6717  -3.6000  -3.5721  -3.4774  -3.4771
    -2.8191  -2.1794  -2.1750  -2.1323  -2.1294  -1.6546  -1.6527  -1.6398
    -0.4924  -0.0057   0.0096   1.1114   1.1148   1.1398   1.2392   1.8929
     2.1320   2.1363   2.5349   2.9733   2.9811   3.0275   3.2238   3.4927
     3.7266   3.7396   3.7543   3.8018   3.9729   4.0768   4.0878

     occupation numbers 
     1.0000   1.0000   1.0000   1.0000   1.0000   1.0000   1.0000   1.0000
     1.0000   1.0000   1.0000   1.0000   1.0000   1.0000   1.0000   1.0000
     1.0000   1.0000   1.0000   1.0000   1.0000   1.0000   1.0000   1.0000
     1.0000   1.0000   1.0000   1.0000   1.0000   1.0000   1.0000   1.0000
     1.0000   1.0000   1.0000   1.0000   1.0000   1.0000   1.0000   1.0000
     1.0000   1.0000   1.0000   1.0000   1.0000   1.0000   1.0000   1.0000
     1.0000   1.0000   1.0000   1.0000   1.0000   1.0000   1.0000   1.0000
     1.0000   1.0000   1.0000   1.0000   1.0000   1.0000   1.0000   1.0000
     1.0000   1.0000   1.0000   1.0000   1.0000   1.0000   1.0000   1.0000
     1.0000   1.0000   1.0000   1.0000   1.0000   1.0000   1.0000   1.0000
     1.0000   1.0000   1.0000   1.0000   1.0000   1.0000   1.0000   1.0000
     1.0000   1.0000   1.0000   1.0000   1.0000   1.0000   1.0000   1.0000
     1.0000   1.0000   1.0000   1.0000   1.0000   1.0000   1.0000   1.0000
     1.0000   0.0000   0.0000   0.0000   0.0000   0.0000   0.0000   0.0000
     0.0000   0.0000   0.0000   0.0000   0.0000   0.0000   0.0000   0.0000
     0.0000   0.0000   0.0000   0.0000   0.0000   0.0000   0.0000

     the Fermi energy is    -0.2228 ev

!    total energy              =    -757.33503617 Ry
     Harris-Foulkes estimate   =    -757.33503590 Ry
     estimated scf accuracy    <       0.00000033 Ry

     The total energy is the sum of the following terms:

     one-electron contribution =   -2594.66412796 Ry
     hartree contribution      =    1344.25058370 Ry
     xc contribution           =    -252.68414026 Ry
     ewald contribution        =     745.76297496 Ry
     smearing contrib. (-TS)   =      -0.00032661 Ry

     total magnetization       =     1.00 Bohr mag/cell
     absolute magnetization    =     1.53 Bohr mag/cell

     convergence has been achieved in  22 iterations

     Writing output data file vanadio-bridge-distance-2.6.save/

     init_run     :     73.16s CPU     74.59s WALL (       1 calls)
     electrons    :   2366.64s CPU   2406.32s WALL (       1 calls)

     Called by init_run:
     wfcinit      :     43.87s CPU     44.18s WALL (       1 calls)
     wfcinit:atom :      0.05s CPU      0.09s WALL (       2 calls)
     wfcinit:wfcr :     43.44s CPU     43.65s WALL (       2 calls)
     potinit      :     12.30s CPU     12.75s WALL (       1 calls)
     hinit0       :      8.24s CPU      8.29s WALL (       1 calls)

     Called by electrons:
     c_bands      :   1546.70s CPU   1554.82s WALL (      22 calls)
     sum_band     :    476.94s CPU    489.74s WALL (      22 calls)
     v_of_rho     :    171.79s CPU    179.56s WALL (      23 calls)
     v_h          :      1.82s CPU      1.88s WALL (      23 calls)
     v_xc         :    169.97s CPU    177.68s WALL (      23 calls)
     newd         :    170.57s CPU    182.13s WALL (      23 calls)
     mix_rho      :     10.08s CPU     10.31s WALL (      22 calls)

     Called by c_bands:
     init_us_2    :      4.26s CPU      4.30s WALL (      90 calls)
     cegterg      :   1535.53s CPU   1543.61s WALL (      44 calls)

     Called by sum_band:
     sum_band:bec :      0.04s CPU      0.04s WALL (      44 calls)
     addusdens    :    290.95s CPU    302.65s WALL (      22 calls)

     Called by *egterg:
     h_psi        :    820.12s CPU    826.02s WALL (     206 calls)
     s_psi        :    272.62s CPU    272.77s WALL (     206 calls)
     g_psi        :      0.87s CPU      0.87s WALL (     160 calls)
     cdiaghg      :     16.22s CPU     16.23s WALL (     204 calls)
     cegterg:over :    188.34s CPU    188.43s WALL (     160 calls)
     cegterg:upda :    121.69s CPU    122.27s WALL (     160 calls)
     cegterg:last :     78.08s CPU     78.10s WALL (      44 calls)

     Called by h_psi:
     h_psi:pot    :    819.17s CPU    824.16s WALL (     206 calls)
     h_psi:calbec :    273.06s CPU    273.18s WALL (     206 calls)
     vloc_psi     :    273.27s CPU    278.06s WALL (     206 calls)
     add_vuspsi   :    272.84s CPU    272.92s WALL (     206 calls)

     General routines
     calbec       :    384.63s CPU    384.80s WALL (     250 calls)
     fft          :     99.23s CPU    102.51s WALL (    1719 calls)
     ffts         :      1.81s CPU      1.88s WALL (      90 calls)
     fftw         :    287.98s CPU    293.07s WALL (   32976 calls)
     interpolate  :      4.14s CPU      4.28s WALL (      46 calls)

     Parallel routines
     fft_scatt_xy :     72.19s CPU     73.14s WALL (   34785 calls)
     fft_scatt_yz :    126.68s CPU    132.73s WALL (   34785 calls)

     PWSCF        :  40m41.26s CPU  41m22.73s WALL


   This run was terminated on:   7:17:45   1Sep2022            

=------------------------------------------------------------------------------=
   JOB DONE.
=------------------------------------------------------------------------------=
