
     Program PWSCF v.6.4.1 starts on  4Sep2022 at  0:22:32 

     This program is part of the open-source Quantum ESPRESSO suite
     for quantum simulation of materials; please cite
         "P. Giannozzi et al., J. Phys.:Condens. Matter 21 395502 (2009);
         "P. Giannozzi et al., J. Phys.:Condens. Matter 29 465901 (2017);
          URL http://www.quantum-espresso.org", 
     in publications or presentations arising from this work. More details at
     http://www.quantum-espresso.org/quote

     Parallel version (MPI), running on     6 processors

     MPI processes distributed on     1 nodes
     R & G space division:  proc/nbgrp/npool/nimage =       6
     Reading input from distance-2.8.in

     Current dimensions of program PWSCF are:
     Max number of different atomic species (ntypx) = 10
     Max number of k-points (npk) =  40000
     Max angular momentum in pseudopotentials (lmaxx) =  3

     IMPORTANT: XC functional enforced from input :
     Exchange-correlation      = RVV10 ( 1  4 13  4 3 0)
     Any further DFT definition will be discarded
     Please, verify this is what you really want

               file H.pbe-rrkjus.UPF: wavefunction(s)  1S renormalized
               file Mn.pbe-spn-rrkjus_psl.0.3.1.UPF: wavefunction(s)  3D renormalized

     Subspace diagonalization in iterative solution of the eigenvalue problem:
     a serial algorithm will be used


     Parallelization info
     --------------------
     sticks:   dense  smooth     PW     G-vecs:    dense   smooth      PW
     Min        3051    1746    432               270999   117096   14629
     Max        3053    1747    437               271001   117099   14630
     Sum       18313   10477   2611              1626001   702581   87777



     bravais-lattice index     =            4
     lattice parameter (alat)  =      23.2937  a.u.
     unit-cell volume          =    8879.8548 (a.u.)^3
     number of atoms/cell      =           52
     number of atomic types    =            3
     number of electrons       =       213.00
     number of Kohn-Sham states=          128
     kinetic-energy cutoff     =      70.0000  Ry
     charge density cutoff     =     490.0000  Ry
     convergence threshold     =      1.0E-06
     mixing beta               =       0.7000
     number of iterations used =            8  plain     mixing
     Exchange-correlation      = RVV10 ( 1  4 13  4 3 0)

     celldm(1)=  23.293684  celldm(2)=   0.000000  celldm(3)=   0.811261
     celldm(4)=   0.000000  celldm(5)=   0.000000  celldm(6)=   0.000000

     crystal axes: (cart. coord. in units of alat)
               a(1) = (   1.000000   0.000000   0.000000 )  
               a(2) = (  -0.500000   0.866025   0.000000 )  
               a(3) = (   0.000000   0.000000   0.811261 )  

     reciprocal axes: (cart. coord. in units 2 pi/alat)
               b(1) = (  1.000000  0.577350 -0.000000 )  
               b(2) = (  0.000000  1.154701  0.000000 )  
               b(3) = (  0.000000 -0.000000  1.232649 )  


     PseudoPot. # 1 for H  read from file:
     /home/cristian/Escritorio/Proyecto_Grafeno/pseudopotenciales/H.pbe-rrkjus.UPF
     MD5 check sum: 7cc9d459525c9a0585f487a71c3c9563
     Pseudo is Ultrasoft, Zval =  1.0
     Generated by new atomic code, or converted to UPF format
     Using radial grid of 1061 points,  2 beta functions with: 
                l(1) =   0
                l(2) =   0
     Q(r) pseudized with 0 coefficients 


     PseudoPot. # 2 for C  read from file:
     /home/cristian/Escritorio/Proyecto_Grafeno/pseudopotenciales/C.pbe-n-rrkjus_psl.1.0.0.UPF
     MD5 check sum: 1fdd950c42eb37d8afe3dd2f8d12311e
     Pseudo is Ultrasoft + core correction, Zval =  4.0
     Generated using "atomic" code by A. Dal Corso v.6.3MaX
     Using radial grid of 1073 points,  4 beta functions with: 
                l(1) =   0
                l(2) =   0
                l(3) =   1
                l(4) =   1
     Q(r) pseudized with 0 coefficients 


     PseudoPot. # 3 for Mn read from file:
     /home/cristian/Escritorio/Proyecto_Grafeno/pseudopotenciales/Mn.pbe-spn-rrkjus_psl.0.3.1.UPF
     MD5 check sum: e1cac159bdd2ba70c18e85765a5d4279
     Pseudo is Ultrasoft + core correction, Zval = 15.0
     Generated using "atomic" code by A. Dal Corso v.6.2.2
     Using radial grid of 1187 points,  6 beta functions with: 
                l(1) =   0
                l(2) =   0
                l(3) =   1
                l(4) =   1
                l(5) =   2
                l(6) =   2
     Q(r) pseudized with 0 coefficients 


     vdW kernel table read from file rVV10_kernel_table
     MD5 check sum: b8e2538accc0c0b3206b45ba4daaba6c

     atomic species   valence    mass     pseudopotential
        H              1.00     1.00794     H ( 1.00)
        C              4.00    12.01070     C ( 1.00)
        Mn            15.00    54.93804     Mn( 1.00)

     No symmetry found


                                    s                        frac. trans.

      isym =  1     identity                                     

 cryst.   s( 1) = (     1          0          0      )
                  (     0          1          0      )
                  (     0          0          1      )

 cart.    s( 1) = (  1.0000000  0.0000000  0.0000000 )
                  (  0.0000000  1.0000000  0.0000000 )
                  (  0.0000000  0.0000000  1.0000000 )


     point group C_1 (1)    
     there are  1 classes
     the character table:

       E    
A      1.00

     the symmetry operations in each class and the name of the first element:

     E        1
          identity                                               

   Cartesian axes

     site n.     atom                  positions (alat units)
         1           H   tau(   1) = (   0.2194937   0.4330127   0.2271531  )
         2           H   tau(   2) = (   0.2805063   0.4330127   0.2271531  )
         3           C   tau(   3) = (   0.0000000   0.0000000   0.0000000  )
         4           C   tau(   4) = (   0.0000000   0.1154701   0.0000000  )
         5           C   tau(   5) = (  -0.1000000   0.1732051   0.0000000  )
         6           C   tau(   6) = (  -0.1000000   0.2886751   0.0000000  )
         7           C   tau(   7) = (  -0.2000000   0.3464102   0.0000000  )
         8           C   tau(   8) = (  -0.2000000   0.4618802   0.0000000  )
         9           C   tau(   9) = (  -0.3000000   0.5196152   0.0000000  )
        10           C   tau(  10) = (  -0.3000000   0.6350853   0.0000000  )
        11           C   tau(  11) = (  -0.4000000   0.6928203   0.0000000  )
        12           C   tau(  12) = (  -0.4000000   0.8082904   0.0000000  )
        13           C   tau(  13) = (   0.2000000   0.0000000   0.0000000  )
        14           C   tau(  14) = (   0.2000000   0.1154701   0.0000000  )
        15           C   tau(  15) = (   0.1000000   0.1732051   0.0000000  )
        16           C   tau(  16) = (   0.1000000   0.2886751   0.0000000  )
        17           C   tau(  17) = (   0.0000000   0.3464102   0.0000000  )
        18           C   tau(  18) = (   0.0000000   0.4618802   0.0000000  )
        19           C   tau(  19) = (  -0.1000000   0.5196152   0.0000000  )
        20           C   tau(  20) = (  -0.1000000   0.6350853   0.0000000  )
        21           C   tau(  21) = (  -0.2000000   0.6928203   0.0000000  )
        22           C   tau(  22) = (  -0.2000000   0.8082904   0.0000000  )
        23           C   tau(  23) = (   0.4000000   0.0000000   0.0000000  )
        24           C   tau(  24) = (   0.4000000   0.1154701   0.0000000  )
        25           C   tau(  25) = (   0.3000000   0.1732051   0.0000000  )
        26           C   tau(  26) = (   0.3000000   0.2886751   0.0000000  )
        27           C   tau(  27) = (   0.2000000   0.3464102   0.0000000  )
        28           Mn  tau(  28) = (   0.2000000   0.4618802   0.0000000  )
        29           C   tau(  29) = (   0.1000000   0.5196152   0.0000000  )
        30           C   tau(  30) = (   0.1000000   0.6350853   0.0000000  )
        31           C   tau(  31) = (   0.0000000   0.6928203   0.0000000  )
        32           C   tau(  32) = (   0.0000000   0.8082904   0.0000000  )
        33           C   tau(  33) = (   0.6000000   0.0000000   0.0000000  )
        34           C   tau(  34) = (   0.6000000   0.1154701   0.0000000  )
        35           C   tau(  35) = (   0.5000000   0.1732051   0.0000000  )
        36           C   tau(  36) = (   0.5000000   0.2886751   0.0000000  )
        37           C   tau(  37) = (   0.4000000   0.3464102   0.0000000  )
        38           C   tau(  38) = (   0.4000000   0.4618802   0.0000000  )
        39           C   tau(  39) = (   0.3000000   0.5196152   0.0000000  )
        40           C   tau(  40) = (   0.3000000   0.6350853   0.0000000  )
        41           C   tau(  41) = (   0.2000000   0.6928203   0.0000000  )
        42           C   tau(  42) = (   0.2000000   0.8082904   0.0000000  )
        43           C   tau(  43) = (   0.8000000   0.0000000   0.0000000  )
        44           C   tau(  44) = (   0.8000000   0.1154701   0.0000000  )
        45           C   tau(  45) = (   0.7000000   0.1732051   0.0000000  )
        46           C   tau(  46) = (   0.7000000   0.2886751   0.0000000  )
        47           C   tau(  47) = (   0.6000000   0.3464102   0.0000000  )
        48           C   tau(  48) = (   0.6000000   0.4618802   0.0000000  )
        49           C   tau(  49) = (   0.5000000   0.5196152   0.0000000  )
        50           C   tau(  50) = (   0.5000000   0.6350853   0.0000000  )
        51           C   tau(  51) = (   0.4000000   0.6928203   0.0000000  )
        52           C   tau(  52) = (   0.4000000   0.8082904   0.0000000  )

   Crystallographic axes

     site n.     atom                  positions (cryst. coord.)
         1           H   tau(   1) = (  0.4694937  0.5000000  0.2800000  )
         2           H   tau(   2) = (  0.5305063  0.5000000  0.2800000  )
         3           C   tau(   3) = (  0.0000000  0.0000000  0.0000000  )
         4           C   tau(   4) = (  0.0666667  0.1333333  0.0000000  )
         5           C   tau(   5) = (  0.0000000  0.2000000  0.0000000  )
         6           C   tau(   6) = (  0.0666667  0.3333333  0.0000000  )
         7           C   tau(   7) = (  0.0000000  0.4000000  0.0000000  )
         8           C   tau(   8) = (  0.0666667  0.5333333  0.0000000  )
         9           C   tau(   9) = (  0.0000000  0.6000000  0.0000000  )
        10           C   tau(  10) = (  0.0666667  0.7333333  0.0000000  )
        11           C   tau(  11) = (  0.0000000  0.8000000  0.0000000  )
        12           C   tau(  12) = (  0.0666667  0.9333333  0.0000000  )
        13           C   tau(  13) = (  0.2000000  0.0000000  0.0000000  )
        14           C   tau(  14) = (  0.2666667  0.1333333  0.0000000  )
        15           C   tau(  15) = (  0.2000000  0.2000000  0.0000000  )
        16           C   tau(  16) = (  0.2666667  0.3333333  0.0000000  )
        17           C   tau(  17) = (  0.2000000  0.4000000  0.0000000  )
        18           C   tau(  18) = (  0.2666667  0.5333333  0.0000000  )
        19           C   tau(  19) = (  0.2000000  0.6000000  0.0000000  )
        20           C   tau(  20) = (  0.2666667  0.7333333  0.0000000  )
        21           C   tau(  21) = (  0.2000000  0.8000000  0.0000000  )
        22           C   tau(  22) = (  0.2666667  0.9333333  0.0000000  )
        23           C   tau(  23) = (  0.4000000  0.0000000  0.0000000  )
        24           C   tau(  24) = (  0.4666667  0.1333333  0.0000000  )
        25           C   tau(  25) = (  0.4000000  0.2000000  0.0000000  )
        26           C   tau(  26) = (  0.4666667  0.3333333  0.0000000  )
        27           C   tau(  27) = (  0.4000000  0.4000000  0.0000000  )
        28           Mn  tau(  28) = (  0.4666667  0.5333333  0.0000000  )
        29           C   tau(  29) = (  0.4000000  0.6000000  0.0000000  )
        30           C   tau(  30) = (  0.4666667  0.7333333  0.0000000  )
        31           C   tau(  31) = (  0.4000000  0.8000000  0.0000000  )
        32           C   tau(  32) = (  0.4666667  0.9333333  0.0000000  )
        33           C   tau(  33) = (  0.6000000  0.0000000  0.0000000  )
        34           C   tau(  34) = (  0.6666667  0.1333333  0.0000000  )
        35           C   tau(  35) = (  0.6000000  0.2000000  0.0000000  )
        36           C   tau(  36) = (  0.6666667  0.3333333  0.0000000  )
        37           C   tau(  37) = (  0.6000000  0.4000000  0.0000000  )
        38           C   tau(  38) = (  0.6666667  0.5333333  0.0000000  )
        39           C   tau(  39) = (  0.6000000  0.6000000  0.0000000  )
        40           C   tau(  40) = (  0.6666667  0.7333333  0.0000000  )
        41           C   tau(  41) = (  0.6000000  0.8000000  0.0000000  )
        42           C   tau(  42) = (  0.6666667  0.9333333  0.0000000  )
        43           C   tau(  43) = (  0.8000000  0.0000000  0.0000000  )
        44           C   tau(  44) = (  0.8666667  0.1333333  0.0000000  )
        45           C   tau(  45) = (  0.8000000  0.2000000  0.0000000  )
        46           C   tau(  46) = (  0.8666667  0.3333333  0.0000000  )
        47           C   tau(  47) = (  0.8000000  0.4000000  0.0000000  )
        48           C   tau(  48) = (  0.8666667  0.5333333  0.0000000  )
        49           C   tau(  49) = (  0.8000000  0.6000000  0.0000000  )
        50           C   tau(  50) = (  0.8666667  0.7333333  0.0000000  )
        51           C   tau(  51) = (  0.8000000  0.8000000  0.0000000  )
        52           C   tau(  52) = (  0.8666667  0.9333333  0.0000000  )

     number of k points=     1  Marzari-Vanderbilt smearing, width (Ry)=  0.0010
                       cart. coord. in units 2pi/alat
        k(    1) = (   0.0000000   0.0000000   0.0000000), wk =   2.0000000

                       cryst. coord.
        k(    1) = (   0.0000000   0.0000000   0.0000000), wk =   2.0000000

     Dense  grid:  1626001 G-vectors     FFT dimensions: ( 180, 180, 135)

     Smooth grid:   702581 G-vectors     FFT dimensions: ( 125, 125, 108)

     Dynamical RAM for                 wfc:      28.59 MB

     Dynamical RAM for     wfc (w. buffer):      28.59 MB

     Dynamical RAM for           str. fact:      12.41 MB

     Dynamical RAM for           local pot:       0.00 MB

     Dynamical RAM for          nlocal pot:      92.46 MB

     Dynamical RAM for                qrad:      19.73 MB

     Dynamical RAM for          rho,v,vnew:      29.46 MB

     Dynamical RAM for               rhoin:       9.82 MB

     Dynamical RAM for            rho*nmix:      66.16 MB

     Dynamical RAM for           G-vectors:      16.40 MB

     Dynamical RAM for          h,s,v(r/c):      12.00 MB

     Dynamical RAM for          <psi|beta>:       0.81 MB

     Dynamical RAM for                 psi:     114.35 MB

     Dynamical RAM for                hpsi:     114.35 MB

     Dynamical RAM for                spsi:     114.35 MB

     Dynamical RAM for      wfcinit/wfcrot:      93.90 MB

     Dynamical RAM for           addusdens:     971.75 MB

     Estimated static dynamical RAM per process >     320.00 MB

     Estimated max dynamical RAM per process >       1.26 GB

     Estimated total dynamical RAM >       7.57 GB

     Check: negative core charge=   -0.000002

     Initial potential from superposition of free atoms

     starting charge  212.80506, renormalised to  213.00000

     negative rho (up, down):  7.073E-05 0.000E+00


---------------------------------------------------------------------------------
Carrying out rVV10 run using the following parameters:
Nqs =      20    Nr_points =    1024   r_max =   100.000
b_value =  6.30000    beta =  0.00901
     q_mesh =  0.00010000  0.00030000  0.00058939  0.00100810
               0.00161396  0.00249058  0.00375900  0.00559430
               0.00824984  0.01209221  0.01765183  0.02569619
               0.03733578  0.05417739  0.07854596  0.11380545
               0.16482331  0.23864234  0.34545298  0.50000000

Gradients computed in Reciprocal space

---------------------------------------------------------------------------------


     Starting wfcs are  208 randomized atomic wfcs

     total cpu time spent up to now is       53.2 secs

     Self-consistent Calculation

     iteration #  1     ecut=    70.00 Ry     beta= 0.70
     Davidson diagonalization with overlap
     ethr =  1.00E-02,  avg # of iterations =  2.0

     negative rho (up, down):  1.387E-04 0.000E+00

     total cpu time spent up to now is      124.8 secs

     total energy              =    -822.82999660 Ry
     Harris-Foulkes estimate   =    -828.81753857 Ry
     estimated scf accuracy    <       8.71116888 Ry

     iteration #  2     ecut=    70.00 Ry     beta= 0.70
     Davidson diagonalization with overlap
     ethr =  4.09E-03,  avg # of iterations =  7.0

     negative rho (up, down):  1.701E-04 0.000E+00

     total cpu time spent up to now is      192.2 secs

     total energy              =    -815.43598468 Ry
     Harris-Foulkes estimate   =    -836.28033280 Ry
     estimated scf accuracy    <      85.05996797 Ry

     iteration #  3     ecut=    70.00 Ry     beta= 0.70
     Davidson diagonalization with overlap
     ethr =  4.09E-03,  avg # of iterations =  5.0

     negative rho (up, down):  2.234E-04 0.000E+00

     total cpu time spent up to now is      286.6 secs

     total energy              =    -825.01236354 Ry
     Harris-Foulkes estimate   =    -826.81300111 Ry
     estimated scf accuracy    <       7.95607560 Ry

     iteration #  4     ecut=    70.00 Ry     beta= 0.70
     Davidson diagonalization with overlap
     ethr =  3.74E-03,  avg # of iterations =  3.0

     negative rho (up, down):  2.537E-04 0.000E+00

     total cpu time spent up to now is      339.4 secs

     total energy              =    -825.65233716 Ry
     Harris-Foulkes estimate   =    -826.21506202 Ry
     estimated scf accuracy    <       1.56974228 Ry

     iteration #  5     ecut=    70.00 Ry     beta= 0.70
     Davidson diagonalization with overlap
     ethr =  7.37E-04,  avg # of iterations =  4.0

     negative rho (up, down):  2.749E-04 0.000E+00

     total cpu time spent up to now is      396.0 secs

     total energy              =    -825.87312586 Ry
     Harris-Foulkes estimate   =    -825.96037137 Ry
     estimated scf accuracy    <       0.43903868 Ry

     iteration #  6     ecut=    70.00 Ry     beta= 0.70
     Davidson diagonalization with overlap
     ethr =  2.06E-04,  avg # of iterations = 12.0

     negative rho (up, down):  2.905E-04 0.000E+00

     total cpu time spent up to now is      448.3 secs

     total energy              =    -825.84155249 Ry
     Harris-Foulkes estimate   =    -825.90673587 Ry
     estimated scf accuracy    <       0.39737627 Ry

     iteration #  7     ecut=    70.00 Ry     beta= 0.70
     Davidson diagonalization with overlap
     ethr =  1.87E-04,  avg # of iterations =  3.0

     negative rho (up, down):  3.829E-04 0.000E+00

     total cpu time spent up to now is      499.3 secs

     total energy              =    -825.90777353 Ry
     Harris-Foulkes estimate   =    -825.94928934 Ry
     estimated scf accuracy    <       0.43777115 Ry

     iteration #  8     ecut=    70.00 Ry     beta= 0.70
     Davidson diagonalization with overlap
     ethr =  1.87E-04,  avg # of iterations =  1.0

     negative rho (up, down):  4.176E-04 0.000E+00

     total cpu time spent up to now is      548.7 secs

     total energy              =    -825.90655402 Ry
     Harris-Foulkes estimate   =    -825.91940616 Ry
     estimated scf accuracy    <       0.23899960 Ry

     iteration #  9     ecut=    70.00 Ry     beta= 0.70
     Davidson diagonalization with overlap
     ethr =  1.12E-04,  avg # of iterations =  1.0

     negative rho (up, down):  4.804E-04 0.000E+00

     total cpu time spent up to now is      598.3 secs

     total energy              =    -825.90453716 Ry
     Harris-Foulkes estimate   =    -825.91559211 Ry
     estimated scf accuracy    <       0.27290458 Ry

     iteration # 10     ecut=    70.00 Ry     beta= 0.70
     Davidson diagonalization with overlap
     ethr =  1.12E-04,  avg # of iterations =  1.0

     negative rho (up, down):  5.337E-04 0.000E+00

     total cpu time spent up to now is      648.1 secs

     total energy              =    -825.90063769 Ry
     Harris-Foulkes estimate   =    -825.90868019 Ry
     estimated scf accuracy    <       0.22052293 Ry

     iteration # 11     ecut=    70.00 Ry     beta= 0.70
     Davidson diagonalization with overlap
     ethr =  1.04E-04,  avg # of iterations =  1.0

     negative rho (up, down):  5.493E-04 0.000E+00

     total cpu time spent up to now is      700.1 secs

     total energy              =    -825.89964504 Ry
     Harris-Foulkes estimate   =    -825.90447501 Ry
     estimated scf accuracy    <       0.17768554 Ry

     iteration # 12     ecut=    70.00 Ry     beta= 0.70
     Davidson diagonalization with overlap
     ethr =  8.34E-05,  avg # of iterations =  1.0

     negative rho (up, down):  5.689E-04 0.000E+00

     total cpu time spent up to now is      749.6 secs

     total energy              =    -825.89539690 Ry
     Harris-Foulkes estimate   =    -825.90194046 Ry
     estimated scf accuracy    <       0.15596482 Ry

     iteration # 13     ecut=    70.00 Ry     beta= 0.70
     Davidson diagonalization with overlap
     ethr =  7.32E-05,  avg # of iterations =  1.0

     negative rho (up, down):  5.883E-04 0.000E+00

     total cpu time spent up to now is      799.1 secs

     total energy              =    -825.89363332 Ry
     Harris-Foulkes estimate   =    -825.89654359 Ry
     estimated scf accuracy    <       0.06277954 Ry

     iteration # 14     ecut=    70.00 Ry     beta= 0.70
     Davidson diagonalization with overlap
     ethr =  2.95E-05,  avg # of iterations =  1.0

     negative rho (up, down):  6.325E-04 0.000E+00

     total cpu time spent up to now is      848.4 secs

     total energy              =    -825.88787018 Ry
     Harris-Foulkes estimate   =    -825.89771660 Ry
     estimated scf accuracy    <       0.55646609 Ry

     iteration # 15     ecut=    70.00 Ry     beta= 0.70
     Davidson diagonalization with overlap
     ethr =  2.95E-05,  avg # of iterations =  1.0

     negative rho (up, down):  6.558E-04 0.000E+00

     total cpu time spent up to now is      897.8 secs

     total energy              =    -825.89386494 Ry
     Harris-Foulkes estimate   =    -825.89616741 Ry
     estimated scf accuracy    <       0.05094461 Ry

     iteration # 16     ecut=    70.00 Ry     beta= 0.70
     Davidson diagonalization with overlap
     ethr =  2.39E-05,  avg # of iterations =  1.0

     negative rho (up, down):  6.444E-04 0.000E+00

     total cpu time spent up to now is      947.1 secs

     total energy              =    -825.89492889 Ry
     Harris-Foulkes estimate   =    -825.89511245 Ry
     estimated scf accuracy    <       0.00745323 Ry

     iteration # 17     ecut=    70.00 Ry     beta= 0.70
     Davidson diagonalization with overlap
     ethr =  3.50E-06,  avg # of iterations =  1.0

     negative rho (up, down):  6.434E-04 0.000E+00

     total cpu time spent up to now is      996.7 secs

     total energy              =    -825.89518778 Ry
     Harris-Foulkes estimate   =    -825.89512603 Ry
     estimated scf accuracy    <       0.03859373 Ry

     iteration # 18     ecut=    70.00 Ry     beta= 0.70
     Davidson diagonalization with overlap
     ethr =  3.50E-06,  avg # of iterations =  1.0

     negative rho (up, down):  6.506E-04 0.000E+00

     total cpu time spent up to now is     1045.9 secs

     total energy              =    -825.89447336 Ry
     Harris-Foulkes estimate   =    -825.89520551 Ry
     estimated scf accuracy    <       0.04981576 Ry

     iteration # 19     ecut=    70.00 Ry     beta= 0.70
     Davidson diagonalization with overlap
     ethr =  3.50E-06,  avg # of iterations =  1.0

     negative rho (up, down):  6.491E-04 0.000E+00

     total cpu time spent up to now is     1095.1 secs

     total energy              =    -825.89490475 Ry
     Harris-Foulkes estimate   =    -825.89527462 Ry
     estimated scf accuracy    <       0.07233921 Ry

     iteration # 20     ecut=    70.00 Ry     beta= 0.70
     Davidson diagonalization with overlap
     ethr =  3.50E-06,  avg # of iterations =  1.0

     negative rho (up, down):  6.483E-04 0.000E+00

     total cpu time spent up to now is     1144.2 secs

     total energy              =    -825.89482498 Ry
     Harris-Foulkes estimate   =    -825.89501113 Ry
     estimated scf accuracy    <       0.01730894 Ry

     iteration # 21     ecut=    70.00 Ry     beta= 0.70
     Davidson diagonalization with overlap
     ethr =  3.50E-06,  avg # of iterations =  1.0

     negative rho (up, down):  6.498E-04 0.000E+00

     total cpu time spent up to now is     1193.0 secs

     total energy              =    -825.89493922 Ry
     Harris-Foulkes estimate   =    -825.89495092 Ry
     estimated scf accuracy    <       0.00321677 Ry

     iteration # 22     ecut=    70.00 Ry     beta= 0.70
     Davidson diagonalization with overlap
     ethr =  1.51E-06,  avg # of iterations =  1.0

     negative rho (up, down):  6.529E-04 0.000E+00

     total cpu time spent up to now is     1242.0 secs

     total energy              =    -825.89492142 Ry
     Harris-Foulkes estimate   =    -825.89494191 Ry
     estimated scf accuracy    <       0.00256078 Ry

     iteration # 23     ecut=    70.00 Ry     beta= 0.70
     Davidson diagonalization with overlap
     ethr =  1.20E-06,  avg # of iterations =  1.0

     negative rho (up, down):  6.557E-04 0.000E+00

     total cpu time spent up to now is     1292.0 secs

     total energy              =    -825.89469332 Ry
     Harris-Foulkes estimate   =    -825.89492455 Ry
     estimated scf accuracy    <       0.00095643 Ry

     iteration # 24     ecut=    70.00 Ry     beta= 0.70
     Davidson diagonalization with overlap
     ethr =  4.49E-07,  avg # of iterations =  4.0

     negative rho (up, down):  6.555E-04 0.000E+00

     total cpu time spent up to now is     1349.4 secs

     total energy              =    -825.88968043 Ry
     Harris-Foulkes estimate   =    -825.89728738 Ry
     estimated scf accuracy    <       0.49934351 Ry

     iteration # 25     ecut=    70.00 Ry     beta= 0.70
     Davidson diagonalization with overlap
     ethr =  4.49E-07,  avg # of iterations =  4.0

     negative rho (up, down):  6.546E-04 0.000E+00

     total cpu time spent up to now is     1405.8 secs

     total energy              =    -825.89490708 Ry
     Harris-Foulkes estimate   =    -825.89491427 Ry
     estimated scf accuracy    <       0.00064099 Ry

     iteration # 26     ecut=    70.00 Ry     beta= 0.70
     Davidson diagonalization with overlap
     ethr =  3.01E-07,  avg # of iterations =  1.0

     negative rho (up, down):  6.548E-04 0.000E+00

     total cpu time spent up to now is     1454.7 secs

     total energy              =    -825.89490691 Ry
     Harris-Foulkes estimate   =    -825.89491432 Ry
     estimated scf accuracy    <       0.00033054 Ry

     iteration # 27     ecut=    70.00 Ry     beta= 0.70
     Davidson diagonalization with overlap
     ethr =  1.55E-07,  avg # of iterations =  1.0

     negative rho (up, down):  6.551E-04 0.000E+00

     total cpu time spent up to now is     1503.8 secs

     total energy              =    -825.89490312 Ry
     Harris-Foulkes estimate   =    -825.89490902 Ry
     estimated scf accuracy    <       0.00025430 Ry

     iteration # 28     ecut=    70.00 Ry     beta= 0.70
     Davidson diagonalization with overlap
     ethr =  1.19E-07,  avg # of iterations =  1.0

     negative rho (up, down):  6.553E-04 0.000E+00

     total cpu time spent up to now is     1553.2 secs

     total energy              =    -825.89489850 Ry
     Harris-Foulkes estimate   =    -825.89490386 Ry
     estimated scf accuracy    <       0.00037236 Ry

     iteration # 29     ecut=    70.00 Ry     beta= 0.70
     Davidson diagonalization with overlap
     ethr =  1.19E-07,  avg # of iterations =  1.0

     negative rho (up, down):  6.546E-04 0.000E+00

     total cpu time spent up to now is     1603.1 secs

     total energy              =    -825.89491104 Ry
     Harris-Foulkes estimate   =    -825.89489878 Ry
     estimated scf accuracy    <       0.00044103 Ry

     iteration # 30     ecut=    70.00 Ry     beta= 0.70
     Davidson diagonalization with overlap
     ethr =  1.19E-07,  avg # of iterations =  1.0

     negative rho (up, down):  6.546E-04 0.000E+00

     total cpu time spent up to now is     1652.2 secs

     total energy              =    -825.89490975 Ry
     Harris-Foulkes estimate   =    -825.89491432 Ry
     estimated scf accuracy    <       0.00096477 Ry

     iteration # 31     ecut=    70.00 Ry     beta= 0.70
     Davidson diagonalization with overlap
     ethr =  1.19E-07,  avg # of iterations =  1.0

     negative rho (up, down):  6.551E-04 0.000E+00

     total cpu time spent up to now is     1701.3 secs

     total energy              =    -825.89490758 Ry
     Harris-Foulkes estimate   =    -825.89491388 Ry
     estimated scf accuracy    <       0.00053761 Ry

     iteration # 32     ecut=    70.00 Ry     beta= 0.70
     Davidson diagonalization with overlap
     ethr =  1.19E-07,  avg # of iterations =  1.0

     negative rho (up, down):  6.552E-04 0.000E+00

     total cpu time spent up to now is     1750.5 secs

     total energy              =    -825.89490291 Ry
     Harris-Foulkes estimate   =    -825.89490796 Ry
     estimated scf accuracy    <       0.00036611 Ry

     iteration # 33     ecut=    70.00 Ry     beta= 0.70
     Davidson diagonalization with overlap
     ethr =  1.19E-07,  avg # of iterations =  1.0

     negative rho (up, down):  6.546E-04 0.000E+00

     total cpu time spent up to now is     1799.7 secs

     total energy              =    -825.89474451 Ry
     Harris-Foulkes estimate   =    -825.89490335 Ry
     estimated scf accuracy    <       0.00035472 Ry

     iteration # 34     ecut=    70.00 Ry     beta= 0.70
     Davidson diagonalization with overlap
     ethr =  1.19E-07,  avg # of iterations =  4.0

     negative rho (up, down):  6.564E-04 0.000E+00

     total cpu time spent up to now is     1862.8 secs

     total energy              =    -825.89043596 Ry
     Harris-Foulkes estimate   =    -825.89646902 Ry
     estimated scf accuracy    <       0.40313341 Ry

     iteration # 35     ecut=    70.00 Ry     beta= 0.70
     Davidson diagonalization with overlap
     ethr =  1.19E-07,  avg # of iterations =  4.0

     negative rho (up, down):  6.552E-04 0.000E+00

     total cpu time spent up to now is     1924.9 secs

     total energy              =    -825.89489864 Ry
     Harris-Foulkes estimate   =    -825.89489632 Ry
     estimated scf accuracy    <       0.00024108 Ry

     iteration # 36     ecut=    70.00 Ry     beta= 0.70
     Davidson diagonalization with overlap
     ethr =  1.13E-07,  avg # of iterations =  1.0

     negative rho (up, down):  6.551E-04 0.000E+00

     total cpu time spent up to now is     1974.2 secs

     total energy              =    -825.89490640 Ry
     Harris-Foulkes estimate   =    -825.89489961 Ry
     estimated scf accuracy    <       0.00034238 Ry

     iteration # 37     ecut=    70.00 Ry     beta= 0.70
     Davidson diagonalization with overlap
     ethr =  1.13E-07,  avg # of iterations =  1.0

     negative rho (up, down):  6.552E-04 0.000E+00

     total cpu time spent up to now is     2023.2 secs

     total energy              =    -825.89490044 Ry
     Harris-Foulkes estimate   =    -825.89490924 Ry
     estimated scf accuracy    <       0.00126073 Ry

     iteration # 38     ecut=    70.00 Ry     beta= 0.70
     Davidson diagonalization with overlap
     ethr =  1.13E-07,  avg # of iterations =  1.0

     negative rho (up, down):  6.552E-04 0.000E+00

     total cpu time spent up to now is     2072.4 secs

     total energy              =    -825.89490209 Ry
     Harris-Foulkes estimate   =    -825.89490318 Ry
     estimated scf accuracy    <       0.00031526 Ry

     iteration # 39     ecut=    70.00 Ry     beta= 0.70
     Davidson diagonalization with overlap
     ethr =  1.13E-07,  avg # of iterations =  1.0

     negative rho (up, down):  6.552E-04 0.000E+00

     total cpu time spent up to now is     2121.7 secs

     total energy              =    -825.89490269 Ry
     Harris-Foulkes estimate   =    -825.89490214 Ry
     estimated scf accuracy    <       0.00030441 Ry

     iteration # 40     ecut=    70.00 Ry     beta= 0.70
     Davidson diagonalization with overlap
     ethr =  1.13E-07,  avg # of iterations =  1.0

     negative rho (up, down):  6.554E-04 0.000E+00

     total cpu time spent up to now is     2171.3 secs

     total energy              =    -825.89489877 Ry
     Harris-Foulkes estimate   =    -825.89490277 Ry
     estimated scf accuracy    <       0.00032791 Ry

     iteration # 41     ecut=    70.00 Ry     beta= 0.70
     Davidson diagonalization with overlap
     ethr =  1.13E-07,  avg # of iterations =  1.0

     negative rho (up, down):  6.554E-04 0.000E+00

     total cpu time spent up to now is     2221.2 secs

     total energy              =    -825.89489671 Ry
     Harris-Foulkes estimate   =    -825.89489929 Ry
     estimated scf accuracy    <       0.00047813 Ry

     iteration # 42     ecut=    70.00 Ry     beta= 0.70
     Davidson diagonalization with overlap
     ethr =  1.13E-07,  avg # of iterations =  1.0

     negative rho (up, down):  6.554E-04 0.000E+00

     total cpu time spent up to now is     2270.7 secs

     total energy              =    -825.89489504 Ry
     Harris-Foulkes estimate   =    -825.89489742 Ry
     estimated scf accuracy    <       0.00032464 Ry

     iteration # 43     ecut=    70.00 Ry     beta= 0.70
     Davidson diagonalization with overlap
     ethr =  1.13E-07,  avg # of iterations =  1.0

     negative rho (up, down):  6.533E-04 0.000E+00

     total cpu time spent up to now is     2320.1 secs

     total energy              =    -825.89499554 Ry
     Harris-Foulkes estimate   =    -825.89489515 Ry
     estimated scf accuracy    <       0.00034188 Ry

     iteration # 44     ecut=    70.00 Ry     beta= 0.70
     Davidson diagonalization with overlap
     ethr =  1.13E-07,  avg # of iterations =  3.0

     negative rho (up, down):  6.526E-04 0.000E+00

     total cpu time spent up to now is     2373.7 secs

     total energy              =    -825.89530069 Ry
     Harris-Foulkes estimate   =    -825.89503323 Ry
     estimated scf accuracy    <       0.00130125 Ry

     iteration # 45     ecut=    70.00 Ry     beta= 0.70
     Davidson diagonalization with overlap
     ethr =  1.13E-07,  avg # of iterations =  3.0

     negative rho (up, down):  6.542E-04 0.000E+00

     total cpu time spent up to now is     2433.4 secs

     total energy              =    -825.89478349 Ry
     Harris-Foulkes estimate   =    -825.89549165 Ry
     estimated scf accuracy    <       0.00362616 Ry

     iteration # 46     ecut=    70.00 Ry     beta= 0.70
     Davidson diagonalization with overlap
     ethr =  1.13E-07,  avg # of iterations =  4.0

     negative rho (up, down):  6.551E-04 0.000E+00

     total cpu time spent up to now is     2497.6 secs

     total energy              =    -825.89475548 Ry
     Harris-Foulkes estimate   =    -825.89501996 Ry
     estimated scf accuracy    <       0.01034336 Ry

     iteration # 47     ecut=    70.00 Ry     beta= 0.70
     Davidson diagonalization with overlap
     ethr =  1.13E-07,  avg # of iterations =  3.0

     negative rho (up, down):  6.553E-04 0.000E+00

     total cpu time spent up to now is     2554.8 secs

     total energy              =    -825.89468137 Ry
     Harris-Foulkes estimate   =    -825.89477731 Ry
     estimated scf accuracy    <       0.00200733 Ry

     iteration # 48     ecut=    70.00 Ry     beta= 0.70
     Davidson diagonalization with overlap
     ethr =  1.13E-07,  avg # of iterations =  2.0

     negative rho (up, down):  6.554E-04 0.000E+00

     total cpu time spent up to now is     2604.5 secs

     total energy              =    -825.89468685 Ry
     Harris-Foulkes estimate   =    -825.89474345 Ry
     estimated scf accuracy    <       0.00124221 Ry

     iteration # 49     ecut=    70.00 Ry     beta= 0.70
     Davidson diagonalization with overlap
     ethr =  1.13E-07,  avg # of iterations =  1.0

     negative rho (up, down):  6.553E-04 0.000E+00

     total cpu time spent up to now is     2653.6 secs

     total energy              =    -825.89474557 Ry
     Harris-Foulkes estimate   =    -825.89475920 Ry
     estimated scf accuracy    <       0.00146962 Ry

     iteration # 50     ecut=    70.00 Ry     beta= 0.70
     Davidson diagonalization with overlap
     ethr =  1.13E-07,  avg # of iterations =  1.0

     negative rho (up, down):  6.553E-04 0.000E+00

     total cpu time spent up to now is     2702.9 secs

     total energy              =    -825.89473347 Ry
     Harris-Foulkes estimate   =    -825.89474702 Ry
     estimated scf accuracy    <       0.00092228 Ry

     iteration # 51     ecut=    70.00 Ry     beta= 0.70
     Davidson diagonalization with overlap
     ethr =  1.13E-07,  avg # of iterations =  1.0

     negative rho (up, down):  6.553E-04 0.000E+00

     total cpu time spent up to now is     2752.4 secs

     total energy              =    -825.89473164 Ry
     Harris-Foulkes estimate   =    -825.89473732 Ry
     estimated scf accuracy    <       0.00050749 Ry

     iteration # 52     ecut=    70.00 Ry     beta= 0.70
     Davidson diagonalization with overlap
     ethr =  1.13E-07,  avg # of iterations =  1.0

     negative rho (up, down):  6.553E-04 0.000E+00

     total cpu time spent up to now is     2801.7 secs

     total energy              =    -825.89473283 Ry
     Harris-Foulkes estimate   =    -825.89473426 Ry
     estimated scf accuracy    <       0.00000321 Ry

     iteration # 53     ecut=    70.00 Ry     beta= 0.70
     Davidson diagonalization with overlap
     ethr =  1.51E-09,  avg # of iterations =  3.0

     negative rho (up, down):  6.553E-04 0.000E+00

     total cpu time spent up to now is     2863.3 secs

     total energy              =    -825.89471573 Ry
     Harris-Foulkes estimate   =    -825.89476665 Ry
     estimated scf accuracy    <       0.00411466 Ry

     iteration # 54     ecut=    70.00 Ry     beta= 0.70
     Davidson diagonalization with overlap
     ethr =  1.51E-09,  avg # of iterations =  3.0

     negative rho (up, down):  6.552E-04 0.000E+00

     total cpu time spent up to now is     2919.9 secs

     total energy              =    -825.89473126 Ry
     Harris-Foulkes estimate   =    -825.89473607 Ry
     estimated scf accuracy    <       0.00021373 Ry

     iteration # 55     ecut=    70.00 Ry     beta= 0.70
     Davidson diagonalization with overlap
     ethr =  1.51E-09,  avg # of iterations =  2.0

     negative rho (up, down):  6.552E-04 0.000E+00

     total cpu time spent up to now is     2969.3 secs

     total energy              =    -825.89473415 Ry
     Harris-Foulkes estimate   =    -825.89473418 Ry
     estimated scf accuracy    <       0.00000458 Ry

     iteration # 56     ecut=    70.00 Ry     beta= 0.70
     Davidson diagonalization with overlap
     ethr =  1.51E-09,  avg # of iterations =  1.0

     negative rho (up, down):  6.552E-04 0.000E+00

     total cpu time spent up to now is     3018.5 secs

     total energy              =    -825.89473412 Ry
     Harris-Foulkes estimate   =    -825.89473420 Ry
     estimated scf accuracy    <       0.00000165 Ry

     iteration # 57     ecut=    70.00 Ry     beta= 0.70
     Davidson diagonalization with overlap
     ethr =  7.74E-10,  avg # of iterations =  1.0

     negative rho (up, down):  6.552E-04 0.000E+00

     total cpu time spent up to now is     3067.9 secs

     total energy              =    -825.89473413 Ry
     Harris-Foulkes estimate   =    -825.89473422 Ry
     estimated scf accuracy    <       0.00000380 Ry

     iteration # 58     ecut=    70.00 Ry     beta= 0.70
     Davidson diagonalization with overlap
     ethr =  7.74E-10,  avg # of iterations =  1.0

     negative rho (up, down):  6.552E-04 0.000E+00

     total cpu time spent up to now is     3117.1 secs

     total energy              =    -825.89473420 Ry
     Harris-Foulkes estimate   =    -825.89473421 Ry
     estimated scf accuracy    <       0.00000120 Ry

     iteration # 59     ecut=    70.00 Ry     beta= 0.70
     Davidson diagonalization with overlap
     ethr =  5.65E-10,  avg # of iterations =  1.0

     negative rho (up, down):  6.551E-04 0.000E+00

     total cpu time spent up to now is     3166.3 secs

     total energy              =    -825.89473413 Ry
     Harris-Foulkes estimate   =    -825.89473427 Ry
     estimated scf accuracy    <       0.00000750 Ry

     iteration # 60     ecut=    70.00 Ry     beta= 0.70
     Davidson diagonalization with overlap
     ethr =  5.65E-10,  avg # of iterations =  1.0

     negative rho (up, down):  6.552E-04 0.000E+00

     total cpu time spent up to now is     3215.9 secs

     total energy              =    -825.89473413 Ry
     Harris-Foulkes estimate   =    -825.89473425 Ry
     estimated scf accuracy    <       0.00000648 Ry

     iteration # 61     ecut=    70.00 Ry     beta= 0.70
     Davidson diagonalization with overlap
     ethr =  5.65E-10,  avg # of iterations =  1.0

     negative rho (up, down):  6.552E-04 0.000E+00

     total cpu time spent up to now is     3265.1 secs

     total energy              =    -825.89473412 Ry
     Harris-Foulkes estimate   =    -825.89473427 Ry
     estimated scf accuracy    <       0.00001491 Ry

     iteration # 62     ecut=    70.00 Ry     beta= 0.70
     Davidson diagonalization with overlap
     ethr =  5.65E-10,  avg # of iterations =  1.0

     negative rho (up, down):  6.551E-04 0.000E+00

     total cpu time spent up to now is     3314.3 secs

     End of self-consistent calculation

          k = 0.0000 0.0000 0.0000 ( 87777 PWs)   bands (ev):

   -80.0648 -49.6994 -49.6966 -48.3051 -19.7244 -18.8847 -18.8844 -18.7959
   -18.7908 -18.7890 -18.4361 -17.0322 -17.0305 -17.0283 -16.9382 -16.9372
   -16.6388 -16.1798 -16.1788 -16.0803 -16.0203 -16.0189 -15.3310 -14.0646
   -14.0630 -13.9948 -13.9543 -13.9538 -13.3064 -13.0237 -13.0236 -12.9933
   -12.7011 -12.7002 -12.2667 -11.7975 -11.7971 -11.6166 -11.3455 -11.3451
   -10.4293  -9.6213  -9.6208  -9.4001  -9.2689  -9.2688  -9.1846  -9.1524
    -9.1520  -9.1426  -8.6595  -8.6588  -8.1198  -8.1194  -8.0139  -7.8834
    -7.7925  -7.3886  -7.3870  -7.2277  -7.1358  -7.0862  -6.9891  -6.8622
    -6.8613  -6.7681  -6.7674  -6.7425  -6.6796  -6.5174  -6.5173  -6.4950
    -6.4866  -6.4865  -6.4393  -6.3388  -5.5099  -5.5005  -5.4747  -5.4739
    -5.2568  -5.2556  -4.9451  -4.8493  -4.8476  -4.6837  -4.6548  -4.6536
    -4.3327  -4.1406  -4.1398  -4.1099  -4.1092  -3.7909  -3.7899  -3.7174
    -3.6294  -3.6288  -3.0893  -2.6091  -2.6074  -1.7857  -1.7600  -1.7591
    -0.8250  -0.8148  -0.8147  -0.8109   0.9992   1.0099   1.0125   1.6699
     1.6709   1.6859   2.5637   2.8489   2.8531   2.9144   3.0674   3.1415
     3.4781   3.5743   3.5827   3.6170   3.6963   3.7897   3.7957   3.8107

     occupation numbers 
     1.0000   1.0000   1.0000   1.0000   1.0000   1.0000   1.0000   1.0000
     1.0000   1.0000   1.0000   1.0000   1.0000   1.0000   1.0000   1.0000
     1.0000   1.0000   1.0000   1.0000   1.0000   1.0000   1.0000   1.0000
     1.0000   1.0000   1.0000   1.0000   1.0000   1.0000   1.0000   1.0000
     1.0000   1.0000   1.0000   1.0000   1.0000   1.0000   1.0000   1.0000
     1.0000   1.0000   1.0000   1.0000   1.0000   1.0000   1.0000   1.0000
     1.0000   1.0000   1.0000   1.0000   1.0000   1.0000   1.0000   1.0000
     1.0000   1.0000   1.0000   1.0000   1.0000   1.0000   1.0000   1.0000
     1.0000   1.0000   1.0000   1.0000   1.0000   1.0000   1.0000   1.0000
     1.0000   1.0000   1.0000   1.0000   1.0000   1.0000   1.0000   1.0000
     1.0000   1.0000   1.0000   1.0000   1.0000   1.0000   1.0000   1.0000
     1.0000   1.0000   1.0000   1.0000   1.0000   1.0000   1.0000   1.0000
     1.0000   1.0000   1.0000   1.0000   1.0000   1.0000   1.0000   1.0000
     1.0183   0.5645   0.5577   0.3594   0.0000   0.0000   0.0000   0.0000
     0.0000   0.0000   0.0000   0.0000   0.0000   0.0000   0.0000   0.0000
     0.0000   0.0000   0.0000   0.0000   0.0000   0.0000   0.0000   0.0000

     the Fermi energy is    -0.8118 ev

!    total energy              =    -825.89473396 Ry
     Harris-Foulkes estimate   =    -825.89473420 Ry
     estimated scf accuracy    <       0.00000025 Ry

     The total energy is the sum of the following terms:

     one-electron contribution =   -2727.29233284 Ry
     hartree contribution      =    1408.65189813 Ry
     xc contribution           =    -259.61508497 Ry
     ewald contribution        =     752.36153981 Ry
     smearing contrib. (-TS)   =      -0.00075409 Ry

     convergence has been achieved in  62 iterations

     Writing output data file manganeso-bridge2-distance-2.8.save/

     init_run     :     50.93s CPU     52.11s WALL (       1 calls)
     electrons    :   3156.04s CPU   3261.20s WALL (       1 calls)

     Called by init_run:
     wfcinit      :     21.44s CPU     21.60s WALL (       1 calls)
     wfcinit:atom :      0.04s CPU      0.05s WALL (       1 calls)
     wfcinit:wfcr :     21.24s CPU     21.35s WALL (       1 calls)
     potinit      :     12.98s CPU     13.38s WALL (       1 calls)
     hinit0       :     11.74s CPU     11.75s WALL (       1 calls)

     Called by electrons:
     c_bands      :   1866.37s CPU   1877.33s WALL (      62 calls)
     sum_band     :    634.69s CPU    671.12s WALL (      62 calls)
     v_of_rho     :    385.48s CPU    409.14s WALL (      63 calls)
     v_h          :      4.32s CPU      4.48s WALL (      63 calls)
     v_xc         :    381.16s CPU    404.65s WALL (      63 calls)
     newd         :    259.19s CPU    293.85s WALL (      63 calls)
     mix_rho      :     13.23s CPU     13.42s WALL (      62 calls)

     Called by c_bands:
     init_us_2    :      5.39s CPU      5.45s WALL (     125 calls)
     cegterg      :   1851.71s CPU   1862.59s WALL (      62 calls)

     Called by sum_band:
     sum_band:bec :      0.05s CPU      0.05s WALL (      62 calls)
     addusdens    :    392.49s CPU    427.41s WALL (      62 calls)

     Called by *egterg:
     h_psi        :    968.58s CPU    976.09s WALL (     181 calls)
     s_psi        :    324.45s CPU    324.64s WALL (     181 calls)
     g_psi        :      1.02s CPU      1.02s WALL (     118 calls)
     cdiaghg      :     11.20s CPU     11.20s WALL (     180 calls)
     cegterg:over :    227.11s CPU    227.24s WALL (     118 calls)
     cegterg:upda :    126.34s CPU    127.16s WALL (     118 calls)
     cegterg:last :    104.86s CPU    104.91s WALL (      63 calls)

     Called by h_psi:
     h_psi:pot    :    967.55s CPU    973.72s WALL (     181 calls)
     h_psi:calbec :    327.05s CPU    327.27s WALL (     181 calls)
     vloc_psi     :    316.27s CPU    322.06s WALL (     181 calls)
     add_vuspsi   :    324.23s CPU    324.38s WALL (     181 calls)

     General routines
     calbec       :    475.61s CPU    475.90s WALL (     243 calls)
     fft          :    221.86s CPU    230.26s WALL (    3967 calls)
     ffts         :      2.15s CPU      2.24s WALL (     125 calls)
     fftw         :    339.99s CPU    346.34s WALL (   42752 calls)
     interpolate  :      5.35s CPU      5.48s WALL (      63 calls)

     Parallel routines
     fft_scatt_xy :     95.84s CPU     97.03s WALL (   46844 calls)
     fft_scatt_yz :    199.19s CPU    209.88s WALL (   46844 calls)

     PWSCF        :  53m28.18s CPU  55m14.76s WALL


   This run was terminated on:   1:17:46   4Sep2022            

=------------------------------------------------------------------------------=
   JOB DONE.
=------------------------------------------------------------------------------=
