
     Program PWSCF v.6.4.1 starts on 19Nov2023 at 11: 6:54 

     This program is part of the open-source Quantum ESPRESSO suite
     for quantum simulation of materials; please cite
         "P. Giannozzi et al., J. Phys.:Condens. Matter 21 395502 (2009);
         "P. Giannozzi et al., J. Phys.:Condens. Matter 29 465901 (2017);
          URL http://www.quantum-espresso.org", 
     in publications or presentations arising from this work. More details at
     http://www.quantum-espresso.org/quote

     Parallel version (MPI), running on     6 processors

     MPI processes distributed on     1 nodes
     R & G space division:  proc/nbgrp/npool/nimage =       6
     Reading input from distance-3.0.in

     Current dimensions of program PWSCF are:
     Max number of different atomic species (ntypx) = 10
     Max number of k-points (npk) =  40000
     Max angular momentum in pseudopotentials (lmaxx) =  3

     IMPORTANT: XC functional enforced from input :
     Exchange-correlation      = RVV10 ( 1  4 13  4 3 0)
     Any further DFT definition will be discarded
     Please, verify this is what you really want

               file H.pbe-rrkjus.UPF: wavefunction(s)  1S renormalized
               file Cu.pbe-dn-rrkjus_psl.1.0.0.UPF: wavefunction(s)  3D renormalized

     Subspace diagonalization in iterative solution of the eigenvalue problem:
     a serial algorithm will be used


     Parallelization info
     --------------------
     sticks:   dense  smooth     PW     G-vecs:    dense   smooth      PW
     Min        1102     631    167                97606    42156    5775
     Max        1103     633    168                97613    42157    5780
     Sum        6613    3793   1003               585649   252941   34665



     bravais-lattice index     =            4
     lattice parameter (alat)  =      13.9762  a.u.
     unit-cell volume          =    3196.7546 (a.u.)^3
     number of atoms/cell      =           20
     number of atomic types    =            3
     number of electrons       =        81.00
     number of Kohn-Sham states=           49
     kinetic-energy cutoff     =      70.0000  Ry
     charge density cutoff     =     490.0000  Ry
     convergence threshold     =      1.0E-06
     mixing beta               =       0.7000
     number of iterations used =            8  plain     mixing
     Exchange-correlation      = RVV10 ( 1  4 13  4 3 0)

     celldm(1)=  13.976226  celldm(2)=   0.000000  celldm(3)=   1.352100
     celldm(4)=   0.000000  celldm(5)=   0.000000  celldm(6)=   0.000000

     crystal axes: (cart. coord. in units of alat)
               a(1) = (   1.000000   0.000000   0.000000 )  
               a(2) = (  -0.500000   0.866025   0.000000 )  
               a(3) = (   0.000000   0.000000   1.352100 )  

     reciprocal axes: (cart. coord. in units 2 pi/alat)
               b(1) = (  1.000000  0.577350 -0.000000 )  
               b(2) = (  0.000000  1.154701  0.000000 )  
               b(3) = (  0.000000 -0.000000  0.739590 )  


     PseudoPot. # 1 for H  read from file:
     /home/cristian/Escritorio/Proyecto_Grafeno/pseudopotenciales/H.pbe-rrkjus.UPF
     MD5 check sum: 7cc9d459525c9a0585f487a71c3c9563
     Pseudo is Ultrasoft, Zval =  1.0
     Generated by new atomic code, or converted to UPF format
     Using radial grid of 1061 points,  2 beta functions with: 
                l(1) =   0
                l(2) =   0
     Q(r) pseudized with 0 coefficients 


     PseudoPot. # 2 for C  read from file:
     /home/cristian/Escritorio/Proyecto_Grafeno/pseudopotenciales/C.pbe-n-rrkjus_psl.1.0.0.UPF
     MD5 check sum: 1fdd950c42eb37d8afe3dd2f8d12311e
     Pseudo is Ultrasoft + core correction, Zval =  4.0
     Generated using "atomic" code by A. Dal Corso v.6.3MaX
     Using radial grid of 1073 points,  4 beta functions with: 
                l(1) =   0
                l(2) =   0
                l(3) =   1
                l(4) =   1
     Q(r) pseudized with 0 coefficients 


     PseudoPot. # 3 for Cu read from file:
     /home/cristian/Escritorio/Proyecto_Grafeno/pseudopotenciales/Cu.pbe-dn-rrkjus_psl.1.0.0.UPF
     MD5 check sum: ba3d6c84e19846e79d48cdc68ff7152b
     Pseudo is Ultrasoft + core correction, Zval = 11.0
     Generated using "atomic" code by A. Dal Corso v.6.3
     Using radial grid of 1199 points,  6 beta functions with: 
                l(1) =   0
                l(2) =   0
                l(3) =   1
                l(4) =   1
                l(5) =   2
                l(6) =   2
     Q(r) pseudized with 0 coefficients 


     vdW kernel table read from file rVV10_kernel_table
     MD5 check sum: b8e2538accc0c0b3206b45ba4daaba6c

     atomic species   valence    mass     pseudopotential
        H              1.00     1.00794     H ( 1.00)
        C              4.00    12.01070     C ( 1.00)
        Cu            11.00    63.54600     Cu( 1.00)

      6 Sym. Ops. (no inversion) found ( 4 have fractional translation)


                                    s                        frac. trans.

      isym =  1     identity                                     

 cryst.   s( 1) = (     1          0          0      )
                  (     0          1          0      )
                  (     0          0          1      )

 cart.    s( 1) = (  1.0000000  0.0000000  0.0000000 )
                  (  0.0000000  1.0000000  0.0000000 )
                  (  0.0000000  0.0000000  1.0000000 )


      isym =  2     120 deg rotation - cryst. axis [0,0,1]       

 cryst.   s( 2) = (     0          1          0      )    f =(  0.0000011 )
                  (    -1         -1          0      )       (  0.3333340 )
                  (     0          0          1      )       (  0.0000000 )

 cart.    s( 2) = ( -0.5000000 -0.8660254  0.0000000 )    f =( -0.1666660 )
                  (  0.8660254 -0.5000000  0.0000000 )       (  0.2886758 )
                  (  0.0000000  0.0000000  1.0000000 )       (  0.0000000 )


      isym =  3     120 deg rotation - cryst. axis [0,0,-1]      

 cryst.   s( 3) = (    -1         -1          0      )    f =( -0.3333330 )
                  (     1          0          0      )       (  0.0000011 )
                  (     0          0          1      )       (  0.0000000 )

 cart.    s( 3) = ( -0.5000000  0.8660254  0.0000000 )    f =( -0.3333335 )
                  ( -0.8660254 -0.5000000  0.0000000 )       (  0.0000009 )
                  (  0.0000000  0.0000000  1.0000000 )       (  0.0000000 )


      isym =  4     inv. 180 deg rotation - cart. axis [1,0,0]   

 cryst.   s( 4) = (    -1          0          0      )    f =( -0.3333330 )
                  (     1          1          0      )       (  0.0000000 )
                  (     0          0          1      )       (  0.0000000 )

 cart.    s( 4) = ( -1.0000000  0.0000000  0.0000000 )    f =( -0.3333330 )
                  (  0.0000000  1.0000000  0.0000000 )       (  0.0000000 )
                  (  0.0000000  0.0000000  1.0000000 )       (  0.0000000 )


      isym =  5     inv. 180 deg rotation - cryst. axis [0,1,0]  

 cryst.   s( 5) = (     1          1          0      )    f =(  0.0000000 )
                  (     0         -1          0      )       (  0.3333340 )
                  (     0          0          1      )       (  0.0000000 )

 cart.    s( 5) = (  0.5000000  0.8660254  0.0000000 )    f =( -0.1666670 )
                  (  0.8660254 -0.5000000  0.0000000 )       (  0.2886758 )
                  (  0.0000000  0.0000000  1.0000000 )       (  0.0000000 )


      isym =  6     inv. 180 deg rotation - cryst. axis [1,1,0]  

 cryst.   s( 6) = (     0         -1          0      )
                  (    -1          0          0      )
                  (     0          0          1      )

 cart.    s( 6) = (  0.5000000 -0.8660254  0.0000000 )
                  ( -0.8660254 -0.5000000  0.0000000 )
                  (  0.0000000  0.0000000  1.0000000 )


     point group C_3v (3m)  
     there are  3 classes
     the character table:

       E     2C3   3s_v 
A_1    1.00  1.00  1.00
A_2    1.00  1.00 -1.00
E      2.00 -1.00  0.00

     the symmetry operations in each class and the name of the first element:

     E        1
          identity                                               
     2C3      2    3
          120 deg rotation - cryst. axis [0,0,1]                 
     3s_v     4    5    6
          inv. 180 deg rotation - cart. axis [1,0,0]             

   Cartesian axes

     site n.     atom                  positions (alat units)
         1           H   tau(   1) = (   0.1666665   0.4811247   0.4056301  )
         2           H   tau(   2) = (   0.1666665   0.4811247   0.5073178  )
         3           C   tau(   3) = (   0.0000000   0.0000000   0.0000000  )
         4           C   tau(   4) = (   0.0000000   0.1924499   0.0000000  )
         5           C   tau(   5) = (  -0.1666665   0.2886748   0.0000000  )
         6           C   tau(   6) = (  -0.1666665   0.4811247   0.0000000  )
         7           C   tau(   7) = (  -0.3333330   0.5773496   0.0000000  )
         8           C   tau(   8) = (  -0.3333330   0.7697995   0.0000000  )
         9           C   tau(   9) = (   0.3333330   0.0000000   0.0000000  )
        10           C   tau(  10) = (   0.3333330   0.1924499   0.0000000  )
        11           C   tau(  11) = (   0.1666665   0.2886748   0.0000000  )
        12           Cu  tau(  12) = (   0.1666665   0.4811247   0.0000000  )
        13           C   tau(  13) = (   0.0000000   0.5773496   0.0000000  )
        14           C   tau(  14) = (   0.0000000   0.7697995   0.0000000  )
        15           C   tau(  15) = (   0.6666660   0.0000000   0.0000000  )
        16           C   tau(  16) = (   0.6666660   0.1924499   0.0000000  )
        17           C   tau(  17) = (   0.4999995   0.2886748   0.0000000  )
        18           C   tau(  18) = (   0.4999995   0.4811247   0.0000000  )
        19           C   tau(  19) = (   0.3333330   0.5773496   0.0000000  )
        20           C   tau(  20) = (   0.3333330   0.7697995   0.0000000  )

   Crystallographic axes

     site n.     atom                  positions (cryst. coord.)
         1           H   tau(   1) = (  0.4444440  0.5555550  0.3000000  )
         2           H   tau(   2) = (  0.4444440  0.5555550  0.3752072  )
         3           C   tau(   3) = (  0.0000000  0.0000000  0.0000000  )
         4           C   tau(   4) = (  0.1111110  0.2222220  0.0000000  )
         5           C   tau(   5) = (  0.0000000  0.3333330  0.0000000  )
         6           C   tau(   6) = (  0.1111110  0.5555550  0.0000000  )
         7           C   tau(   7) = (  0.0000000  0.6666660  0.0000000  )
         8           C   tau(   8) = (  0.1111110  0.8888879  0.0000000  )
         9           C   tau(   9) = (  0.3333330  0.0000000  0.0000000  )
        10           C   tau(  10) = (  0.4444440  0.2222220  0.0000000  )
        11           C   tau(  11) = (  0.3333330  0.3333330  0.0000000  )
        12           Cu  tau(  12) = (  0.4444440  0.5555550  0.0000000  )
        13           C   tau(  13) = (  0.3333330  0.6666660  0.0000000  )
        14           C   tau(  14) = (  0.4444440  0.8888879  0.0000000  )
        15           C   tau(  15) = (  0.6666660  0.0000000  0.0000000  )
        16           C   tau(  16) = (  0.7777769  0.2222220  0.0000000  )
        17           C   tau(  17) = (  0.6666660  0.3333330  0.0000000  )
        18           C   tau(  18) = (  0.7777769  0.5555550  0.0000000  )
        19           C   tau(  19) = (  0.6666660  0.6666660  0.0000000  )
        20           C   tau(  20) = (  0.7777769  0.8888879  0.0000000  )

     number of k points=     4  Marzari-Vanderbilt smearing, width (Ry)=  0.0010
                       cart. coord. in units 2pi/alat
        k(    1) = (   0.0000000   0.0000000   0.0000000), wk =   0.1250000
        k(    2) = (   0.0000000   0.2886751   0.0000000), wk =   0.7500000
        k(    3) = (   0.0000000  -0.5773503   0.0000000), wk =   0.3750000
        k(    4) = (   0.2500000   0.4330127   0.0000000), wk =   0.7500000

                       cryst. coord.
        k(    1) = (   0.0000000   0.0000000   0.0000000), wk =   0.1250000
        k(    2) = (   0.0000000   0.2500000   0.0000000), wk =   0.7500000
        k(    3) = (   0.0000000  -0.5000000   0.0000000), wk =   0.3750000
        k(    4) = (   0.2500000   0.2500000   0.0000000), wk =   0.7500000

     Dense  grid:   585649 G-vectors     FFT dimensions: ( 108, 108, 135)

     Smooth grid:   252941 G-vectors     FFT dimensions: (  75,  75, 108)

     Dynamical RAM for                 wfc:       3.94 MB

     Dynamical RAM for     wfc (w. buffer):      19.70 MB

     Dynamical RAM for           str. fact:       4.47 MB

     Dynamical RAM for           local pot:       0.00 MB

     Dynamical RAM for          nlocal pot:      12.70 MB

     Dynamical RAM for                qrad:      11.84 MB

     Dynamical RAM for          rho,v,vnew:      10.61 MB

     Dynamical RAM for               rhoin:       3.54 MB

     Dynamical RAM for            rho*nmix:      23.83 MB

     Dynamical RAM for           G-vectors:       5.91 MB

     Dynamical RAM for          h,s,v(r/c):       1.76 MB

     Dynamical RAM for          <psi|beta>:       0.12 MB

     Dynamical RAM for                 psi:      15.76 MB

     Dynamical RAM for                hpsi:      15.76 MB

     Dynamical RAM for                spsi:      15.76 MB

     Dynamical RAM for      wfcinit/wfcrot:      12.85 MB

     Dynamical RAM for           addusdens:     302.36 MB

     Estimated static dynamical RAM per process >     108.78 MB

     Estimated max dynamical RAM per process >     411.14 MB

     Estimated total dynamical RAM >       2.41 GB

     Check: negative core charge=   -0.000002

     Initial potential from superposition of free atoms

     starting charge   80.80665, renormalised to   81.00000


---------------------------------------------------------------------------------
Carrying out rVV10 run using the following parameters:
Nqs =      20    Nr_points =    1024   r_max =   100.000
b_value =  6.30000    beta =  0.00901
     q_mesh =  0.00010000  0.00030000  0.00058939  0.00100810
               0.00161396  0.00249058  0.00375900  0.00559430
               0.00824984  0.01209221  0.01765183  0.02569619
               0.03733578  0.05417739  0.07854596  0.11380545
               0.16482331  0.23864234  0.34545298  0.50000000

Gradients computed in Reciprocal space

---------------------------------------------------------------------------------


     Starting wfcs are   79 randomized atomic wfcs

     total cpu time spent up to now is       14.2 secs

     Self-consistent Calculation

     iteration #  1     ecut=    70.00 Ry     beta= 0.70
     Davidson diagonalization with overlap
     ethr =  1.00E-02,  avg # of iterations =  2.2

     total cpu time spent up to now is       29.1 secs

     total energy              =    -333.78585528 Ry
     Harris-Foulkes estimate   =    -337.33646976 Ry
     estimated scf accuracy    <       4.82446321 Ry

     iteration #  2     ecut=    70.00 Ry     beta= 0.70
     Davidson diagonalization with overlap
     ethr =  5.96E-03,  avg # of iterations =  4.0

     total cpu time spent up to now is       44.6 secs

     total energy              =    -333.77438030 Ry
     Harris-Foulkes estimate   =    -339.29944011 Ry
     estimated scf accuracy    <      13.38957067 Ry

     iteration #  3     ecut=    70.00 Ry     beta= 0.70
     Davidson diagonalization with overlap
     ethr =  5.96E-03,  avg # of iterations =  2.8

     total cpu time spent up to now is       58.8 secs

     total energy              =    -335.57144224 Ry
     Harris-Foulkes estimate   =    -336.18752869 Ry
     estimated scf accuracy    <       1.20129279 Ry

     iteration #  4     ecut=    70.00 Ry     beta= 0.70
     Davidson diagonalization with overlap
     ethr =  1.48E-03,  avg # of iterations =  2.0

     total cpu time spent up to now is       72.7 secs

     total energy              =    -335.83390850 Ry
     Harris-Foulkes estimate   =    -335.95247556 Ry
     estimated scf accuracy    <       0.32419139 Ry

     iteration #  5     ecut=    70.00 Ry     beta= 0.70
     Davidson diagonalization with overlap
     ethr =  4.00E-04,  avg # of iterations =  2.8

     negative rho (up, down):  3.184E-08 0.000E+00

     total cpu time spent up to now is       85.2 secs

     total energy              =    -335.90502822 Ry
     Harris-Foulkes estimate   =    -335.91367763 Ry
     estimated scf accuracy    <       0.03040695 Ry

     iteration #  6     ecut=    70.00 Ry     beta= 0.70
     Davidson diagonalization with overlap
     ethr =  3.75E-05,  avg # of iterations =  6.0

     negative rho (up, down):  1.045E-05 0.000E+00

     total cpu time spent up to now is       97.9 secs

     total energy              =    -335.90904605 Ry
     Harris-Foulkes estimate   =    -335.90983846 Ry
     estimated scf accuracy    <       0.00178240 Ry

     iteration #  7     ecut=    70.00 Ry     beta= 0.70
     Davidson diagonalization with overlap
     ethr =  2.20E-06,  avg # of iterations =  8.5

     negative rho (up, down):  5.389E-05 0.000E+00

     total cpu time spent up to now is      113.7 secs

     total energy              =    -335.90943093 Ry
     Harris-Foulkes estimate   =    -335.90974266 Ry
     estimated scf accuracy    <       0.00070055 Ry

     iteration #  8     ecut=    70.00 Ry     beta= 0.70
     Davidson diagonalization with overlap
     ethr =  8.65E-07,  avg # of iterations =  4.2

     negative rho (up, down):  8.101E-05 0.000E+00

     total cpu time spent up to now is      127.7 secs

     total energy              =    -335.90954221 Ry
     Harris-Foulkes estimate   =    -335.90959241 Ry
     estimated scf accuracy    <       0.00008397 Ry

     iteration #  9     ecut=    70.00 Ry     beta= 0.70
     Davidson diagonalization with overlap
     ethr =  1.04E-07,  avg # of iterations =  2.8

     negative rho (up, down):  9.456E-05 0.000E+00

     total cpu time spent up to now is      141.7 secs

     total energy              =    -335.90955990 Ry
     Harris-Foulkes estimate   =    -335.90958143 Ry
     estimated scf accuracy    <       0.00006675 Ry

     iteration # 10     ecut=    70.00 Ry     beta= 0.70
     Davidson diagonalization with overlap
     ethr =  8.24E-08,  avg # of iterations =  2.0

     negative rho (up, down):  9.593E-05 0.000E+00

     total cpu time spent up to now is      153.8 secs

     total energy              =    -335.90956617 Ry
     Harris-Foulkes estimate   =    -335.90956724 Ry
     estimated scf accuracy    <       0.00000220 Ry

     iteration # 11     ecut=    70.00 Ry     beta= 0.70
     Davidson diagonalization with overlap
     ethr =  2.71E-09,  avg # of iterations =  3.0

     negative rho (up, down):  9.615E-05 0.000E+00

     total cpu time spent up to now is      167.6 secs

     End of self-consistent calculation

          k = 0.0000 0.0000 0.0000 ( 31593 PWs)   bands (ev):

   -19.6669 -17.3350 -17.3348 -17.1769 -17.1768 -17.1293 -16.1047 -13.4194
   -13.4193 -13.0347 -11.8937 -11.5172 -11.5171 -10.5599 -10.5599  -9.9386
    -9.4403  -9.4403  -8.7978  -8.6028  -8.6028  -8.3516  -8.3515  -7.7908
    -6.4833  -6.3780  -6.1238  -5.9516  -5.9516  -5.1169  -4.8871  -4.8870
    -4.7973  -4.4634  -4.4633  -4.2573  -4.2572  -3.8598  -0.3046   0.0598
     0.0598   0.1778   0.1779   0.9520   2.8244   4.1156   4.6155   4.6156
     4.6789

     occupation numbers 
     1.0000   1.0000   1.0000   1.0000   1.0000   1.0000   1.0000   1.0000
     1.0000   1.0000   1.0000   1.0000   1.0000   1.0000   1.0000   1.0000
     1.0000   1.0000   1.0000   1.0000   1.0000   1.0000   1.0000   1.0000
     1.0000   1.0000   1.0000   1.0000   1.0000   1.0000   1.0000   1.0000
     1.0000   1.0000   1.0000   1.0000   1.0000   1.0000   0.0000   0.0000
     0.0000   0.0000   0.0000   0.0000   0.0000   0.0000   0.0000   0.0000
     0.0000

          k = 0.0000 0.2887 0.0000 ( 31638 PWs)   bands (ev):

   -19.5073 -18.2341 -17.7071 -17.3968 -16.5273 -16.1713 -15.4702 -14.3845
   -13.7128 -12.7487 -12.3699 -11.7022 -11.6257 -10.7566 -10.0410  -9.8993
    -9.6929  -9.3219  -8.6532  -8.6095  -8.3361  -7.8288  -7.5220  -7.3169
    -7.0190  -6.4867  -6.3925  -6.3671  -5.8634  -5.7624  -5.0826  -5.0495
    -4.9967  -4.6920  -4.4860  -3.7547  -3.6945  -2.8115  -1.4832  -0.8692
    -0.3575  -0.0248   1.2052   1.7099   2.8551   3.0113   3.6369   4.0894
     4.5005

     occupation numbers 
     1.0000   1.0000   1.0000   1.0000   1.0000   1.0000   1.0000   1.0000
     1.0000   1.0000   1.0000   1.0000   1.0000   1.0000   1.0000   1.0000
     1.0000   1.0000   1.0000   1.0000   1.0000   1.0000   1.0000   1.0000
     1.0000   1.0000   1.0000   1.0000   1.0000   1.0000   1.0000   1.0000
     1.0000   1.0000   1.0000   1.0000   1.0000   1.0000   1.0000   1.0000
     0.0000   0.0000   0.0000   0.0000   0.0000   0.0000   0.0000   0.0000
     0.0000

          k = 0.0000-0.5774 0.0000 ( 31614 PWs)   bands (ev):

   -19.1207 -18.9142 -17.8554 -17.5355 -15.7091 -15.3696 -15.3190 -14.9744
   -14.1779 -13.2841 -12.2530 -12.0718 -11.3913 -11.1189 -10.6139  -9.9589
    -8.6909  -8.6161  -8.3941  -8.1669  -8.0068  -7.8570  -7.6498  -7.4384
    -6.9446  -6.7398  -6.3791  -6.3675  -6.2340  -5.9831  -5.9096  -5.2609
    -5.1942  -4.3976  -4.2822  -2.9060  -2.7358  -2.5750  -2.3546  -1.5771
    -0.9943  -0.2379   1.6940   2.2586   2.4844   2.6379   3.4245   3.6264
     3.8796

     occupation numbers 
     1.0000   1.0000   1.0000   1.0000   1.0000   1.0000   1.0000   1.0000
     1.0000   1.0000   1.0000   1.0000   1.0000   1.0000   1.0000   1.0000
     1.0000   1.0000   1.0000   1.0000   1.0000   1.0000   1.0000   1.0000
     1.0000   1.0000   1.0000   1.0000   1.0000   1.0000   1.0000   1.0000
     1.0000   1.0000   1.0000   1.0000   1.0000   1.0000   1.0000   1.0000
     1.0000   0.0000   0.0000   0.0000   0.0000   0.0000   0.0000   0.0000
     0.0000

          k = 0.2500 0.4330 0.0000 ( 31601 PWs)   bands (ev):

   -19.1991 -18.6379 -18.3724 -16.7552 -16.5144 -15.4351 -15.1383 -14.8287
   -13.7819 -13.1578 -12.8772 -12.2001 -11.4232 -11.1556 -10.0948  -9.4585
    -8.9410  -8.6776  -8.6443  -8.6307  -8.2134  -7.6418  -7.4294  -7.1616
    -7.0573  -6.7962  -6.4289  -6.2812  -6.2593  -6.0578  -6.0330  -5.1056
    -4.8373  -4.3241  -4.0962  -3.8824  -2.8068  -2.4724  -2.0698  -1.3575
    -0.7873  -0.4215   1.5686   1.8505   2.2639   3.1560   3.3718   4.0872
     4.2512

     occupation numbers 
     1.0000   1.0000   1.0000   1.0000   1.0000   1.0000   1.0000   1.0000
     1.0000   1.0000   1.0000   1.0000   1.0000   1.0000   1.0000   1.0000
     1.0000   1.0000   1.0000   1.0000   1.0000   1.0000   1.0000   1.0000
     1.0000   1.0000   1.0000   1.0000   1.0000   1.0000   1.0000   1.0000
     1.0000   1.0000   1.0000   1.0000   1.0000   1.0000   1.0000   1.0000
     1.0000   0.1667   0.0000   0.0000   0.0000   0.0000   0.0000   0.0000
     0.0000

     the Fermi energy is    -0.4273 ev

!    total energy              =    -335.90956659 Ry
     Harris-Foulkes estimate   =    -335.90956675 Ry
     estimated scf accuracy    <       0.00000014 Ry

     The total energy is the sum of the following terms:

     one-electron contribution =   -1030.68424709 Ry
     hartree contribution      =     541.77743112 Ry
     xc contribution           =    -126.19750773 Ry
     ewald contribution        =     279.19485153 Ry
     smearing contrib. (-TS)   =      -0.00009442 Ry

     convergence has been achieved in  11 iterations

     Writing output data file gr-12.save/

     init_run     :     12.54s CPU     12.89s WALL (       1 calls)
     electrons    :    148.13s CPU    153.46s WALL (       1 calls)

     Called by init_run:
     wfcinit      :      4.89s CPU      4.93s WALL (       1 calls)
     wfcinit:atom :      0.02s CPU      0.02s WALL (       4 calls)
     wfcinit:wfcr :      4.76s CPU      4.79s WALL (       4 calls)
     potinit      :      3.73s CPU      3.88s WALL (       1 calls)
     hinit0       :      3.10s CPU      3.11s WALL (       1 calls)

     Called by electrons:
     c_bands      :     96.08s CPU     96.90s WALL (      11 calls)
     sum_band     :     21.66s CPU     23.42s WALL (      11 calls)
     v_of_rho     :     24.45s CPU     25.73s WALL (      12 calls)
     v_h          :      0.24s CPU      0.26s WALL (      12 calls)
     v_xc         :     24.21s CPU     25.48s WALL (      12 calls)
     newd         :      7.56s CPU      9.24s WALL (      12 calls)
     mix_rho      :      0.56s CPU      0.57s WALL (      11 calls)

     Called by c_bands:
     init_us_2    :      0.59s CPU      0.59s WALL (      92 calls)
     cegterg      :     94.38s CPU     95.18s WALL (      44 calls)

     Called by sum_band:
     sum_band:bec :      0.01s CPU      0.01s WALL (      44 calls)
     addusdens    :      9.70s CPU     11.25s WALL (      11 calls)

     Called by *egterg:
     h_psi        :     57.93s CPU     58.67s WALL (     209 calls)
     s_psi        :     15.29s CPU     15.31s WALL (     209 calls)
     g_psi        :      0.14s CPU      0.14s WALL (     161 calls)
     cdiaghg      :      1.59s CPU      1.59s WALL (     205 calls)
     cegterg:over :      9.04s CPU      9.06s WALL (     161 calls)
     cegterg:upda :      6.29s CPU      6.30s WALL (     161 calls)
     cegterg:last :      4.29s CPU      4.30s WALL (      44 calls)

     Called by h_psi:
     h_psi:pot    :     57.76s CPU     58.48s WALL (     209 calls)
     h_psi:calbec :     15.75s CPU     15.80s WALL (     209 calls)
     vloc_psi     :     26.42s CPU     27.08s WALL (     209 calls)
     add_vuspsi   :     15.58s CPU     15.60s WALL (     209 calls)

     General routines
     calbec       :     21.43s CPU     21.50s WALL (     253 calls)
     fft          :     12.41s CPU     12.83s WALL (     754 calls)
     ffts         :      0.11s CPU      0.12s WALL (      23 calls)
     fftw         :     27.54s CPU     28.24s WALL (   14024 calls)
     interpolate  :      0.29s CPU      0.30s WALL (      12 calls)

     Parallel routines
     fft_scatt_xy :      5.49s CPU      5.59s WALL (   14801 calls)
     fft_scatt_yz :     16.62s CPU     17.32s WALL (   14801 calls)

     PWSCF        :   2m42.04s CPU   2m47.85s WALL


   This run was terminated on:  11: 9:42  19Nov2023            

=------------------------------------------------------------------------------=
   JOB DONE.
=------------------------------------------------------------------------------=
