
     Program PWSCF v.6.4.1 starts on 19Nov2023 at 11:15:18 

     This program is part of the open-source Quantum ESPRESSO suite
     for quantum simulation of materials; please cite
         "P. Giannozzi et al., J. Phys.:Condens. Matter 21 395502 (2009);
         "P. Giannozzi et al., J. Phys.:Condens. Matter 29 465901 (2017);
          URL http://www.quantum-espresso.org", 
     in publications or presentations arising from this work. More details at
     http://www.quantum-espresso.org/quote

     Parallel version (MPI), running on     6 processors

     MPI processes distributed on     1 nodes
     R & G space division:  proc/nbgrp/npool/nimage =       6
     Reading input from distance-2.4.in

     Current dimensions of program PWSCF are:
     Max number of different atomic species (ntypx) = 10
     Max number of k-points (npk) =  40000
     Max angular momentum in pseudopotentials (lmaxx) =  3

     IMPORTANT: XC functional enforced from input :
     Exchange-correlation      = RVV10 ( 1  4 13  4 3 0)
     Any further DFT definition will be discarded
     Please, verify this is what you really want

               file H.pbe-rrkjus.UPF: wavefunction(s)  1S renormalized
               file Cu.pbe-dn-rrkjus_psl.1.0.0.UPF: wavefunction(s)  3D renormalized

     Subspace diagonalization in iterative solution of the eigenvalue problem:
     a serial algorithm will be used


     Parallelization info
     --------------------
     sticks:   dense  smooth     PW     G-vecs:    dense   smooth      PW
     Min        1102     631    167                97606    42156    5775
     Max        1103     633    168                97613    42157    5780
     Sum        6613    3793   1003               585649   252941   34665



     bravais-lattice index     =            4
     lattice parameter (alat)  =      13.9762  a.u.
     unit-cell volume          =    3196.7546 (a.u.)^3
     number of atoms/cell      =           20
     number of atomic types    =            3
     number of electrons       =        81.00
     number of Kohn-Sham states=           49
     kinetic-energy cutoff     =      70.0000  Ry
     charge density cutoff     =     490.0000  Ry
     convergence threshold     =      1.0E-06
     mixing beta               =       0.7000
     number of iterations used =            8  plain     mixing
     Exchange-correlation      = RVV10 ( 1  4 13  4 3 0)

     celldm(1)=  13.976226  celldm(2)=   0.000000  celldm(3)=   1.352100
     celldm(4)=   0.000000  celldm(5)=   0.000000  celldm(6)=   0.000000

     crystal axes: (cart. coord. in units of alat)
               a(1) = (   1.000000   0.000000   0.000000 )  
               a(2) = (  -0.500000   0.866025   0.000000 )  
               a(3) = (   0.000000   0.000000   1.352100 )  

     reciprocal axes: (cart. coord. in units 2 pi/alat)
               b(1) = (  1.000000  0.577350 -0.000000 )  
               b(2) = (  0.000000  1.154701  0.000000 )  
               b(3) = (  0.000000 -0.000000  0.739590 )  


     PseudoPot. # 1 for H  read from file:
     /home/cristian/Escritorio/Proyecto_Grafeno/pseudopotenciales/H.pbe-rrkjus.UPF
     MD5 check sum: 7cc9d459525c9a0585f487a71c3c9563
     Pseudo is Ultrasoft, Zval =  1.0
     Generated by new atomic code, or converted to UPF format
     Using radial grid of 1061 points,  2 beta functions with: 
                l(1) =   0
                l(2) =   0
     Q(r) pseudized with 0 coefficients 


     PseudoPot. # 2 for C  read from file:
     /home/cristian/Escritorio/Proyecto_Grafeno/pseudopotenciales/C.pbe-n-rrkjus_psl.1.0.0.UPF
     MD5 check sum: 1fdd950c42eb37d8afe3dd2f8d12311e
     Pseudo is Ultrasoft + core correction, Zval =  4.0
     Generated using "atomic" code by A. Dal Corso v.6.3MaX
     Using radial grid of 1073 points,  4 beta functions with: 
                l(1) =   0
                l(2) =   0
                l(3) =   1
                l(4) =   1
     Q(r) pseudized with 0 coefficients 


     PseudoPot. # 3 for Cu read from file:
     /home/cristian/Escritorio/Proyecto_Grafeno/pseudopotenciales/Cu.pbe-dn-rrkjus_psl.1.0.0.UPF
     MD5 check sum: ba3d6c84e19846e79d48cdc68ff7152b
     Pseudo is Ultrasoft + core correction, Zval = 11.0
     Generated using "atomic" code by A. Dal Corso v.6.3
     Using radial grid of 1199 points,  6 beta functions with: 
                l(1) =   0
                l(2) =   0
                l(3) =   1
                l(4) =   1
                l(5) =   2
                l(6) =   2
     Q(r) pseudized with 0 coefficients 


     vdW kernel table read from file rVV10_kernel_table
     MD5 check sum: b8e2538accc0c0b3206b45ba4daaba6c

     atomic species   valence    mass     pseudopotential
        H              1.00     1.00794     H ( 1.00)
        C              4.00    12.01070     C ( 1.00)
        Cu            11.00    63.54600     Cu( 1.00)

      6 Sym. Ops. (no inversion) found ( 4 have fractional translation)


                                    s                        frac. trans.

      isym =  1     identity                                     

 cryst.   s( 1) = (     1          0          0      )
                  (     0          1          0      )
                  (     0          0          1      )

 cart.    s( 1) = (  1.0000000  0.0000000  0.0000000 )
                  (  0.0000000  1.0000000  0.0000000 )
                  (  0.0000000  0.0000000  1.0000000 )


      isym =  2     120 deg rotation - cryst. axis [0,0,1]       

 cryst.   s( 2) = (     0          1          0      )    f =(  0.0000011 )
                  (    -1         -1          0      )       (  0.3333340 )
                  (     0          0          1      )       (  0.0000000 )

 cart.    s( 2) = ( -0.5000000 -0.8660254  0.0000000 )    f =( -0.1666660 )
                  (  0.8660254 -0.5000000  0.0000000 )       (  0.2886758 )
                  (  0.0000000  0.0000000  1.0000000 )       (  0.0000000 )


      isym =  3     120 deg rotation - cryst. axis [0,0,-1]      

 cryst.   s( 3) = (    -1         -1          0      )    f =( -0.3333330 )
                  (     1          0          0      )       (  0.0000011 )
                  (     0          0          1      )       (  0.0000000 )

 cart.    s( 3) = ( -0.5000000  0.8660254  0.0000000 )    f =( -0.3333335 )
                  ( -0.8660254 -0.5000000  0.0000000 )       (  0.0000009 )
                  (  0.0000000  0.0000000  1.0000000 )       (  0.0000000 )


      isym =  4     inv. 180 deg rotation - cart. axis [1,0,0]   

 cryst.   s( 4) = (    -1          0          0      )    f =( -0.3333330 )
                  (     1          1          0      )       (  0.0000000 )
                  (     0          0          1      )       (  0.0000000 )

 cart.    s( 4) = ( -1.0000000  0.0000000  0.0000000 )    f =( -0.3333330 )
                  (  0.0000000  1.0000000  0.0000000 )       (  0.0000000 )
                  (  0.0000000  0.0000000  1.0000000 )       (  0.0000000 )


      isym =  5     inv. 180 deg rotation - cryst. axis [0,1,0]  

 cryst.   s( 5) = (     1          1          0      )    f =(  0.0000000 )
                  (     0         -1          0      )       (  0.3333340 )
                  (     0          0          1      )       (  0.0000000 )

 cart.    s( 5) = (  0.5000000  0.8660254  0.0000000 )    f =( -0.1666670 )
                  (  0.8660254 -0.5000000  0.0000000 )       (  0.2886758 )
                  (  0.0000000  0.0000000  1.0000000 )       (  0.0000000 )


      isym =  6     inv. 180 deg rotation - cryst. axis [1,1,0]  

 cryst.   s( 6) = (     0         -1          0      )
                  (    -1          0          0      )
                  (     0          0          1      )

 cart.    s( 6) = (  0.5000000 -0.8660254  0.0000000 )
                  ( -0.8660254 -0.5000000  0.0000000 )
                  (  0.0000000  0.0000000  1.0000000 )


     point group C_3v (3m)  
     there are  3 classes
     the character table:

       E     2C3   3s_v 
A_1    1.00  1.00  1.00
A_2    1.00  1.00 -1.00
E      2.00 -1.00  0.00

     the symmetry operations in each class and the name of the first element:

     E        1
          identity                                               
     2C3      2    3
          120 deg rotation - cryst. axis [0,0,1]                 
     3s_v     4    5    6
          inv. 180 deg rotation - cart. axis [1,0,0]             

   Cartesian axes

     site n.     atom                  positions (alat units)
         1           H   tau(   1) = (   0.1666665   0.4811247   0.3245041  )
         2           H   tau(   2) = (   0.1666665   0.4811247   0.4261918  )
         3           C   tau(   3) = (   0.0000000   0.0000000   0.0000000  )
         4           C   tau(   4) = (   0.0000000   0.1924499   0.0000000  )
         5           C   tau(   5) = (  -0.1666665   0.2886748   0.0000000  )
         6           C   tau(   6) = (  -0.1666665   0.4811247   0.0000000  )
         7           C   tau(   7) = (  -0.3333330   0.5773496   0.0000000  )
         8           C   tau(   8) = (  -0.3333330   0.7697995   0.0000000  )
         9           C   tau(   9) = (   0.3333330   0.0000000   0.0000000  )
        10           C   tau(  10) = (   0.3333330   0.1924499   0.0000000  )
        11           C   tau(  11) = (   0.1666665   0.2886748   0.0000000  )
        12           Cu  tau(  12) = (   0.1666665   0.4811247   0.0000000  )
        13           C   tau(  13) = (   0.0000000   0.5773496   0.0000000  )
        14           C   tau(  14) = (   0.0000000   0.7697995   0.0000000  )
        15           C   tau(  15) = (   0.6666660   0.0000000   0.0000000  )
        16           C   tau(  16) = (   0.6666660   0.1924499   0.0000000  )
        17           C   tau(  17) = (   0.4999995   0.2886748   0.0000000  )
        18           C   tau(  18) = (   0.4999995   0.4811247   0.0000000  )
        19           C   tau(  19) = (   0.3333330   0.5773496   0.0000000  )
        20           C   tau(  20) = (   0.3333330   0.7697995   0.0000000  )

   Crystallographic axes

     site n.     atom                  positions (cryst. coord.)
         1           H   tau(   1) = (  0.4444440  0.5555550  0.2400000  )
         2           H   tau(   2) = (  0.4444440  0.5555550  0.3152072  )
         3           C   tau(   3) = (  0.0000000  0.0000000  0.0000000  )
         4           C   tau(   4) = (  0.1111110  0.2222220  0.0000000  )
         5           C   tau(   5) = (  0.0000000  0.3333330  0.0000000  )
         6           C   tau(   6) = (  0.1111110  0.5555550  0.0000000  )
         7           C   tau(   7) = (  0.0000000  0.6666660  0.0000000  )
         8           C   tau(   8) = (  0.1111110  0.8888879  0.0000000  )
         9           C   tau(   9) = (  0.3333330  0.0000000  0.0000000  )
        10           C   tau(  10) = (  0.4444440  0.2222220  0.0000000  )
        11           C   tau(  11) = (  0.3333330  0.3333330  0.0000000  )
        12           Cu  tau(  12) = (  0.4444440  0.5555550  0.0000000  )
        13           C   tau(  13) = (  0.3333330  0.6666660  0.0000000  )
        14           C   tau(  14) = (  0.4444440  0.8888879  0.0000000  )
        15           C   tau(  15) = (  0.6666660  0.0000000  0.0000000  )
        16           C   tau(  16) = (  0.7777769  0.2222220  0.0000000  )
        17           C   tau(  17) = (  0.6666660  0.3333330  0.0000000  )
        18           C   tau(  18) = (  0.7777769  0.5555550  0.0000000  )
        19           C   tau(  19) = (  0.6666660  0.6666660  0.0000000  )
        20           C   tau(  20) = (  0.7777769  0.8888879  0.0000000  )

     number of k points=     4  Marzari-Vanderbilt smearing, width (Ry)=  0.0010
                       cart. coord. in units 2pi/alat
        k(    1) = (   0.0000000   0.0000000   0.0000000), wk =   0.1250000
        k(    2) = (   0.0000000   0.2886751   0.0000000), wk =   0.7500000
        k(    3) = (   0.0000000  -0.5773503   0.0000000), wk =   0.3750000
        k(    4) = (   0.2500000   0.4330127   0.0000000), wk =   0.7500000

                       cryst. coord.
        k(    1) = (   0.0000000   0.0000000   0.0000000), wk =   0.1250000
        k(    2) = (   0.0000000   0.2500000   0.0000000), wk =   0.7500000
        k(    3) = (   0.0000000  -0.5000000   0.0000000), wk =   0.3750000
        k(    4) = (   0.2500000   0.2500000   0.0000000), wk =   0.7500000

     Dense  grid:   585649 G-vectors     FFT dimensions: ( 108, 108, 135)

     Smooth grid:   252941 G-vectors     FFT dimensions: (  75,  75, 108)

     Dynamical RAM for                 wfc:       3.94 MB

     Dynamical RAM for     wfc (w. buffer):      19.70 MB

     Dynamical RAM for           str. fact:       4.47 MB

     Dynamical RAM for           local pot:       0.00 MB

     Dynamical RAM for          nlocal pot:      12.70 MB

     Dynamical RAM for                qrad:      11.84 MB

     Dynamical RAM for          rho,v,vnew:      10.61 MB

     Dynamical RAM for               rhoin:       3.54 MB

     Dynamical RAM for            rho*nmix:      23.83 MB

     Dynamical RAM for           G-vectors:       5.91 MB

     Dynamical RAM for          h,s,v(r/c):       1.76 MB

     Dynamical RAM for          <psi|beta>:       0.12 MB

     Dynamical RAM for                 psi:      15.76 MB

     Dynamical RAM for                hpsi:      15.76 MB

     Dynamical RAM for                spsi:      15.76 MB

     Dynamical RAM for      wfcinit/wfcrot:      12.85 MB

     Dynamical RAM for           addusdens:     302.36 MB

     Estimated static dynamical RAM per process >     108.78 MB

     Estimated max dynamical RAM per process >     411.14 MB

     Estimated total dynamical RAM >       2.41 GB

     Check: negative core charge=   -0.000002

     Initial potential from superposition of free atoms

     starting charge   80.80665, renormalised to   81.00000


---------------------------------------------------------------------------------
Carrying out rVV10 run using the following parameters:
Nqs =      20    Nr_points =    1024   r_max =   100.000
b_value =  6.30000    beta =  0.00901
     q_mesh =  0.00010000  0.00030000  0.00058939  0.00100810
               0.00161396  0.00249058  0.00375900  0.00559430
               0.00824984  0.01209221  0.01765183  0.02569619
               0.03733578  0.05417739  0.07854596  0.11380545
               0.16482331  0.23864234  0.34545298  0.50000000

Gradients computed in Reciprocal space

---------------------------------------------------------------------------------


     Starting wfcs are   79 randomized atomic wfcs

     total cpu time spent up to now is       14.0 secs

     Self-consistent Calculation

     iteration #  1     ecut=    70.00 Ry     beta= 0.70
     Davidson diagonalization with overlap
     ethr =  1.00E-02,  avg # of iterations =  2.2

     total cpu time spent up to now is       29.0 secs

     total energy              =    -333.89464359 Ry
     Harris-Foulkes estimate   =    -337.32155964 Ry
     estimated scf accuracy    <       4.69213213 Ry

     iteration #  2     ecut=    70.00 Ry     beta= 0.70
     Davidson diagonalization with overlap
     ethr =  5.79E-03,  avg # of iterations =  4.0

     total cpu time spent up to now is       43.0 secs

     total energy              =    -333.85055401 Ry
     Harris-Foulkes estimate   =    -338.95137612 Ry
     estimated scf accuracy    <      12.12845767 Ry

     iteration #  3     ecut=    70.00 Ry     beta= 0.70
     Davidson diagonalization with overlap
     ethr =  5.79E-03,  avg # of iterations =  2.8

     total cpu time spent up to now is       56.0 secs

     total energy              =    -335.55075399 Ry
     Harris-Foulkes estimate   =    -336.19823046 Ry
     estimated scf accuracy    <       1.31856210 Ry

     iteration #  4     ecut=    70.00 Ry     beta= 0.70
     Davidson diagonalization with overlap
     ethr =  1.63E-03,  avg # of iterations =  2.5

     negative rho (up, down):  1.291E-08 0.000E+00

     total cpu time spent up to now is       68.6 secs

     total energy              =    -335.82552544 Ry
     Harris-Foulkes estimate   =    -335.94677138 Ry
     estimated scf accuracy    <       0.34370492 Ry

     iteration #  5     ecut=    70.00 Ry     beta= 0.70
     Davidson diagonalization with overlap
     ethr =  4.24E-04,  avg # of iterations =  2.0

     negative rho (up, down):  2.000E-07 0.000E+00

     total cpu time spent up to now is       80.3 secs

     total energy              =    -335.90030087 Ry
     Harris-Foulkes estimate   =    -335.90841196 Ry
     estimated scf accuracy    <       0.03007275 Ry

     iteration #  6     ecut=    70.00 Ry     beta= 0.70
     Davidson diagonalization with overlap
     ethr =  3.71E-05,  avg # of iterations =  8.5

     negative rho (up, down):  4.582E-05 0.000E+00

     total cpu time spent up to now is       92.9 secs

     total energy              =    -335.90376236 Ry
     Harris-Foulkes estimate   =    -335.90453784 Ry
     estimated scf accuracy    <       0.00174416 Ry

     iteration #  7     ecut=    70.00 Ry     beta= 0.70
     Davidson diagonalization with overlap
     ethr =  2.15E-06,  avg # of iterations =  5.0

     negative rho (up, down):  8.888E-05 0.000E+00

     total cpu time spent up to now is      107.2 secs

     total energy              =    -335.90408658 Ry
     Harris-Foulkes estimate   =    -335.90446424 Ry
     estimated scf accuracy    <       0.00099877 Ry

     iteration #  8     ecut=    70.00 Ry     beta= 0.70
     Davidson diagonalization with overlap
     ethr =  1.23E-06,  avg # of iterations =  2.0

     negative rho (up, down):  1.131E-04 0.000E+00

     total cpu time spent up to now is      118.6 secs

     total energy              =    -335.90423853 Ry
     Harris-Foulkes estimate   =    -335.90425360 Ry
     estimated scf accuracy    <       0.00002221 Ry

     iteration #  9     ecut=    70.00 Ry     beta= 0.70
     Davidson diagonalization with overlap
     ethr =  2.74E-08,  avg # of iterations =  3.0

     negative rho (up, down):  1.208E-04 0.000E+00

     total cpu time spent up to now is      133.0 secs

     total energy              =    -335.90424276 Ry
     Harris-Foulkes estimate   =    -335.90425571 Ry
     estimated scf accuracy    <       0.00003819 Ry

     iteration # 10     ecut=    70.00 Ry     beta= 0.70
     Davidson diagonalization with overlap
     ethr =  2.74E-08,  avg # of iterations =  2.0

     negative rho (up, down):  1.211E-04 0.000E+00

     total cpu time spent up to now is      144.7 secs

     total energy              =    -335.90424523 Ry
     Harris-Foulkes estimate   =    -335.90424638 Ry
     estimated scf accuracy    <       0.00000278 Ry

     iteration # 11     ecut=    70.00 Ry     beta= 0.70
     Davidson diagonalization with overlap
     ethr =  3.43E-09,  avg # of iterations =  3.0

     negative rho (up, down):  1.220E-04 0.000E+00

     total cpu time spent up to now is      157.0 secs

     End of self-consistent calculation

          k = 0.0000 0.0000 0.0000 ( 31593 PWs)   bands (ev):

   -19.6748 -17.3422 -17.3421 -17.1848 -17.1846 -17.1366 -16.1155 -13.4284
   -13.4283 -13.0419 -11.9030 -11.5256 -11.5255 -10.5679 -10.5678  -9.9461
    -9.4490  -9.4490  -8.8136  -8.6232  -8.6232  -8.3599  -8.3599  -7.8449
    -6.6054  -6.4901  -6.1316  -5.9591  -5.9591  -4.9843  -4.8944  -4.8943
    -4.8028  -4.4716  -4.4716  -4.2670  -4.2669  -3.7773  -0.3117   0.0498
     0.0498   0.1638   0.1639   0.9463   2.8401   4.4837   4.5973   4.6059
     4.6059

     occupation numbers 
     1.0000   1.0000   1.0000   1.0000   1.0000   1.0000   1.0000   1.0000
     1.0000   1.0000   1.0000   1.0000   1.0000   1.0000   1.0000   1.0000
     1.0000   1.0000   1.0000   1.0000   1.0000   1.0000   1.0000   1.0000
     1.0000   1.0000   1.0000   1.0000   1.0000   1.0000   1.0000   1.0000
     1.0000   1.0000   1.0000   1.0000   1.0000   1.0000   0.0000   0.0000
     0.0000   0.0000   0.0000   0.0000   0.0000   0.0000   0.0000   0.0000
     0.0000

          k = 0.0000 0.2887 0.0000 ( 31638 PWs)   bands (ev):

   -19.5152 -18.2417 -17.7146 -17.4051 -16.5349 -16.1791 -15.4792 -14.3924
   -13.7219 -12.7576 -12.3785 -11.7105 -11.6338 -10.7663 -10.0498  -9.9078
    -9.7008  -9.3301  -8.6732  -8.6298  -8.3523  -7.8368  -7.5944  -7.3463
    -7.0260  -6.5849  -6.4517  -6.4001  -5.8560  -5.7701  -5.0908  -5.0458
    -4.9304  -4.6153  -4.4940  -3.7635  -3.6928  -2.7994  -1.4914  -0.8697
    -0.3715  -0.0391   1.1961   1.6994   2.8376   3.0297   3.6247   4.2266
     4.4990

     occupation numbers 
     1.0000   1.0000   1.0000   1.0000   1.0000   1.0000   1.0000   1.0000
     1.0000   1.0000   1.0000   1.0000   1.0000   1.0000   1.0000   1.0000
     1.0000   1.0000   1.0000   1.0000   1.0000   1.0000   1.0000   1.0000
     1.0000   1.0000   1.0000   1.0000   1.0000   1.0000   1.0000   1.0000
     1.0000   1.0000   1.0000   1.0000   1.0000   1.0000   1.0000   1.0000
     0.0000   0.0000   0.0000   0.0000   0.0000   0.0000   0.0000   0.0000
     0.0000

          k = 0.0000-0.5774 0.0000 ( 31614 PWs)   bands (ev):

   -19.1281 -18.9225 -17.8629 -17.5440 -15.7166 -15.3775 -15.3267 -14.9821
   -14.1876 -13.2925 -12.2619 -12.0813 -11.3993 -11.1282 -10.6231  -9.9680
    -8.7103  -8.6364  -8.4015  -8.1745  -8.0296  -7.8651  -7.6736  -7.4457
    -7.1118  -6.7499  -6.4839  -6.3869  -6.2241  -5.9912  -5.8362  -5.2027
    -5.2005  -4.4051  -4.2199  -2.9136  -2.7420  -2.5842  -2.3630  -1.5609
    -1.0088  -0.2524   1.6833   2.2513   2.4734   2.6239   3.4398   3.5608
     3.9898

     occupation numbers 
     1.0000   1.0000   1.0000   1.0000   1.0000   1.0000   1.0000   1.0000
     1.0000   1.0000   1.0000   1.0000   1.0000   1.0000   1.0000   1.0000
     1.0000   1.0000   1.0000   1.0000   1.0000   1.0000   1.0000   1.0000
     1.0000   1.0000   1.0000   1.0000   1.0000   1.0000   1.0000   1.0000
     1.0000   1.0000   1.0000   1.0000   1.0000   1.0000   1.0000   1.0000
     1.0000   0.0000   0.0000   0.0000   0.0000   0.0000   0.0000   0.0000
     0.0000

          k = 0.2500 0.4330 0.0000 ( 31601 PWs)   bands (ev):

   -19.2068 -18.6453 -18.3810 -16.7625 -16.5227 -15.4430 -15.1460 -14.8367
   -13.7908 -13.1662 -12.8849 -12.2098 -11.4337 -11.1647 -10.1033  -9.4665
    -8.9507  -8.6972  -8.6537  -8.6493  -8.2231  -7.6494  -7.4419  -7.2865
    -7.1021  -6.8042  -6.6059  -6.2888  -6.2524  -6.0440  -5.9126  -5.0987
    -4.8408  -4.2716  -4.0889  -3.8789  -2.8131  -2.4807  -2.0732  -1.3501
    -0.8017  -0.4360   1.5572   1.8410   2.2515   3.1365   3.3938   4.1024
     4.2693

     occupation numbers 
     1.0000   1.0000   1.0000   1.0000   1.0000   1.0000   1.0000   1.0000
     1.0000   1.0000   1.0000   1.0000   1.0000   1.0000   1.0000   1.0000
     1.0000   1.0000   1.0000   1.0000   1.0000   1.0000   1.0000   1.0000
     1.0000   1.0000   1.0000   1.0000   1.0000   1.0000   1.0000   1.0000
     1.0000   1.0000   1.0000   1.0000   1.0000   1.0000   1.0000   1.0000
     1.0000   0.1667   0.0000   0.0000   0.0000   0.0000   0.0000   0.0000
     0.0000

     the Fermi energy is    -0.4417 ev

!    total energy              =    -335.90424554 Ry
     Harris-Foulkes estimate   =    -335.90424586 Ry
     estimated scf accuracy    <       0.00000014 Ry

     The total energy is the sum of the following terms:

     one-electron contribution =   -1041.74455887 Ry
     hartree contribution      =     547.29272798 Ry
     xc contribution           =    -126.22081870 Ry
     ewald contribution        =     284.76849848 Ry
     smearing contrib. (-TS)   =      -0.00009442 Ry

     convergence has been achieved in  11 iterations

     Writing output data file gr-12.save/

     init_run     :     12.49s CPU     12.81s WALL (       1 calls)
     electrons    :    138.61s CPU    143.00s WALL (       1 calls)

     Called by init_run:
     wfcinit      :      5.11s CPU      5.16s WALL (       1 calls)
     wfcinit:atom :      0.02s CPU      0.02s WALL (       4 calls)
     wfcinit:wfcr :      4.97s CPU      5.02s WALL (       4 calls)
     potinit      :      3.60s CPU      3.72s WALL (       1 calls)
     hinit0       :      2.95s CPU      2.97s WALL (       1 calls)

     Called by electrons:
     c_bands      :     91.05s CPU     91.71s WALL (      11 calls)
     sum_band     :     19.37s CPU     20.76s WALL (      11 calls)
     v_of_rho     :     22.88s CPU     24.06s WALL (      12 calls)
     v_h          :      0.24s CPU      0.24s WALL (      12 calls)
     v_xc         :     22.64s CPU     23.81s WALL (      12 calls)
     newd         :      7.07s CPU      8.43s WALL (      12 calls)
     mix_rho      :      0.51s CPU      0.52s WALL (      11 calls)

     Called by c_bands:
     init_us_2    :      0.57s CPU      0.57s WALL (      92 calls)
     cegterg      :     89.39s CPU     90.04s WALL (      44 calls)

     Called by sum_band:
     sum_band:bec :      0.01s CPU      0.01s WALL (      44 calls)
     addusdens    :      8.30s CPU      9.58s WALL (      11 calls)

     Called by *egterg:
     h_psi        :     54.44s CPU     55.07s WALL (     196 calls)
     s_psi        :     15.26s CPU     15.28s WALL (     196 calls)
     g_psi        :      0.14s CPU      0.14s WALL (     148 calls)
     cdiaghg      :      1.34s CPU      1.34s WALL (     192 calls)
     cegterg:over :      8.47s CPU      8.49s WALL (     148 calls)
     cegterg:upda :      5.88s CPU      5.90s WALL (     148 calls)
     cegterg:last :      4.28s CPU      4.29s WALL (      44 calls)

     Called by h_psi:
     h_psi:pot    :     54.28s CPU     54.91s WALL (     196 calls)
     h_psi:calbec :     15.80s CPU     15.81s WALL (     196 calls)
     vloc_psi     :     22.93s CPU     23.55s WALL (     196 calls)
     add_vuspsi   :     15.55s CPU     15.55s WALL (     196 calls)

     General routines
     calbec       :     21.42s CPU     21.43s WALL (     240 calls)
     fft          :     11.13s CPU     11.49s WALL (     754 calls)
     ffts         :      0.09s CPU      0.09s WALL (      23 calls)
     fftw         :     24.17s CPU     24.80s WALL (   14140 calls)
     interpolate  :      0.25s CPU      0.26s WALL (      12 calls)

     Parallel routines
     fft_scatt_xy :      4.64s CPU      4.73s WALL (   14917 calls)
     fft_scatt_yz :     14.25s CPU     14.82s WALL (   14917 calls)

     PWSCF        :   2m32.39s CPU   2m37.23s WALL


   This run was terminated on:  11:17:55  19Nov2023            

=------------------------------------------------------------------------------=
   JOB DONE.
=------------------------------------------------------------------------------=
