
     Program PWSCF v.6.4.1 starts on 19Nov2023 at 11:17:55 

     This program is part of the open-source Quantum ESPRESSO suite
     for quantum simulation of materials; please cite
         "P. Giannozzi et al., J. Phys.:Condens. Matter 21 395502 (2009);
         "P. Giannozzi et al., J. Phys.:Condens. Matter 29 465901 (2017);
          URL http://www.quantum-espresso.org", 
     in publications or presentations arising from this work. More details at
     http://www.quantum-espresso.org/quote

     Parallel version (MPI), running on     6 processors

     MPI processes distributed on     1 nodes
     R & G space division:  proc/nbgrp/npool/nimage =       6
     Reading input from distance-2.2.in

     Current dimensions of program PWSCF are:
     Max number of different atomic species (ntypx) = 10
     Max number of k-points (npk) =  40000
     Max angular momentum in pseudopotentials (lmaxx) =  3

     IMPORTANT: XC functional enforced from input :
     Exchange-correlation      = RVV10 ( 1  4 13  4 3 0)
     Any further DFT definition will be discarded
     Please, verify this is what you really want

               file H.pbe-rrkjus.UPF: wavefunction(s)  1S renormalized
               file Cu.pbe-dn-rrkjus_psl.1.0.0.UPF: wavefunction(s)  3D renormalized

     Subspace diagonalization in iterative solution of the eigenvalue problem:
     a serial algorithm will be used


     Parallelization info
     --------------------
     sticks:   dense  smooth     PW     G-vecs:    dense   smooth      PW
     Min        1102     631    167                97606    42156    5775
     Max        1103     633    168                97613    42157    5780
     Sum        6613    3793   1003               585649   252941   34665



     bravais-lattice index     =            4
     lattice parameter (alat)  =      13.9762  a.u.
     unit-cell volume          =    3196.7546 (a.u.)^3
     number of atoms/cell      =           20
     number of atomic types    =            3
     number of electrons       =        81.00
     number of Kohn-Sham states=           49
     kinetic-energy cutoff     =      70.0000  Ry
     charge density cutoff     =     490.0000  Ry
     convergence threshold     =      1.0E-06
     mixing beta               =       0.7000
     number of iterations used =            8  plain     mixing
     Exchange-correlation      = RVV10 ( 1  4 13  4 3 0)

     celldm(1)=  13.976226  celldm(2)=   0.000000  celldm(3)=   1.352100
     celldm(4)=   0.000000  celldm(5)=   0.000000  celldm(6)=   0.000000

     crystal axes: (cart. coord. in units of alat)
               a(1) = (   1.000000   0.000000   0.000000 )  
               a(2) = (  -0.500000   0.866025   0.000000 )  
               a(3) = (   0.000000   0.000000   1.352100 )  

     reciprocal axes: (cart. coord. in units 2 pi/alat)
               b(1) = (  1.000000  0.577350 -0.000000 )  
               b(2) = (  0.000000  1.154701  0.000000 )  
               b(3) = (  0.000000 -0.000000  0.739590 )  


     PseudoPot. # 1 for H  read from file:
     /home/cristian/Escritorio/Proyecto_Grafeno/pseudopotenciales/H.pbe-rrkjus.UPF
     MD5 check sum: 7cc9d459525c9a0585f487a71c3c9563
     Pseudo is Ultrasoft, Zval =  1.0
     Generated by new atomic code, or converted to UPF format
     Using radial grid of 1061 points,  2 beta functions with: 
                l(1) =   0
                l(2) =   0
     Q(r) pseudized with 0 coefficients 


     PseudoPot. # 2 for C  read from file:
     /home/cristian/Escritorio/Proyecto_Grafeno/pseudopotenciales/C.pbe-n-rrkjus_psl.1.0.0.UPF
     MD5 check sum: 1fdd950c42eb37d8afe3dd2f8d12311e
     Pseudo is Ultrasoft + core correction, Zval =  4.0
     Generated using "atomic" code by A. Dal Corso v.6.3MaX
     Using radial grid of 1073 points,  4 beta functions with: 
                l(1) =   0
                l(2) =   0
                l(3) =   1
                l(4) =   1
     Q(r) pseudized with 0 coefficients 


     PseudoPot. # 3 for Cu read from file:
     /home/cristian/Escritorio/Proyecto_Grafeno/pseudopotenciales/Cu.pbe-dn-rrkjus_psl.1.0.0.UPF
     MD5 check sum: ba3d6c84e19846e79d48cdc68ff7152b
     Pseudo is Ultrasoft + core correction, Zval = 11.0
     Generated using "atomic" code by A. Dal Corso v.6.3
     Using radial grid of 1199 points,  6 beta functions with: 
                l(1) =   0
                l(2) =   0
                l(3) =   1
                l(4) =   1
                l(5) =   2
                l(6) =   2
     Q(r) pseudized with 0 coefficients 


     vdW kernel table read from file rVV10_kernel_table
     MD5 check sum: b8e2538accc0c0b3206b45ba4daaba6c

     atomic species   valence    mass     pseudopotential
        H              1.00     1.00794     H ( 1.00)
        C              4.00    12.01070     C ( 1.00)
        Cu            11.00    63.54600     Cu( 1.00)

      6 Sym. Ops. (no inversion) found ( 4 have fractional translation)


                                    s                        frac. trans.

      isym =  1     identity                                     

 cryst.   s( 1) = (     1          0          0      )
                  (     0          1          0      )
                  (     0          0          1      )

 cart.    s( 1) = (  1.0000000  0.0000000  0.0000000 )
                  (  0.0000000  1.0000000  0.0000000 )
                  (  0.0000000  0.0000000  1.0000000 )


      isym =  2     120 deg rotation - cryst. axis [0,0,1]       

 cryst.   s( 2) = (     0          1          0      )    f =(  0.0000011 )
                  (    -1         -1          0      )       (  0.3333340 )
                  (     0          0          1      )       (  0.0000000 )

 cart.    s( 2) = ( -0.5000000 -0.8660254  0.0000000 )    f =( -0.1666660 )
                  (  0.8660254 -0.5000000  0.0000000 )       (  0.2886758 )
                  (  0.0000000  0.0000000  1.0000000 )       (  0.0000000 )


      isym =  3     120 deg rotation - cryst. axis [0,0,-1]      

 cryst.   s( 3) = (    -1         -1          0      )    f =( -0.3333330 )
                  (     1          0          0      )       (  0.0000011 )
                  (     0          0          1      )       (  0.0000000 )

 cart.    s( 3) = ( -0.5000000  0.8660254  0.0000000 )    f =( -0.3333335 )
                  ( -0.8660254 -0.5000000  0.0000000 )       (  0.0000009 )
                  (  0.0000000  0.0000000  1.0000000 )       (  0.0000000 )


      isym =  4     inv. 180 deg rotation - cart. axis [1,0,0]   

 cryst.   s( 4) = (    -1          0          0      )    f =( -0.3333330 )
                  (     1          1          0      )       (  0.0000000 )
                  (     0          0          1      )       (  0.0000000 )

 cart.    s( 4) = ( -1.0000000  0.0000000  0.0000000 )    f =( -0.3333330 )
                  (  0.0000000  1.0000000  0.0000000 )       (  0.0000000 )
                  (  0.0000000  0.0000000  1.0000000 )       (  0.0000000 )


      isym =  5     inv. 180 deg rotation - cryst. axis [0,1,0]  

 cryst.   s( 5) = (     1          1          0      )    f =(  0.0000000 )
                  (     0         -1          0      )       (  0.3333340 )
                  (     0          0          1      )       (  0.0000000 )

 cart.    s( 5) = (  0.5000000  0.8660254  0.0000000 )    f =( -0.1666670 )
                  (  0.8660254 -0.5000000  0.0000000 )       (  0.2886758 )
                  (  0.0000000  0.0000000  1.0000000 )       (  0.0000000 )


      isym =  6     inv. 180 deg rotation - cryst. axis [1,1,0]  

 cryst.   s( 6) = (     0         -1          0      )
                  (    -1          0          0      )
                  (     0          0          1      )

 cart.    s( 6) = (  0.5000000 -0.8660254  0.0000000 )
                  ( -0.8660254 -0.5000000  0.0000000 )
                  (  0.0000000  0.0000000  1.0000000 )


     point group C_3v (3m)  
     there are  3 classes
     the character table:

       E     2C3   3s_v 
A_1    1.00  1.00  1.00
A_2    1.00  1.00 -1.00
E      2.00 -1.00  0.00

     the symmetry operations in each class and the name of the first element:

     E        1
          identity                                               
     2C3      2    3
          120 deg rotation - cryst. axis [0,0,1]                 
     3s_v     4    5    6
          inv. 180 deg rotation - cart. axis [1,0,0]             

   Cartesian axes

     site n.     atom                  positions (alat units)
         1           H   tau(   1) = (   0.1666665   0.4811247   0.2974621  )
         2           H   tau(   2) = (   0.1666665   0.4811247   0.3991498  )
         3           C   tau(   3) = (   0.0000000   0.0000000   0.0000000  )
         4           C   tau(   4) = (   0.0000000   0.1924499   0.0000000  )
         5           C   tau(   5) = (  -0.1666665   0.2886748   0.0000000  )
         6           C   tau(   6) = (  -0.1666665   0.4811247   0.0000000  )
         7           C   tau(   7) = (  -0.3333330   0.5773496   0.0000000  )
         8           C   tau(   8) = (  -0.3333330   0.7697995   0.0000000  )
         9           C   tau(   9) = (   0.3333330   0.0000000   0.0000000  )
        10           C   tau(  10) = (   0.3333330   0.1924499   0.0000000  )
        11           C   tau(  11) = (   0.1666665   0.2886748   0.0000000  )
        12           Cu  tau(  12) = (   0.1666665   0.4811247   0.0000000  )
        13           C   tau(  13) = (   0.0000000   0.5773496   0.0000000  )
        14           C   tau(  14) = (   0.0000000   0.7697995   0.0000000  )
        15           C   tau(  15) = (   0.6666660   0.0000000   0.0000000  )
        16           C   tau(  16) = (   0.6666660   0.1924499   0.0000000  )
        17           C   tau(  17) = (   0.4999995   0.2886748   0.0000000  )
        18           C   tau(  18) = (   0.4999995   0.4811247   0.0000000  )
        19           C   tau(  19) = (   0.3333330   0.5773496   0.0000000  )
        20           C   tau(  20) = (   0.3333330   0.7697995   0.0000000  )

   Crystallographic axes

     site n.     atom                  positions (cryst. coord.)
         1           H   tau(   1) = (  0.4444440  0.5555550  0.2200000  )
         2           H   tau(   2) = (  0.4444440  0.5555550  0.2952072  )
         3           C   tau(   3) = (  0.0000000  0.0000000  0.0000000  )
         4           C   tau(   4) = (  0.1111110  0.2222220  0.0000000  )
         5           C   tau(   5) = (  0.0000000  0.3333330  0.0000000  )
         6           C   tau(   6) = (  0.1111110  0.5555550  0.0000000  )
         7           C   tau(   7) = (  0.0000000  0.6666660  0.0000000  )
         8           C   tau(   8) = (  0.1111110  0.8888879  0.0000000  )
         9           C   tau(   9) = (  0.3333330  0.0000000  0.0000000  )
        10           C   tau(  10) = (  0.4444440  0.2222220  0.0000000  )
        11           C   tau(  11) = (  0.3333330  0.3333330  0.0000000  )
        12           Cu  tau(  12) = (  0.4444440  0.5555550  0.0000000  )
        13           C   tau(  13) = (  0.3333330  0.6666660  0.0000000  )
        14           C   tau(  14) = (  0.4444440  0.8888879  0.0000000  )
        15           C   tau(  15) = (  0.6666660  0.0000000  0.0000000  )
        16           C   tau(  16) = (  0.7777769  0.2222220  0.0000000  )
        17           C   tau(  17) = (  0.6666660  0.3333330  0.0000000  )
        18           C   tau(  18) = (  0.7777769  0.5555550  0.0000000  )
        19           C   tau(  19) = (  0.6666660  0.6666660  0.0000000  )
        20           C   tau(  20) = (  0.7777769  0.8888879  0.0000000  )

     number of k points=     4  Marzari-Vanderbilt smearing, width (Ry)=  0.0010
                       cart. coord. in units 2pi/alat
        k(    1) = (   0.0000000   0.0000000   0.0000000), wk =   0.1250000
        k(    2) = (   0.0000000   0.2886751   0.0000000), wk =   0.7500000
        k(    3) = (   0.0000000  -0.5773503   0.0000000), wk =   0.3750000
        k(    4) = (   0.2500000   0.4330127   0.0000000), wk =   0.7500000

                       cryst. coord.
        k(    1) = (   0.0000000   0.0000000   0.0000000), wk =   0.1250000
        k(    2) = (   0.0000000   0.2500000   0.0000000), wk =   0.7500000
        k(    3) = (   0.0000000  -0.5000000   0.0000000), wk =   0.3750000
        k(    4) = (   0.2500000   0.2500000   0.0000000), wk =   0.7500000

     Dense  grid:   585649 G-vectors     FFT dimensions: ( 108, 108, 135)

     Smooth grid:   252941 G-vectors     FFT dimensions: (  75,  75, 108)

     Dynamical RAM for                 wfc:       3.94 MB

     Dynamical RAM for     wfc (w. buffer):      19.70 MB

     Dynamical RAM for           str. fact:       4.47 MB

     Dynamical RAM for           local pot:       0.00 MB

     Dynamical RAM for          nlocal pot:      12.70 MB

     Dynamical RAM for                qrad:      11.84 MB

     Dynamical RAM for          rho,v,vnew:      10.61 MB

     Dynamical RAM for               rhoin:       3.54 MB

     Dynamical RAM for            rho*nmix:      23.83 MB

     Dynamical RAM for           G-vectors:       5.91 MB

     Dynamical RAM for          h,s,v(r/c):       1.76 MB

     Dynamical RAM for          <psi|beta>:       0.12 MB

     Dynamical RAM for                 psi:      15.76 MB

     Dynamical RAM for                hpsi:      15.76 MB

     Dynamical RAM for                spsi:      15.76 MB

     Dynamical RAM for      wfcinit/wfcrot:      12.85 MB

     Dynamical RAM for           addusdens:     302.36 MB

     Estimated static dynamical RAM per process >     108.78 MB

     Estimated max dynamical RAM per process >     411.14 MB

     Estimated total dynamical RAM >       2.41 GB

     Check: negative core charge=   -0.000002

     Initial potential from superposition of free atoms

     starting charge   80.80665, renormalised to   81.00000


---------------------------------------------------------------------------------
Carrying out rVV10 run using the following parameters:
Nqs =      20    Nr_points =    1024   r_max =   100.000
b_value =  6.30000    beta =  0.00901
     q_mesh =  0.00010000  0.00030000  0.00058939  0.00100810
               0.00161396  0.00249058  0.00375900  0.00559430
               0.00824984  0.01209221  0.01765183  0.02569619
               0.03733578  0.05417739  0.07854596  0.11380545
               0.16482331  0.23864234  0.34545298  0.50000000

Gradients computed in Reciprocal space

---------------------------------------------------------------------------------


     Starting wfcs are   79 randomized atomic wfcs

     total cpu time spent up to now is       13.6 secs

     Self-consistent Calculation

     iteration #  1     ecut=    70.00 Ry     beta= 0.70
     Davidson diagonalization with overlap
     ethr =  1.00E-02,  avg # of iterations =  2.2

     total cpu time spent up to now is       27.6 secs

     total energy              =    -333.95651385 Ry
     Harris-Foulkes estimate   =    -337.31568483 Ry
     estimated scf accuracy    <       4.62135055 Ry

     iteration #  2     ecut=    70.00 Ry     beta= 0.70
     Davidson diagonalization with overlap
     ethr =  5.71E-03,  avg # of iterations =  4.2

     total cpu time spent up to now is       41.3 secs

     total energy              =    -333.90348272 Ry
     Harris-Foulkes estimate   =    -338.73868927 Ry
     estimated scf accuracy    <      11.32562617 Ry

     iteration #  3     ecut=    70.00 Ry     beta= 0.70
     Davidson diagonalization with overlap
     ethr =  5.71E-03,  avg # of iterations =  3.2

     total cpu time spent up to now is       53.8 secs

     total energy              =    -335.50935178 Ry
     Harris-Foulkes estimate   =    -336.20048140 Ry
     estimated scf accuracy    <       1.47930953 Ry

     iteration #  4     ecut=    70.00 Ry     beta= 0.70
     Davidson diagonalization with overlap
     ethr =  1.83E-03,  avg # of iterations =  2.8

     negative rho (up, down):  2.039E-08 0.000E+00

     total cpu time spent up to now is       65.9 secs

     total energy              =    -335.81062253 Ry
     Harris-Foulkes estimate   =    -335.94489267 Ry
     estimated scf accuracy    <       0.40172671 Ry

     iteration #  5     ecut=    70.00 Ry     beta= 0.70
     Davidson diagonalization with overlap
     ethr =  4.96E-04,  avg # of iterations =  2.2

     negative rho (up, down):  4.804E-07 0.000E+00

     total cpu time spent up to now is       76.8 secs

     total energy              =    -335.89304142 Ry
     Harris-Foulkes estimate   =    -335.90043589 Ry
     estimated scf accuracy    <       0.02815793 Ry

     iteration #  6     ecut=    70.00 Ry     beta= 0.70
     Davidson diagonalization with overlap
     ethr =  3.48E-05,  avg # of iterations =  5.8

     negative rho (up, down):  5.266E-05 0.000E+00

     total cpu time spent up to now is       88.8 secs

     total energy              =    -335.89612857 Ry
     Harris-Foulkes estimate   =    -335.89697273 Ry
     estimated scf accuracy    <       0.00198556 Ry

     iteration #  7     ecut=    70.00 Ry     beta= 0.70
     Davidson diagonalization with overlap
     ethr =  2.45E-06,  avg # of iterations =  6.2

     negative rho (up, down):  9.991E-05 0.000E+00

     total cpu time spent up to now is      108.7 secs

     total energy              =    -335.89641229 Ry
     Harris-Foulkes estimate   =    -335.89691499 Ry
     estimated scf accuracy    <       0.00148759 Ry

     iteration #  8     ecut=    70.00 Ry     beta= 0.70
     Davidson diagonalization with overlap
     ethr =  1.84E-06,  avg # of iterations =  2.0

     negative rho (up, down):  1.120E-04 0.000E+00

     total cpu time spent up to now is      123.8 secs

     total energy              =    -335.89656641 Ry
     Harris-Foulkes estimate   =    -335.89661420 Ry
     estimated scf accuracy    <       0.00008147 Ry

     iteration #  9     ecut=    70.00 Ry     beta= 0.70
     Davidson diagonalization with overlap
     ethr =  1.01E-07,  avg # of iterations =  3.0

     negative rho (up, down):  1.268E-04 0.000E+00

     total cpu time spent up to now is      138.2 secs

     total energy              =    -335.89659227 Ry
     Harris-Foulkes estimate   =    -335.89660514 Ry
     estimated scf accuracy    <       0.00003384 Ry

     iteration # 10     ecut=    70.00 Ry     beta= 0.70
     Davidson diagonalization with overlap
     ethr =  4.18E-08,  avg # of iterations =  2.0

     negative rho (up, down):  1.292E-04 0.000E+00

     total cpu time spent up to now is      149.7 secs

     total energy              =    -335.89659415 Ry
     Harris-Foulkes estimate   =    -335.89659638 Ry
     estimated scf accuracy    <       0.00000478 Ry

     iteration # 11     ecut=    70.00 Ry     beta= 0.70
     Davidson diagonalization with overlap
     ethr =  5.90E-09,  avg # of iterations =  2.5

     negative rho (up, down):  1.277E-04 0.000E+00

     total cpu time spent up to now is      162.0 secs

     End of self-consistent calculation

          k = 0.0000 0.0000 0.0000 ( 31593 PWs)   bands (ev):

   -19.6817 -17.3483 -17.3481 -17.1918 -17.1917 -17.1428 -16.1261 -13.4370
   -13.4370 -13.0480 -11.9114 -11.5341 -11.5340 -10.5746 -10.5745  -9.9527
    -9.4568  -9.4568  -8.8315  -8.6438  -8.6438  -8.3678  -8.3678  -7.8973
    -6.7822  -6.4962  -6.1379  -5.9657  -5.9657  -4.9004  -4.9003  -4.8899
    -4.8058  -4.4790  -4.4789  -4.2755  -4.2754  -3.6976  -0.3178   0.0412
     0.0412   0.1507   0.1508   0.9449   2.8393   4.4557   4.5990   4.5990
     4.6816

     occupation numbers 
     1.0000   1.0000   1.0000   1.0000   1.0000   1.0000   1.0000   1.0000
     1.0000   1.0000   1.0000   1.0000   1.0000   1.0000   1.0000   1.0000
     1.0000   1.0000   1.0000   1.0000   1.0000   1.0000   1.0000   1.0000
     1.0000   1.0000   1.0000   1.0000   1.0000   1.0000   1.0000   1.0000
     1.0000   1.0000   1.0000   1.0000   1.0000   1.0000   0.0000   0.0000
     0.0000   0.0000   0.0000   0.0000   0.0000   0.0000   0.0000   0.0000
     0.0000

          k = 0.0000 0.2887 0.0000 ( 31638 PWs)   bands (ev):

   -19.5220 -18.2483 -17.7210 -17.4126 -16.5416 -16.1858 -15.4879 -14.3995
   -13.7302 -12.7663 -12.3863 -11.7187 -11.6408 -10.7756 -10.0579  -9.9159
    -9.7076  -9.3379  -8.6932  -8.6503  -8.3713  -7.8441  -7.6732  -7.3714
    -7.0323  -6.6942  -6.4666  -6.4066  -5.8581  -5.7768  -5.0978  -5.0512
    -4.9048  -4.5189  -4.5010  -3.7710  -3.6898  -2.7857  -1.4984  -0.8677
    -0.3848  -0.0526   1.1886   1.6919   2.8256   3.0312   3.6155   4.2452
     4.4925

     occupation numbers 
     1.0000   1.0000   1.0000   1.0000   1.0000   1.0000   1.0000   1.0000
     1.0000   1.0000   1.0000   1.0000   1.0000   1.0000   1.0000   1.0000
     1.0000   1.0000   1.0000   1.0000   1.0000   1.0000   1.0000   1.0000
     1.0000   1.0000   1.0000   1.0000   1.0000   1.0000   1.0000   1.0000
     1.0000   1.0000   1.0000   1.0000   1.0000   1.0000   1.0000   1.0000
     0.0000   0.0000   0.0000   0.0000   0.0000   0.0000   0.0000   0.0000
     0.0000

          k = 0.0000-0.5774 0.0000 ( 31614 PWs)   bands (ev):

   -19.1342 -18.9299 -17.8694 -17.5518 -15.7236 -15.3840 -15.3336 -14.9888
   -14.1972 -13.2999 -12.2703 -12.0903 -11.4067 -11.1369 -10.6321  -9.9774
    -8.7298  -8.6569  -8.4075  -8.1813  -8.0595  -7.8728  -7.7039  -7.4523
    -7.2437  -6.7583  -6.5434  -6.3937  -6.2270  -5.9983  -5.7990  -5.2100
    -5.1630  -4.4117  -4.1502  -2.9199  -2.7474  -2.5922  -2.3699  -1.5422
    -1.0227  -0.2660   1.6754   2.2453   2.4644   2.6130   3.4472   3.5247
     4.0251

     occupation numbers 
     1.0000   1.0000   1.0000   1.0000   1.0000   1.0000   1.0000   1.0000
     1.0000   1.0000   1.0000   1.0000   1.0000   1.0000   1.0000   1.0000
     1.0000   1.0000   1.0000   1.0000   1.0000   1.0000   1.0000   1.0000
     1.0000   1.0000   1.0000   1.0000   1.0000   1.0000   1.0000   1.0000
     1.0000   1.0000   1.0000   1.0000   1.0000   1.0000   1.0000   1.0000
     1.0000   0.0000   0.0000   0.0000   0.0000   0.0000   0.0000   0.0000
     0.0000

          k = 0.2500 0.4330 0.0000 ( 31601 PWs)   bands (ev):

   -19.2133 -18.6517 -18.3888 -16.7692 -16.5300 -15.4500 -15.1528 -14.8444
   -13.7989 -13.1743 -12.8915 -12.2189 -11.4444 -11.1737 -10.1113  -9.4736
    -8.9604  -8.7169  -8.6720  -8.6585  -8.2328  -7.6566  -7.4860  -7.4071
    -7.1153  -6.8113  -6.6749  -6.2957  -6.2552  -6.0511  -5.8567  -5.0934
    -4.8439  -4.2291  -4.0733  -3.8694  -2.8184  -2.4876  -2.0754  -1.3402
    -0.8154  -0.4496   1.5486   1.8337   2.2426   3.1226   3.4011   4.1101
     4.2674

     occupation numbers 
     1.0000   1.0000   1.0000   1.0000   1.0000   1.0000   1.0000   1.0000
     1.0000   1.0000   1.0000   1.0000   1.0000   1.0000   1.0000   1.0000
     1.0000   1.0000   1.0000   1.0000   1.0000   1.0000   1.0000   1.0000
     1.0000   1.0000   1.0000   1.0000   1.0000   1.0000   1.0000   1.0000
     1.0000   1.0000   1.0000   1.0000   1.0000   1.0000   1.0000   1.0000
     1.0000   0.1667   0.0000   0.0000   0.0000   0.0000   0.0000   0.0000
     0.0000

     the Fermi energy is    -0.4554 ev

!    total energy              =    -335.89659514 Ry
     Harris-Foulkes estimate   =    -335.89659500 Ry
     estimated scf accuracy    <       0.00000016 Ry

     The total energy is the sum of the following terms:

     one-electron contribution =   -1046.27663989 Ry
     hartree contribution      =     549.54616207 Ry
     xc contribution           =    -126.23790552 Ry
     ewald contribution        =     287.07188261 Ry
     smearing contrib. (-TS)   =      -0.00009442 Ry

     convergence has been achieved in  11 iterations

     Writing output data file gr-12.save/

     init_run     :     12.18s CPU     12.49s WALL (       1 calls)
     electrons    :    143.54s CPU    148.40s WALL (       1 calls)

     Called by init_run:
     wfcinit      :      4.54s CPU      4.58s WALL (       1 calls)
     wfcinit:atom :      0.02s CPU      0.02s WALL (       4 calls)
     wfcinit:wfcr :      4.42s CPU      4.45s WALL (       4 calls)
     potinit      :      3.63s CPU      3.76s WALL (       1 calls)
     hinit0       :      3.24s CPU      3.26s WALL (       1 calls)

     Called by electrons:
     c_bands      :     94.07s CPU     94.75s WALL (      11 calls)
     sum_band     :     20.39s CPU     21.89s WALL (      11 calls)
     v_of_rho     :     23.37s CPU     24.74s WALL (      12 calls)
     v_h          :      0.21s CPU      0.24s WALL (      12 calls)
     v_xc         :     23.16s CPU     24.50s WALL (      12 calls)
     newd         :      7.21s CPU      8.71s WALL (      12 calls)
     mix_rho      :      0.54s CPU      0.55s WALL (      11 calls)

     Called by c_bands:
     init_us_2    :      0.56s CPU      0.57s WALL (      92 calls)
     cegterg      :     92.27s CPU     92.94s WALL (      44 calls)

     Called by sum_band:
     sum_band:bec :      0.01s CPU      0.01s WALL (      44 calls)
     addusdens    :      8.75s CPU     10.12s WALL (      11 calls)

     Called by *egterg:
     h_psi        :     56.21s CPU     56.82s WALL (     193 calls)
     s_psi        :     15.48s CPU     15.51s WALL (     193 calls)
     g_psi        :      0.14s CPU      0.14s WALL (     145 calls)
     cdiaghg      :      1.43s CPU      1.43s WALL (     189 calls)
     cegterg:over :      8.76s CPU      8.77s WALL (     145 calls)
     cegterg:upda :      5.80s CPU      5.83s WALL (     145 calls)
     cegterg:last :      4.27s CPU      4.28s WALL (      44 calls)

     Called by h_psi:
     h_psi:pot    :     56.04s CPU     56.64s WALL (     193 calls)
     h_psi:calbec :     15.93s CPU     15.95s WALL (     193 calls)
     vloc_psi     :     24.38s CPU     24.95s WALL (     193 calls)
     add_vuspsi   :     15.72s CPU     15.74s WALL (     193 calls)

     General routines
     calbec       :     21.81s CPU     21.84s WALL (     237 calls)
     fft          :     11.58s CPU     12.05s WALL (     754 calls)
     ffts         :      0.09s CPU      0.09s WALL (      23 calls)
     fftw         :     25.82s CPU     26.41s WALL (   13868 calls)
     interpolate  :      0.26s CPU      0.27s WALL (      12 calls)

     Parallel routines
     fft_scatt_xy :      5.11s CPU      5.19s WALL (   14645 calls)
     fft_scatt_yz :     15.29s CPU     15.96s WALL (   14645 calls)

     PWSCF        :   2m36.91s CPU   2m42.25s WALL


   This run was terminated on:  11:20:37  19Nov2023            

=------------------------------------------------------------------------------=
   JOB DONE.
=------------------------------------------------------------------------------=
