
     Program PWSCF v.6.4.1 starts on 19Nov2023 at 11: 1:33 

     This program is part of the open-source Quantum ESPRESSO suite
     for quantum simulation of materials; please cite
         "P. Giannozzi et al., J. Phys.:Condens. Matter 21 395502 (2009);
         "P. Giannozzi et al., J. Phys.:Condens. Matter 29 465901 (2017);
          URL http://www.quantum-espresso.org", 
     in publications or presentations arising from this work. More details at
     http://www.quantum-espresso.org/quote

     Parallel version (MPI), running on     6 processors

     MPI processes distributed on     1 nodes
     R & G space division:  proc/nbgrp/npool/nimage =       6
     Reading input from distance-4.0.in

     Current dimensions of program PWSCF are:
     Max number of different atomic species (ntypx) = 10
     Max number of k-points (npk) =  40000
     Max angular momentum in pseudopotentials (lmaxx) =  3

     IMPORTANT: XC functional enforced from input :
     Exchange-correlation      = RVV10 ( 1  4 13  4 3 0)
     Any further DFT definition will be discarded
     Please, verify this is what you really want

               file H.pbe-rrkjus.UPF: wavefunction(s)  1S renormalized
               file Cu.pbe-dn-rrkjus_psl.1.0.0.UPF: wavefunction(s)  3D renormalized

     Subspace diagonalization in iterative solution of the eigenvalue problem:
     a serial algorithm will be used


     Parallelization info
     --------------------
     sticks:   dense  smooth     PW     G-vecs:    dense   smooth      PW
     Min        1102     631    167                97606    42156    5775
     Max        1103     633    168                97613    42157    5780
     Sum        6613    3793   1003               585649   252941   34665



     bravais-lattice index     =            4
     lattice parameter (alat)  =      13.9762  a.u.
     unit-cell volume          =    3196.7546 (a.u.)^3
     number of atoms/cell      =           20
     number of atomic types    =            3
     number of electrons       =        81.00
     number of Kohn-Sham states=           49
     kinetic-energy cutoff     =      70.0000  Ry
     charge density cutoff     =     490.0000  Ry
     convergence threshold     =      1.0E-06
     mixing beta               =       0.7000
     number of iterations used =            8  plain     mixing
     Exchange-correlation      = RVV10 ( 1  4 13  4 3 0)

     celldm(1)=  13.976226  celldm(2)=   0.000000  celldm(3)=   1.352100
     celldm(4)=   0.000000  celldm(5)=   0.000000  celldm(6)=   0.000000

     crystal axes: (cart. coord. in units of alat)
               a(1) = (   1.000000   0.000000   0.000000 )  
               a(2) = (  -0.500000   0.866025   0.000000 )  
               a(3) = (   0.000000   0.000000   1.352100 )  

     reciprocal axes: (cart. coord. in units 2 pi/alat)
               b(1) = (  1.000000  0.577350 -0.000000 )  
               b(2) = (  0.000000  1.154701  0.000000 )  
               b(3) = (  0.000000 -0.000000  0.739590 )  


     PseudoPot. # 1 for H  read from file:
     /home/cristian/Escritorio/Proyecto_Grafeno/pseudopotenciales/H.pbe-rrkjus.UPF
     MD5 check sum: 7cc9d459525c9a0585f487a71c3c9563
     Pseudo is Ultrasoft, Zval =  1.0
     Generated by new atomic code, or converted to UPF format
     Using radial grid of 1061 points,  2 beta functions with: 
                l(1) =   0
                l(2) =   0
     Q(r) pseudized with 0 coefficients 


     PseudoPot. # 2 for C  read from file:
     /home/cristian/Escritorio/Proyecto_Grafeno/pseudopotenciales/C.pbe-n-rrkjus_psl.1.0.0.UPF
     MD5 check sum: 1fdd950c42eb37d8afe3dd2f8d12311e
     Pseudo is Ultrasoft + core correction, Zval =  4.0
     Generated using "atomic" code by A. Dal Corso v.6.3MaX
     Using radial grid of 1073 points,  4 beta functions with: 
                l(1) =   0
                l(2) =   0
                l(3) =   1
                l(4) =   1
     Q(r) pseudized with 0 coefficients 


     PseudoPot. # 3 for Cu read from file:
     /home/cristian/Escritorio/Proyecto_Grafeno/pseudopotenciales/Cu.pbe-dn-rrkjus_psl.1.0.0.UPF
     MD5 check sum: ba3d6c84e19846e79d48cdc68ff7152b
     Pseudo is Ultrasoft + core correction, Zval = 11.0
     Generated using "atomic" code by A. Dal Corso v.6.3
     Using radial grid of 1199 points,  6 beta functions with: 
                l(1) =   0
                l(2) =   0
                l(3) =   1
                l(4) =   1
                l(5) =   2
                l(6) =   2
     Q(r) pseudized with 0 coefficients 


     vdW kernel table read from file rVV10_kernel_table
     MD5 check sum: b8e2538accc0c0b3206b45ba4daaba6c

     atomic species   valence    mass     pseudopotential
        H              1.00     1.00794     H ( 1.00)
        C              4.00    12.01070     C ( 1.00)
        Cu            11.00    63.54600     Cu( 1.00)

      6 Sym. Ops. (no inversion) found ( 4 have fractional translation)


                                    s                        frac. trans.

      isym =  1     identity                                     

 cryst.   s( 1) = (     1          0          0      )
                  (     0          1          0      )
                  (     0          0          1      )

 cart.    s( 1) = (  1.0000000  0.0000000  0.0000000 )
                  (  0.0000000  1.0000000  0.0000000 )
                  (  0.0000000  0.0000000  1.0000000 )


      isym =  2     120 deg rotation - cryst. axis [0,0,1]       

 cryst.   s( 2) = (     0          1          0      )    f =(  0.0000011 )
                  (    -1         -1          0      )       (  0.3333340 )
                  (     0          0          1      )       (  0.0000000 )

 cart.    s( 2) = ( -0.5000000 -0.8660254  0.0000000 )    f =( -0.1666660 )
                  (  0.8660254 -0.5000000  0.0000000 )       (  0.2886758 )
                  (  0.0000000  0.0000000  1.0000000 )       (  0.0000000 )


      isym =  3     120 deg rotation - cryst. axis [0,0,-1]      

 cryst.   s( 3) = (    -1         -1          0      )    f =( -0.3333330 )
                  (     1          0          0      )       (  0.0000011 )
                  (     0          0          1      )       (  0.0000000 )

 cart.    s( 3) = ( -0.5000000  0.8660254  0.0000000 )    f =( -0.3333335 )
                  ( -0.8660254 -0.5000000  0.0000000 )       (  0.0000009 )
                  (  0.0000000  0.0000000  1.0000000 )       (  0.0000000 )


      isym =  4     inv. 180 deg rotation - cart. axis [1,0,0]   

 cryst.   s( 4) = (    -1          0          0      )    f =( -0.3333330 )
                  (     1          1          0      )       (  0.0000000 )
                  (     0          0          1      )       (  0.0000000 )

 cart.    s( 4) = ( -1.0000000  0.0000000  0.0000000 )    f =( -0.3333330 )
                  (  0.0000000  1.0000000  0.0000000 )       (  0.0000000 )
                  (  0.0000000  0.0000000  1.0000000 )       (  0.0000000 )


      isym =  5     inv. 180 deg rotation - cryst. axis [0,1,0]  

 cryst.   s( 5) = (     1          1          0      )    f =(  0.0000000 )
                  (     0         -1          0      )       (  0.3333340 )
                  (     0          0          1      )       (  0.0000000 )

 cart.    s( 5) = (  0.5000000  0.8660254  0.0000000 )    f =( -0.1666670 )
                  (  0.8660254 -0.5000000  0.0000000 )       (  0.2886758 )
                  (  0.0000000  0.0000000  1.0000000 )       (  0.0000000 )


      isym =  6     inv. 180 deg rotation - cryst. axis [1,1,0]  

 cryst.   s( 6) = (     0         -1          0      )
                  (    -1          0          0      )
                  (     0          0          1      )

 cart.    s( 6) = (  0.5000000 -0.8660254  0.0000000 )
                  ( -0.8660254 -0.5000000  0.0000000 )
                  (  0.0000000  0.0000000  1.0000000 )


     point group C_3v (3m)  
     there are  3 classes
     the character table:

       E     2C3   3s_v 
A_1    1.00  1.00  1.00
A_2    1.00  1.00 -1.00
E      2.00 -1.00  0.00

     the symmetry operations in each class and the name of the first element:

     E        1
          identity                                               
     2C3      2    3
          120 deg rotation - cryst. axis [0,0,1]                 
     3s_v     4    5    6
          inv. 180 deg rotation - cart. axis [1,0,0]             

   Cartesian axes

     site n.     atom                  positions (alat units)
         1           H   tau(   1) = (   0.1666665   0.4811247   0.5408402  )
         2           H   tau(   2) = (   0.1666665   0.4811247   0.6425279  )
         3           C   tau(   3) = (   0.0000000   0.0000000   0.0000000  )
         4           C   tau(   4) = (   0.0000000   0.1924499   0.0000000  )
         5           C   tau(   5) = (  -0.1666665   0.2886748   0.0000000  )
         6           C   tau(   6) = (  -0.1666665   0.4811247   0.0000000  )
         7           C   tau(   7) = (  -0.3333330   0.5773496   0.0000000  )
         8           C   tau(   8) = (  -0.3333330   0.7697995   0.0000000  )
         9           C   tau(   9) = (   0.3333330   0.0000000   0.0000000  )
        10           C   tau(  10) = (   0.3333330   0.1924499   0.0000000  )
        11           C   tau(  11) = (   0.1666665   0.2886748   0.0000000  )
        12           Cu  tau(  12) = (   0.1666665   0.4811247   0.0000000  )
        13           C   tau(  13) = (   0.0000000   0.5773496   0.0000000  )
        14           C   tau(  14) = (   0.0000000   0.7697995   0.0000000  )
        15           C   tau(  15) = (   0.6666660   0.0000000   0.0000000  )
        16           C   tau(  16) = (   0.6666660   0.1924499   0.0000000  )
        17           C   tau(  17) = (   0.4999995   0.2886748   0.0000000  )
        18           C   tau(  18) = (   0.4999995   0.4811247   0.0000000  )
        19           C   tau(  19) = (   0.3333330   0.5773496   0.0000000  )
        20           C   tau(  20) = (   0.3333330   0.7697995   0.0000000  )

   Crystallographic axes

     site n.     atom                  positions (cryst. coord.)
         1           H   tau(   1) = (  0.4444440  0.5555550  0.4000000  )
         2           H   tau(   2) = (  0.4444440  0.5555550  0.4752072  )
         3           C   tau(   3) = (  0.0000000  0.0000000  0.0000000  )
         4           C   tau(   4) = (  0.1111110  0.2222220  0.0000000  )
         5           C   tau(   5) = (  0.0000000  0.3333330  0.0000000  )
         6           C   tau(   6) = (  0.1111110  0.5555550  0.0000000  )
         7           C   tau(   7) = (  0.0000000  0.6666660  0.0000000  )
         8           C   tau(   8) = (  0.1111110  0.8888879  0.0000000  )
         9           C   tau(   9) = (  0.3333330  0.0000000  0.0000000  )
        10           C   tau(  10) = (  0.4444440  0.2222220  0.0000000  )
        11           C   tau(  11) = (  0.3333330  0.3333330  0.0000000  )
        12           Cu  tau(  12) = (  0.4444440  0.5555550  0.0000000  )
        13           C   tau(  13) = (  0.3333330  0.6666660  0.0000000  )
        14           C   tau(  14) = (  0.4444440  0.8888879  0.0000000  )
        15           C   tau(  15) = (  0.6666660  0.0000000  0.0000000  )
        16           C   tau(  16) = (  0.7777769  0.2222220  0.0000000  )
        17           C   tau(  17) = (  0.6666660  0.3333330  0.0000000  )
        18           C   tau(  18) = (  0.7777769  0.5555550  0.0000000  )
        19           C   tau(  19) = (  0.6666660  0.6666660  0.0000000  )
        20           C   tau(  20) = (  0.7777769  0.8888879  0.0000000  )

     number of k points=     4  Marzari-Vanderbilt smearing, width (Ry)=  0.0010
                       cart. coord. in units 2pi/alat
        k(    1) = (   0.0000000   0.0000000   0.0000000), wk =   0.1250000
        k(    2) = (   0.0000000   0.2886751   0.0000000), wk =   0.7500000
        k(    3) = (   0.0000000  -0.5773503   0.0000000), wk =   0.3750000
        k(    4) = (   0.2500000   0.4330127   0.0000000), wk =   0.7500000

                       cryst. coord.
        k(    1) = (   0.0000000   0.0000000   0.0000000), wk =   0.1250000
        k(    2) = (   0.0000000   0.2500000   0.0000000), wk =   0.7500000
        k(    3) = (   0.0000000  -0.5000000   0.0000000), wk =   0.3750000
        k(    4) = (   0.2500000   0.2500000   0.0000000), wk =   0.7500000

     Dense  grid:   585649 G-vectors     FFT dimensions: ( 108, 108, 135)

     Smooth grid:   252941 G-vectors     FFT dimensions: (  75,  75, 108)

     Dynamical RAM for                 wfc:       3.94 MB

     Dynamical RAM for     wfc (w. buffer):      19.70 MB

     Dynamical RAM for           str. fact:       4.47 MB

     Dynamical RAM for           local pot:       0.00 MB

     Dynamical RAM for          nlocal pot:      12.70 MB

     Dynamical RAM for                qrad:      11.84 MB

     Dynamical RAM for          rho,v,vnew:      10.61 MB

     Dynamical RAM for               rhoin:       3.54 MB

     Dynamical RAM for            rho*nmix:      23.83 MB

     Dynamical RAM for           G-vectors:       5.91 MB

     Dynamical RAM for          h,s,v(r/c):       1.76 MB

     Dynamical RAM for          <psi|beta>:       0.12 MB

     Dynamical RAM for                 psi:      15.76 MB

     Dynamical RAM for                hpsi:      15.76 MB

     Dynamical RAM for                spsi:      15.76 MB

     Dynamical RAM for      wfcinit/wfcrot:      12.85 MB

     Dynamical RAM for           addusdens:     302.36 MB

     Estimated static dynamical RAM per process >     108.78 MB

     Estimated max dynamical RAM per process >     411.14 MB

     Estimated total dynamical RAM >       2.41 GB

     Check: negative core charge=   -0.000002

     Initial potential from superposition of free atoms

     starting charge   80.80665, renormalised to   81.00000


---------------------------------------------------------------------------------
Carrying out rVV10 run using the following parameters:
Nqs =      20    Nr_points =    1024   r_max =   100.000
b_value =  6.30000    beta =  0.00901
     q_mesh =  0.00010000  0.00030000  0.00058939  0.00100810
               0.00161396  0.00249058  0.00375900  0.00559430
               0.00824984  0.01209221  0.01765183  0.02569619
               0.03733578  0.05417739  0.07854596  0.11380545
               0.16482331  0.23864234  0.34545298  0.50000000

Gradients computed in Reciprocal space

---------------------------------------------------------------------------------


     Starting wfcs are   79 randomized atomic wfcs

     total cpu time spent up to now is       15.9 secs

     Self-consistent Calculation

     iteration #  1     ecut=    70.00 Ry     beta= 0.70
     Davidson diagonalization with overlap
     ethr =  1.00E-02,  avg # of iterations =  2.0

     total cpu time spent up to now is       32.8 secs

     total energy              =    -333.71382671 Ry
     Harris-Foulkes estimate   =    -337.36134060 Ry
     estimated scf accuracy    <       4.93583434 Ry

     iteration #  2     ecut=    70.00 Ry     beta= 0.70
     Davidson diagonalization with overlap
     ethr =  6.09E-03,  avg # of iterations =  4.2

     total cpu time spent up to now is       49.1 secs

     total energy              =    -333.71189622 Ry
     Harris-Foulkes estimate   =    -339.47681666 Ry
     estimated scf accuracy    <      14.06046944 Ry

     iteration #  3     ecut=    70.00 Ry     beta= 0.70
     Davidson diagonalization with overlap
     ethr =  6.09E-03,  avg # of iterations =  2.5

     total cpu time spent up to now is       63.0 secs

     total energy              =    -335.57721825 Ry
     Harris-Foulkes estimate   =    -336.18078657 Ry
     estimated scf accuracy    <       1.15989671 Ry

     iteration #  4     ecut=    70.00 Ry     beta= 0.70
     Davidson diagonalization with overlap
     ethr =  1.43E-03,  avg # of iterations =  2.8

     total cpu time spent up to now is       77.0 secs

     total energy              =    -335.82873181 Ry
     Harris-Foulkes estimate   =    -335.95054977 Ry
     estimated scf accuracy    <       0.33014316 Ry

     iteration #  5     ecut=    70.00 Ry     beta= 0.70
     Davidson diagonalization with overlap
     ethr =  4.08E-04,  avg # of iterations =  2.0

     total cpu time spent up to now is       89.4 secs

     total energy              =    -335.90275574 Ry
     Harris-Foulkes estimate   =    -335.91228842 Ry
     estimated scf accuracy    <       0.03289839 Ry

     iteration #  6     ecut=    70.00 Ry     beta= 0.70
     Davidson diagonalization with overlap
     ethr =  4.06E-05,  avg # of iterations =  4.2

     negative rho (up, down):  1.344E-06 0.000E+00

     total cpu time spent up to now is      102.8 secs

     total energy              =    -335.90714324 Ry
     Harris-Foulkes estimate   =    -335.90810601 Ry
     estimated scf accuracy    <       0.00219827 Ry

     iteration #  7     ecut=    70.00 Ry     beta= 0.70
     Davidson diagonalization with overlap
     ethr =  2.71E-06,  avg # of iterations =  5.0

     negative rho (up, down):  2.391E-05 0.000E+00

     total cpu time spent up to now is      118.1 secs

     total energy              =    -335.90753170 Ry
     Harris-Foulkes estimate   =    -335.90789544 Ry
     estimated scf accuracy    <       0.00077945 Ry

     iteration #  8     ecut=    70.00 Ry     beta= 0.70
     Davidson diagonalization with overlap
     ethr =  9.62E-07,  avg # of iterations =  6.8

     negative rho (up, down):  4.971E-05 0.000E+00

     total cpu time spent up to now is      132.3 secs

     total energy              =    -335.90767578 Ry
     Harris-Foulkes estimate   =    -335.90772974 Ry
     estimated scf accuracy    <       0.00009835 Ry

     iteration #  9     ecut=    70.00 Ry     beta= 0.70
     Davidson diagonalization with overlap
     ethr =  1.21E-07,  avg # of iterations =  2.5

     negative rho (up, down):  5.871E-05 0.000E+00

     total cpu time spent up to now is      147.0 secs

     total energy              =    -335.90769731 Ry
     Harris-Foulkes estimate   =    -335.90771225 Ry
     estimated scf accuracy    <       0.00004224 Ry

     iteration # 10     ecut=    70.00 Ry     beta= 0.70
     Davidson diagonalization with overlap
     ethr =  5.21E-08,  avg # of iterations =  2.0

     negative rho (up, down):  5.958E-05 0.000E+00

     total cpu time spent up to now is      159.3 secs

     End of self-consistent calculation

          k = 0.0000 0.0000 0.0000 ( 31593 PWs)   bands (ev):

   -19.6640 -17.3321 -17.3319 -17.1738 -17.1736 -17.1271 -16.1011 -13.4160
   -13.4159 -13.0316 -11.8907 -11.5140 -11.5139 -10.5570 -10.5569  -9.9358
    -9.4370  -9.4370  -8.7930  -8.5969  -8.5969  -8.3483  -8.3483  -7.7784
    -6.4801  -6.3169  -6.1205  -5.9488  -5.9487  -5.1383  -4.8849  -4.8848
    -4.7959  -4.4603  -4.4602  -4.2538  -4.2537  -3.8718  -0.3021   0.0630
     0.0630   0.1830   0.1831   0.9585   2.7755   3.7568   4.6206   4.6207
     4.7037

     occupation numbers 
     1.0000   1.0000   1.0000   1.0000   1.0000   1.0000   1.0000   1.0000
     1.0000   1.0000   1.0000   1.0000   1.0000   1.0000   1.0000   1.0000
     1.0000   1.0000   1.0000   1.0000   1.0000   1.0000   1.0000   1.0000
     1.0000   1.0000   1.0000   1.0000   1.0000   1.0000   1.0000   1.0000
     1.0000   1.0000   1.0000   1.0000   1.0000   1.0000   0.0000   0.0000
     0.0000   0.0000   0.0000   0.0000   0.0000   0.0000   0.0000   0.0000
     0.0000

          k = 0.0000 0.2887 0.0000 ( 31638 PWs)   bands (ev):

   -19.5044 -18.2312 -17.7041 -17.3938 -16.5242 -16.1686 -15.4669 -14.3813
   -13.7096 -12.7455 -12.3667 -11.6990 -11.6227 -10.7531 -10.0377  -9.8961
    -9.6899  -9.3187  -8.6474  -8.6036  -8.3316  -7.8256  -7.5072  -7.3097
    -7.0159  -6.4786  -6.3893  -6.3162  -5.8674  -5.7594  -5.0800  -5.0537
    -5.0085  -4.6972  -4.4830  -3.7517  -3.6938  -2.8108  -1.4803  -0.8662
    -0.3524  -0.0197   1.2083   1.7150   2.8626   2.9669   3.6417   3.8575
     4.4544

     occupation numbers 
     1.0000   1.0000   1.0000   1.0000   1.0000   1.0000   1.0000   1.0000
     1.0000   1.0000   1.0000   1.0000   1.0000   1.0000   1.0000   1.0000
     1.0000   1.0000   1.0000   1.0000   1.0000   1.0000   1.0000   1.0000
     1.0000   1.0000   1.0000   1.0000   1.0000   1.0000   1.0000   1.0000
     1.0000   1.0000   1.0000   1.0000   1.0000   1.0000   1.0000   1.0000
     0.0000   0.0000   0.0000   0.0000   0.0000   0.0000   0.0000   0.0000
     0.0000

          k = 0.0000-0.5774 0.0000 ( 31614 PWs)   bands (ev):

   -19.1180 -18.9112 -17.8524 -17.5325 -15.7059 -15.3666 -15.3162 -14.9717
   -14.1745 -13.2810 -12.2498 -12.0685 -11.3882 -11.1154 -10.6103  -9.9554
    -8.6852  -8.6102  -8.3912  -8.1638  -8.0018  -7.8541  -7.6445  -7.4351
    -6.9064  -6.7368  -6.3759  -6.3164  -6.2437  -5.9802  -5.9264  -5.2745
    -5.1915  -4.3945  -4.2870  -2.9036  -2.7340  -2.5717  -2.3514  -1.5753
    -0.9892  -0.2327   1.6984   2.2608   2.4881   2.6434   3.4179   3.6586
     3.7406

     occupation numbers 
     1.0000   1.0000   1.0000   1.0000   1.0000   1.0000   1.0000   1.0000
     1.0000   1.0000   1.0000   1.0000   1.0000   1.0000   1.0000   1.0000
     1.0000   1.0000   1.0000   1.0000   1.0000   1.0000   1.0000   1.0000
     1.0000   1.0000   1.0000   1.0000   1.0000   1.0000   1.0000   1.0000
     1.0000   1.0000   1.0000   1.0000   1.0000   1.0000   1.0000   1.0000
     1.0000   0.0000   0.0000   0.0000   0.0000   0.0000   0.0000   0.0000
     0.0000

          k = 0.2500 0.4330 0.0000 ( 31601 PWs)   bands (ev):

   -19.1963 -18.6352 -18.3691 -16.7523 -16.5113 -15.4320 -15.1354 -14.8257
   -13.7787 -13.1546 -12.8743 -12.1966 -11.4194 -11.1523 -10.0915  -9.4554
    -8.9375  -8.6719  -8.6411  -8.6248  -8.2101  -7.6388  -7.4260  -7.1481
    -7.0370  -6.7929  -6.3229  -6.2792  -6.2764  -6.1191  -6.0316  -5.1048
    -4.8349  -4.3288  -4.0957  -3.8812  -2.8048  -2.4694  -2.0671  -1.3551
    -0.7822  -0.4164   1.5731   1.8543   2.2694   3.1642   3.3421   4.0818
     4.1285

     occupation numbers 
     1.0000   1.0000   1.0000   1.0000   1.0000   1.0000   1.0000   1.0000
     1.0000   1.0000   1.0000   1.0000   1.0000   1.0000   1.0000   1.0000
     1.0000   1.0000   1.0000   1.0000   1.0000   1.0000   1.0000   1.0000
     1.0000   1.0000   1.0000   1.0000   1.0000   1.0000   1.0000   1.0000
     1.0000   1.0000   1.0000   1.0000   1.0000   1.0000   1.0000   1.0000
     1.0000   0.1667   0.0000   0.0000   0.0000   0.0000   0.0000   0.0000
     0.0000

     the Fermi energy is    -0.4221 ev

!    total energy              =    -335.90770255 Ry
     Harris-Foulkes estimate   =    -335.90770304 Ry
     estimated scf accuracy    <       0.00000037 Ry

     The total energy is the sum of the following terms:

     one-electron contribution =   -1020.15165698 Ry
     hartree contribution      =     536.52164019 Ry
     xc contribution           =    -126.19249288 Ry
     ewald contribution        =     273.91490155 Ry
     smearing contrib. (-TS)   =      -0.00009442 Ry

     convergence has been achieved in  10 iterations

     Writing output data file gr-12.save/

     init_run     :     14.23s CPU     14.60s WALL (       1 calls)
     electrons    :    138.87s CPU    143.39s WALL (       1 calls)

     Called by init_run:
     wfcinit      :      6.13s CPU      6.19s WALL (       1 calls)
     wfcinit:atom :      0.02s CPU      0.02s WALL (       4 calls)
     wfcinit:wfcr :      5.99s CPU      6.04s WALL (       4 calls)
     potinit      :      4.10s CPU      4.23s WALL (       1 calls)
     hinit0       :      3.03s CPU      3.04s WALL (       1 calls)

     Called by electrons:
     c_bands      :     89.75s CPU     90.43s WALL (      10 calls)
     sum_band     :     20.41s CPU     21.88s WALL (      10 calls)
     v_of_rho     :     23.11s CPU     24.26s WALL (      11 calls)
     v_h          :      0.23s CPU      0.24s WALL (      11 calls)
     v_xc         :     22.88s CPU     24.02s WALL (      11 calls)
     newd         :      7.68s CPU      9.15s WALL (      11 calls)
     mix_rho      :      0.55s CPU      0.55s WALL (      10 calls)

     Called by c_bands:
     init_us_2    :      0.53s CPU      0.54s WALL (      84 calls)
     cegterg      :     88.16s CPU     88.83s WALL (      40 calls)

     Called by sum_band:
     sum_band:bec :      0.01s CPU      0.01s WALL (      40 calls)
     addusdens    :      9.42s CPU     10.76s WALL (      10 calls)

     Called by *egterg:
     h_psi        :     55.12s CPU     55.74s WALL (     180 calls)
     s_psi        :     14.31s CPU     14.33s WALL (     180 calls)
     g_psi        :      0.13s CPU      0.13s WALL (     136 calls)
     cdiaghg      :      1.25s CPU      1.25s WALL (     176 calls)
     cegterg:over :      8.69s CPU      8.71s WALL (     136 calls)
     cegterg:upda :      5.81s CPU      5.83s WALL (     136 calls)
     cegterg:last :      3.92s CPU      3.92s WALL (      40 calls)

     Called by h_psi:
     h_psi:pot    :     54.97s CPU     55.57s WALL (     180 calls)
     h_psi:calbec :     14.67s CPU     14.69s WALL (     180 calls)
     vloc_psi     :     25.96s CPU     26.52s WALL (     180 calls)
     add_vuspsi   :     14.34s CPU     14.37s WALL (     180 calls)

     General routines
     calbec       :     19.82s CPU     19.84s WALL (     220 calls)
     fft          :     11.86s CPU     12.27s WALL (     691 calls)
     ffts         :      0.12s CPU      0.12s WALL (      21 calls)
     fftw         :     26.65s CPU     27.25s WALL (   12744 calls)
     interpolate  :      0.29s CPU      0.30s WALL (      11 calls)

     Parallel routines
     fft_scatt_xy :      5.81s CPU      5.91s WALL (   13456 calls)
     fft_scatt_yz :     14.82s CPU     15.44s WALL (   13456 calls)

     PWSCF        :   2m34.51s CPU   2m39.51s WALL


   This run was terminated on:  11: 4:12  19Nov2023            

=------------------------------------------------------------------------------=
   JOB DONE.
=------------------------------------------------------------------------------=
