
     Program PWSCF v.6.4.1 starts on  3Sep2022 at  3:28:28 

     This program is part of the open-source Quantum ESPRESSO suite
     for quantum simulation of materials; please cite
         "P. Giannozzi et al., J. Phys.:Condens. Matter 21 395502 (2009);
         "P. Giannozzi et al., J. Phys.:Condens. Matter 29 465901 (2017);
          URL http://www.quantum-espresso.org", 
     in publications or presentations arising from this work. More details at
     http://www.quantum-espresso.org/quote

     Parallel version (MPI), running on     6 processors

     MPI processes distributed on     1 nodes
     R & G space division:  proc/nbgrp/npool/nimage =       6
     Reading input from distance-1.8.in

     Current dimensions of program PWSCF are:
     Max number of different atomic species (ntypx) = 10
     Max number of k-points (npk) =  40000
     Max angular momentum in pseudopotentials (lmaxx) =  3

     IMPORTANT: XC functional enforced from input :
     Exchange-correlation      = RVV10 ( 1  4 13  4 3 0)
     Any further DFT definition will be discarded
     Please, verify this is what you really want

               file H.pbe-rrkjus.UPF: wavefunction(s)  1S renormalized
               file Mn.pbe-spn-rrkjus_psl.0.3.1.UPF: wavefunction(s)  3D renormalized

     Subspace diagonalization in iterative solution of the eigenvalue problem:
     a serial algorithm will be used


     Parallelization info
     --------------------
     sticks:   dense  smooth     PW     G-vecs:    dense   smooth      PW
     Min        3051    1746    432               270999   117096   14629
     Max        3053    1747    437               271001   117099   14630
     Sum       18313   10477   2611              1626001   702581   87777



     bravais-lattice index     =            4
     lattice parameter (alat)  =      23.2937  a.u.
     unit-cell volume          =    8879.8548 (a.u.)^3
     number of atoms/cell      =           52
     number of atomic types    =            3
     number of electrons       =       213.00
     number of Kohn-Sham states=          128
     kinetic-energy cutoff     =      70.0000  Ry
     charge density cutoff     =     490.0000  Ry
     convergence threshold     =      1.0E-06
     mixing beta               =       0.7000
     number of iterations used =            8  plain     mixing
     Exchange-correlation      = RVV10 ( 1  4 13  4 3 0)

     celldm(1)=  23.293684  celldm(2)=   0.000000  celldm(3)=   0.811261
     celldm(4)=   0.000000  celldm(5)=   0.000000  celldm(6)=   0.000000

     crystal axes: (cart. coord. in units of alat)
               a(1) = (   1.000000   0.000000   0.000000 )  
               a(2) = (  -0.500000   0.866025   0.000000 )  
               a(3) = (   0.000000   0.000000   0.811261 )  

     reciprocal axes: (cart. coord. in units 2 pi/alat)
               b(1) = (  1.000000  0.577350 -0.000000 )  
               b(2) = (  0.000000  1.154701  0.000000 )  
               b(3) = (  0.000000 -0.000000  1.232649 )  


     PseudoPot. # 1 for H  read from file:
     /home/cristian/Escritorio/Proyecto_Grafeno/pseudopotenciales/H.pbe-rrkjus.UPF
     MD5 check sum: 7cc9d459525c9a0585f487a71c3c9563
     Pseudo is Ultrasoft, Zval =  1.0
     Generated by new atomic code, or converted to UPF format
     Using radial grid of 1061 points,  2 beta functions with: 
                l(1) =   0
                l(2) =   0
     Q(r) pseudized with 0 coefficients 


     PseudoPot. # 2 for C  read from file:
     /home/cristian/Escritorio/Proyecto_Grafeno/pseudopotenciales/C.pbe-n-rrkjus_psl.1.0.0.UPF
     MD5 check sum: 1fdd950c42eb37d8afe3dd2f8d12311e
     Pseudo is Ultrasoft + core correction, Zval =  4.0
     Generated using "atomic" code by A. Dal Corso v.6.3MaX
     Using radial grid of 1073 points,  4 beta functions with: 
                l(1) =   0
                l(2) =   0
                l(3) =   1
                l(4) =   1
     Q(r) pseudized with 0 coefficients 


     PseudoPot. # 3 for Mn read from file:
     /home/cristian/Escritorio/Proyecto_Grafeno/pseudopotenciales/Mn.pbe-spn-rrkjus_psl.0.3.1.UPF
     MD5 check sum: e1cac159bdd2ba70c18e85765a5d4279
     Pseudo is Ultrasoft + core correction, Zval = 15.0
     Generated using "atomic" code by A. Dal Corso v.6.2.2
     Using radial grid of 1187 points,  6 beta functions with: 
                l(1) =   0
                l(2) =   0
                l(3) =   1
                l(4) =   1
                l(5) =   2
                l(6) =   2
     Q(r) pseudized with 0 coefficients 


     vdW kernel table read from file rVV10_kernel_table
     MD5 check sum: b8e2538accc0c0b3206b45ba4daaba6c

     atomic species   valence    mass     pseudopotential
        H              1.00     1.00794     H ( 1.00)
        C              4.00    12.01070     C ( 1.00)
        Mn            15.00    54.93804     Mn( 1.00)

     No symmetry found


                                    s                        frac. trans.

      isym =  1     identity                                     

 cryst.   s( 1) = (     1          0          0      )
                  (     0          1          0      )
                  (     0          0          1      )

 cart.    s( 1) = (  1.0000000  0.0000000  0.0000000 )
                  (  0.0000000  1.0000000  0.0000000 )
                  (  0.0000000  0.0000000  1.0000000 )


     point group C_1 (1)    
     there are  1 classes
     the character table:

       E    
A      1.00

     the symmetry operations in each class and the name of the first element:

     E        1
          identity                                               

   Cartesian axes

     site n.     atom                  positions (alat units)
         1           H   tau(   1) = (   0.1694937   0.4618802   0.1460270  )
         2           H   tau(   2) = (   0.2305063   0.4618802   0.1460270  )
         3           C   tau(   3) = (   0.0000000   0.0000000   0.0000000  )
         4           C   tau(   4) = (   0.0000000   0.1154701   0.0000000  )
         5           C   tau(   5) = (  -0.1000000   0.1732051   0.0000000  )
         6           C   tau(   6) = (  -0.1000000   0.2886751   0.0000000  )
         7           C   tau(   7) = (  -0.2000000   0.3464102   0.0000000  )
         8           C   tau(   8) = (  -0.2000000   0.4618802   0.0000000  )
         9           C   tau(   9) = (  -0.3000000   0.5196152   0.0000000  )
        10           C   tau(  10) = (  -0.3000000   0.6350853   0.0000000  )
        11           C   tau(  11) = (  -0.4000000   0.6928203   0.0000000  )
        12           C   tau(  12) = (  -0.4000000   0.8082904   0.0000000  )
        13           C   tau(  13) = (   0.2000000   0.0000000   0.0000000  )
        14           C   tau(  14) = (   0.2000000   0.1154701   0.0000000  )
        15           C   tau(  15) = (   0.1000000   0.1732051   0.0000000  )
        16           C   tau(  16) = (   0.1000000   0.2886751   0.0000000  )
        17           C   tau(  17) = (   0.0000000   0.3464102   0.0000000  )
        18           C   tau(  18) = (   0.0000000   0.4618802   0.0000000  )
        19           C   tau(  19) = (  -0.1000000   0.5196152   0.0000000  )
        20           C   tau(  20) = (  -0.1000000   0.6350853   0.0000000  )
        21           C   tau(  21) = (  -0.2000000   0.6928203   0.0000000  )
        22           C   tau(  22) = (  -0.2000000   0.8082904   0.0000000  )
        23           C   tau(  23) = (   0.4000000   0.0000000   0.0000000  )
        24           C   tau(  24) = (   0.4000000   0.1154701   0.0000000  )
        25           C   tau(  25) = (   0.3000000   0.1732051   0.0000000  )
        26           C   tau(  26) = (   0.3000000   0.2886751   0.0000000  )
        27           C   tau(  27) = (   0.2000000   0.3464102   0.0000000  )
        28           Mn  tau(  28) = (   0.2000000   0.4618802   0.0000000  )
        29           C   tau(  29) = (   0.1000000   0.5196152   0.0000000  )
        30           C   tau(  30) = (   0.1000000   0.6350853   0.0000000  )
        31           C   tau(  31) = (   0.0000000   0.6928203   0.0000000  )
        32           C   tau(  32) = (   0.0000000   0.8082904   0.0000000  )
        33           C   tau(  33) = (   0.6000000   0.0000000   0.0000000  )
        34           C   tau(  34) = (   0.6000000   0.1154701   0.0000000  )
        35           C   tau(  35) = (   0.5000000   0.1732051   0.0000000  )
        36           C   tau(  36) = (   0.5000000   0.2886751   0.0000000  )
        37           C   tau(  37) = (   0.4000000   0.3464102   0.0000000  )
        38           C   tau(  38) = (   0.4000000   0.4618802   0.0000000  )
        39           C   tau(  39) = (   0.3000000   0.5196152   0.0000000  )
        40           C   tau(  40) = (   0.3000000   0.6350853   0.0000000  )
        41           C   tau(  41) = (   0.2000000   0.6928203   0.0000000  )
        42           C   tau(  42) = (   0.2000000   0.8082904   0.0000000  )
        43           C   tau(  43) = (   0.8000000   0.0000000   0.0000000  )
        44           C   tau(  44) = (   0.8000000   0.1154701   0.0000000  )
        45           C   tau(  45) = (   0.7000000   0.1732051   0.0000000  )
        46           C   tau(  46) = (   0.7000000   0.2886751   0.0000000  )
        47           C   tau(  47) = (   0.6000000   0.3464102   0.0000000  )
        48           C   tau(  48) = (   0.6000000   0.4618802   0.0000000  )
        49           C   tau(  49) = (   0.5000000   0.5196152   0.0000000  )
        50           C   tau(  50) = (   0.5000000   0.6350853   0.0000000  )
        51           C   tau(  51) = (   0.4000000   0.6928203   0.0000000  )
        52           C   tau(  52) = (   0.4000000   0.8082904   0.0000000  )

   Crystallographic axes

     site n.     atom                  positions (cryst. coord.)
         1           H   tau(   1) = (  0.4361603  0.5333333  0.1800000  )
         2           H   tau(   2) = (  0.4971730  0.5333333  0.1800000  )
         3           C   tau(   3) = (  0.0000000  0.0000000  0.0000000  )
         4           C   tau(   4) = (  0.0666667  0.1333333  0.0000000  )
         5           C   tau(   5) = (  0.0000000  0.2000000  0.0000000  )
         6           C   tau(   6) = (  0.0666667  0.3333333  0.0000000  )
         7           C   tau(   7) = (  0.0000000  0.4000000  0.0000000  )
         8           C   tau(   8) = (  0.0666667  0.5333333  0.0000000  )
         9           C   tau(   9) = (  0.0000000  0.6000000  0.0000000  )
        10           C   tau(  10) = (  0.0666667  0.7333333  0.0000000  )
        11           C   tau(  11) = (  0.0000000  0.8000000  0.0000000  )
        12           C   tau(  12) = (  0.0666667  0.9333333  0.0000000  )
        13           C   tau(  13) = (  0.2000000  0.0000000  0.0000000  )
        14           C   tau(  14) = (  0.2666667  0.1333333  0.0000000  )
        15           C   tau(  15) = (  0.2000000  0.2000000  0.0000000  )
        16           C   tau(  16) = (  0.2666667  0.3333333  0.0000000  )
        17           C   tau(  17) = (  0.2000000  0.4000000  0.0000000  )
        18           C   tau(  18) = (  0.2666667  0.5333333  0.0000000  )
        19           C   tau(  19) = (  0.2000000  0.6000000  0.0000000  )
        20           C   tau(  20) = (  0.2666667  0.7333333  0.0000000  )
        21           C   tau(  21) = (  0.2000000  0.8000000  0.0000000  )
        22           C   tau(  22) = (  0.2666667  0.9333333  0.0000000  )
        23           C   tau(  23) = (  0.4000000  0.0000000  0.0000000  )
        24           C   tau(  24) = (  0.4666667  0.1333333  0.0000000  )
        25           C   tau(  25) = (  0.4000000  0.2000000  0.0000000  )
        26           C   tau(  26) = (  0.4666667  0.3333333  0.0000000  )
        27           C   tau(  27) = (  0.4000000  0.4000000  0.0000000  )
        28           Mn  tau(  28) = (  0.4666667  0.5333333  0.0000000  )
        29           C   tau(  29) = (  0.4000000  0.6000000  0.0000000  )
        30           C   tau(  30) = (  0.4666667  0.7333333  0.0000000  )
        31           C   tau(  31) = (  0.4000000  0.8000000  0.0000000  )
        32           C   tau(  32) = (  0.4666667  0.9333333  0.0000000  )
        33           C   tau(  33) = (  0.6000000  0.0000000  0.0000000  )
        34           C   tau(  34) = (  0.6666667  0.1333333  0.0000000  )
        35           C   tau(  35) = (  0.6000000  0.2000000  0.0000000  )
        36           C   tau(  36) = (  0.6666667  0.3333333  0.0000000  )
        37           C   tau(  37) = (  0.6000000  0.4000000  0.0000000  )
        38           C   tau(  38) = (  0.6666667  0.5333333  0.0000000  )
        39           C   tau(  39) = (  0.6000000  0.6000000  0.0000000  )
        40           C   tau(  40) = (  0.6666667  0.7333333  0.0000000  )
        41           C   tau(  41) = (  0.6000000  0.8000000  0.0000000  )
        42           C   tau(  42) = (  0.6666667  0.9333333  0.0000000  )
        43           C   tau(  43) = (  0.8000000  0.0000000  0.0000000  )
        44           C   tau(  44) = (  0.8666667  0.1333333  0.0000000  )
        45           C   tau(  45) = (  0.8000000  0.2000000  0.0000000  )
        46           C   tau(  46) = (  0.8666667  0.3333333  0.0000000  )
        47           C   tau(  47) = (  0.8000000  0.4000000  0.0000000  )
        48           C   tau(  48) = (  0.8666667  0.5333333  0.0000000  )
        49           C   tau(  49) = (  0.8000000  0.6000000  0.0000000  )
        50           C   tau(  50) = (  0.8666667  0.7333333  0.0000000  )
        51           C   tau(  51) = (  0.8000000  0.8000000  0.0000000  )
        52           C   tau(  52) = (  0.8666667  0.9333333  0.0000000  )

     number of k points=     1  Marzari-Vanderbilt smearing, width (Ry)=  0.0010
                       cart. coord. in units 2pi/alat
        k(    1) = (   0.0000000   0.0000000   0.0000000), wk =   2.0000000

                       cryst. coord.
        k(    1) = (   0.0000000   0.0000000   0.0000000), wk =   2.0000000

     Dense  grid:  1626001 G-vectors     FFT dimensions: ( 180, 180, 135)

     Smooth grid:   702581 G-vectors     FFT dimensions: ( 125, 125, 108)

     Dynamical RAM for                 wfc:      28.59 MB

     Dynamical RAM for     wfc (w. buffer):      28.59 MB

     Dynamical RAM for           str. fact:      12.41 MB

     Dynamical RAM for           local pot:       0.00 MB

     Dynamical RAM for          nlocal pot:      92.46 MB

     Dynamical RAM for                qrad:      19.73 MB

     Dynamical RAM for          rho,v,vnew:      29.46 MB

     Dynamical RAM for               rhoin:       9.82 MB

     Dynamical RAM for            rho*nmix:      66.16 MB

     Dynamical RAM for           G-vectors:      16.40 MB

     Dynamical RAM for          h,s,v(r/c):      12.00 MB

     Dynamical RAM for          <psi|beta>:       0.81 MB

     Dynamical RAM for                 psi:     114.35 MB

     Dynamical RAM for                hpsi:     114.35 MB

     Dynamical RAM for                spsi:     114.35 MB

     Dynamical RAM for      wfcinit/wfcrot:      93.90 MB

     Dynamical RAM for           addusdens:     971.75 MB

     Estimated static dynamical RAM per process >     320.00 MB

     Estimated max dynamical RAM per process >       1.26 GB

     Estimated total dynamical RAM >       7.57 GB

     Check: negative core charge=   -0.000002

     Initial potential from superposition of free atoms

     starting charge  212.80506, renormalised to  213.00000

     negative rho (up, down):  8.872E-05 0.000E+00


---------------------------------------------------------------------------------
Carrying out rVV10 run using the following parameters:
Nqs =      20    Nr_points =    1024   r_max =   100.000
b_value =  6.30000    beta =  0.00901
     q_mesh =  0.00010000  0.00030000  0.00058939  0.00100810
               0.00161396  0.00249058  0.00375900  0.00559430
               0.00824984  0.01209221  0.01765183  0.02569619
               0.03733578  0.05417739  0.07854596  0.11380545
               0.16482331  0.23864234  0.34545298  0.50000000

Gradients computed in Reciprocal space

---------------------------------------------------------------------------------


     Starting wfcs are  208 randomized atomic wfcs

     total cpu time spent up to now is       48.2 secs

     Self-consistent Calculation

     iteration #  1     ecut=    70.00 Ry     beta= 0.70
     Davidson diagonalization with overlap
     ethr =  1.00E-02,  avg # of iterations =  2.0

     negative rho (up, down):  1.872E-04 0.000E+00

     total cpu time spent up to now is      111.2 secs

     total energy              =    -819.29688315 Ry
     Harris-Foulkes estimate   =    -829.15803574 Ry
     estimated scf accuracy    <      13.06888640 Ry

     iteration #  2     ecut=    70.00 Ry     beta= 0.70
     Davidson diagonalization with overlap
     ethr =  6.14E-03,  avg # of iterations =  6.0

     negative rho (up, down):  2.327E-04 0.000E+00

     total cpu time spent up to now is      171.8 secs

     total energy              =    -811.27561417 Ry
     Harris-Foulkes estimate   =    -848.05849393 Ry
     estimated scf accuracy    <     142.25739175 Ry

     iteration #  3     ecut=    70.00 Ry     beta= 0.70
     Davidson diagonalization with overlap
     ethr =  6.14E-03,  avg # of iterations =  5.0

     negative rho (up, down):  2.439E-04 0.000E+00

     total cpu time spent up to now is      254.7 secs

     total energy              =    -824.45932987 Ry
     Harris-Foulkes estimate   =    -826.79671688 Ry
     estimated scf accuracy    <       4.71644610 Ry

     iteration #  4     ecut=    70.00 Ry     beta= 0.70
     Davidson diagonalization with overlap
     ethr =  2.21E-03,  avg # of iterations =  4.0

     negative rho (up, down):  3.161E-04 0.000E+00

     total cpu time spent up to now is      314.5 secs

     total energy              =    -824.99962054 Ry
     Harris-Foulkes estimate   =    -826.70932152 Ry
     estimated scf accuracy    <       6.95985461 Ry

     iteration #  5     ecut=    70.00 Ry     beta= 0.70
     Davidson diagonalization with overlap
     ethr =  2.21E-03,  avg # of iterations =  4.0

     negative rho (up, down):  3.543E-04 0.000E+00

     total cpu time spent up to now is      363.7 secs

     total energy              =    -825.88306698 Ry
     Harris-Foulkes estimate   =    -826.01253735 Ry
     estimated scf accuracy    <       0.77985074 Ry

     iteration #  6     ecut=    70.00 Ry     beta= 0.70
     Davidson diagonalization with overlap
     ethr =  3.66E-04,  avg # of iterations =  2.0

     negative rho (up, down):  4.018E-04 0.000E+00

     total cpu time spent up to now is      411.0 secs

     total energy              =    -825.89452337 Ry
     Harris-Foulkes estimate   =    -825.93319969 Ry
     estimated scf accuracy    <       0.18235135 Ry

     iteration #  7     ecut=    70.00 Ry     beta= 0.70
     Davidson diagonalization with overlap
     ethr =  8.56E-05,  avg # of iterations =  7.0

     negative rho (up, down):  5.319E-04 0.000E+00

     total cpu time spent up to now is      464.1 secs

     total energy              =    -825.91075348 Ry
     Harris-Foulkes estimate   =    -825.93912015 Ry
     estimated scf accuracy    <       0.10805883 Ry

     iteration #  8     ecut=    70.00 Ry     beta= 0.70
     Davidson diagonalization with overlap
     ethr =  5.07E-05,  avg # of iterations =  2.0

     negative rho (up, down):  6.408E-04 0.000E+00

     total cpu time spent up to now is      511.1 secs

     total energy              =    -825.91683838 Ry
     Harris-Foulkes estimate   =    -825.92035015 Ry
     estimated scf accuracy    <       0.01848862 Ry

     iteration #  9     ecut=    70.00 Ry     beta= 0.70
     Davidson diagonalization with overlap
     ethr =  8.68E-06,  avg # of iterations =  4.0

     negative rho (up, down):  7.215E-04 0.000E+00

     total cpu time spent up to now is      562.6 secs

     total energy              =    -825.91716245 Ry
     Harris-Foulkes estimate   =    -825.91966139 Ry
     estimated scf accuracy    <       0.01867812 Ry

     iteration # 10     ecut=    70.00 Ry     beta= 0.70
     Davidson diagonalization with overlap
     ethr =  8.68E-06,  avg # of iterations =  1.0

     negative rho (up, down):  7.303E-04 0.000E+00

     total cpu time spent up to now is      609.4 secs

     total energy              =    -825.91771268 Ry
     Harris-Foulkes estimate   =    -825.91952042 Ry
     estimated scf accuracy    <       0.01892555 Ry

     iteration # 11     ecut=    70.00 Ry     beta= 0.70
     Davidson diagonalization with overlap
     ethr =  8.68E-06,  avg # of iterations =  1.0

     negative rho (up, down):  6.926E-04 0.000E+00

     total cpu time spent up to now is      656.1 secs

     total energy              =    -825.91803103 Ry
     Harris-Foulkes estimate   =    -825.91877090 Ry
     estimated scf accuracy    <       0.00923541 Ry

     iteration # 12     ecut=    70.00 Ry     beta= 0.70
     Davidson diagonalization with overlap
     ethr =  4.34E-06,  avg # of iterations =  1.0

     negative rho (up, down):  7.130E-04 0.000E+00

     total cpu time spent up to now is      702.9 secs

     total energy              =    -825.91800028 Ry
     Harris-Foulkes estimate   =    -825.91921049 Ry
     estimated scf accuracy    <       0.02283059 Ry

     iteration # 13     ecut=    70.00 Ry     beta= 0.70
     Davidson diagonalization with overlap
     ethr =  4.34E-06,  avg # of iterations =  1.0

     negative rho (up, down):  7.222E-04 0.000E+00

     total cpu time spent up to now is      749.6 secs

     total energy              =    -825.91843369 Ry
     Harris-Foulkes estimate   =    -825.91864104 Ry
     estimated scf accuracy    <       0.00360406 Ry

     iteration # 14     ecut=    70.00 Ry     beta= 0.70
     Davidson diagonalization with overlap
     ethr =  1.69E-06,  avg # of iterations =  1.0

     negative rho (up, down):  7.417E-04 0.000E+00

     total cpu time spent up to now is      796.4 secs

     total energy              =    -825.91853073 Ry
     Harris-Foulkes estimate   =    -825.91856568 Ry
     estimated scf accuracy    <       0.00025931 Ry

     iteration # 15     ecut=    70.00 Ry     beta= 0.70
     Davidson diagonalization with overlap
     ethr =  1.22E-07,  avg # of iterations =  2.0

     negative rho (up, down):  7.417E-04 0.000E+00

     total cpu time spent up to now is      843.3 secs

     total energy              =    -825.91854569 Ry
     Harris-Foulkes estimate   =    -825.91854857 Ry
     estimated scf accuracy    <       0.00001146 Ry

     iteration # 16     ecut=    70.00 Ry     beta= 0.70
     Davidson diagonalization with overlap
     ethr =  5.38E-09,  avg # of iterations =  4.0

     negative rho (up, down):  7.430E-04 0.000E+00

     total cpu time spent up to now is      897.4 secs

     total energy              =    -825.91854690 Ry
     Harris-Foulkes estimate   =    -825.91854873 Ry
     estimated scf accuracy    <       0.00000676 Ry

     iteration # 17     ecut=    70.00 Ry     beta= 0.70
     Davidson diagonalization with overlap
     ethr =  3.17E-09,  avg # of iterations =  2.0

     negative rho (up, down):  7.439E-04 0.000E+00

     total cpu time spent up to now is      945.8 secs

     total energy              =    -825.91854730 Ry
     Harris-Foulkes estimate   =    -825.91854794 Ry
     estimated scf accuracy    <       0.00000505 Ry

     iteration # 18     ecut=    70.00 Ry     beta= 0.70
     Davidson diagonalization with overlap
     ethr =  2.37E-09,  avg # of iterations =  1.0

     negative rho (up, down):  7.442E-04 0.000E+00

     total cpu time spent up to now is      994.3 secs

     total energy              =    -825.91854749 Ry
     Harris-Foulkes estimate   =    -825.91854770 Ry
     estimated scf accuracy    <       0.00000264 Ry

     iteration # 19     ecut=    70.00 Ry     beta= 0.70
     Davidson diagonalization with overlap
     ethr =  1.24E-09,  avg # of iterations =  1.0

     negative rho (up, down):  7.443E-04 0.000E+00

     total cpu time spent up to now is     1041.0 secs

     End of self-consistent calculation

          k = 0.0000 0.0000 0.0000 ( 87777 PWs)   bands (ev):

   -80.3069 -49.9311 -49.9231 -48.6259 -19.6088 -18.7597 -18.7590 -18.7013
   -18.7003 -18.6556 -18.4040 -16.9361 -16.9317 -16.9115 -16.8435 -16.8398
   -16.5298 -16.0781 -16.0747 -15.9759 -15.9374 -15.9325 -15.2934 -13.9831
   -13.9747 -13.9120 -13.8308 -13.8285 -13.2635 -12.9153 -12.9137 -12.8827
   -12.6190 -12.6141 -12.1646 -11.7141 -11.7133 -11.5175 -11.2622 -11.2583
   -10.6405 -10.0841  -9.5916  -9.5877  -9.3265  -9.1512  -9.1504  -9.0513
    -9.0268  -9.0256  -9.0191  -8.5628  -8.5586  -8.0677  -8.0651  -7.8873
    -7.7090  -7.6865  -7.2788  -7.2676  -7.1729  -7.1175  -7.0816  -6.7878
    -6.7859  -6.6638  -6.6572  -6.6125  -6.5968  -6.3928  -6.3888  -6.3737
    -6.3735  -6.3723  -6.3340  -6.2570  -5.6717  -5.6061  -5.3971  -5.3966
    -5.1808  -5.1807  -4.9488  -4.8201  -4.7488  -4.5741  -4.5570  -4.5559
    -4.1906  -4.1486  -4.1455  -4.0595  -4.0574  -3.6715  -3.6697  -3.6135
    -3.5168  -3.5149  -2.9643  -2.6092  -2.5896  -1.7031  -1.6423  -1.6406
    -0.8547  -0.7983  -0.7970   0.2352   1.0823   1.1137   1.1205   1.7360
     1.7393   1.8676   2.3770   2.5200   2.8782   2.9626   2.9639   3.0113
     3.5518   3.6077   3.6200   3.6656   3.6992   3.8310   3.8355   3.9692

     occupation numbers 
     1.0000   1.0000   1.0000   1.0000   1.0000   1.0000   1.0000   1.0000
     1.0000   1.0000   1.0000   1.0000   1.0000   1.0000   1.0000   1.0000
     1.0000   1.0000   1.0000   1.0000   1.0000   1.0000   1.0000   1.0000
     1.0000   1.0000   1.0000   1.0000   1.0000   1.0000   1.0000   1.0000
     1.0000   1.0000   1.0000   1.0000   1.0000   1.0000   1.0000   1.0000
     1.0000   1.0000   1.0000   1.0000   1.0000   1.0000   1.0000   1.0000
     1.0000   1.0000   1.0000   1.0000   1.0000   1.0000   1.0000   1.0000
     1.0000   1.0000   1.0000   1.0000   1.0000   1.0000   1.0000   1.0000
     1.0000   1.0000   1.0000   1.0000   1.0000   1.0000   1.0000   1.0000
     1.0000   1.0000   1.0000   1.0000   1.0000   1.0000   1.0000   1.0000
     1.0000   1.0000   1.0000   1.0000   1.0000   1.0000   1.0000   1.0000
     1.0000   1.0000   1.0000   1.0000   1.0000   1.0000   1.0000   1.0000
     1.0000   1.0000   1.0000   1.0000   1.0000   1.0000   1.0000   1.0000
     1.0000   0.7832   0.7168   0.0000   0.0000   0.0000   0.0000   0.0000
     0.0000   0.0000   0.0000   0.0000   0.0000   0.0000   0.0000   0.0000
     0.0000   0.0000   0.0000   0.0000   0.0000   0.0000   0.0000   0.0000

     the Fermi energy is    -0.7911 ev

!    total energy              =    -825.91854735 Ry
     Harris-Foulkes estimate   =    -825.91854758 Ry
     estimated scf accuracy    <       0.00000023 Ry

     The total energy is the sum of the following terms:

     one-electron contribution =   -2758.51748862 Ry
     hartree contribution      =    1424.67264470 Ry
     xc contribution           =    -259.76678398 Ry
     ewald contribution        =     767.69342723 Ry
     smearing contrib. (-TS)   =      -0.00034668 Ry

     convergence has been achieved in  19 iterations

     Writing output data file manganeso-top-distance-1.8.save/

     init_run     :     46.04s CPU     47.10s WALL (       1 calls)
     electrons    :    963.46s CPU    992.89s WALL (       1 calls)

     Called by init_run:
     wfcinit      :     19.77s CPU     19.92s WALL (       1 calls)
     wfcinit:atom :      0.02s CPU      0.05s WALL (       1 calls)
     wfcinit:wfcr :     19.57s CPU     19.66s WALL (       1 calls)
     potinit      :     11.79s CPU     12.13s WALL (       1 calls)
     hinit0       :     10.12s CPU     10.13s WALL (       1 calls)

     Called by electrons:
     c_bands      :    587.26s CPU    590.54s WALL (      19 calls)
     sum_band     :    184.16s CPU    194.46s WALL (      19 calls)
     v_of_rho     :    117.88s CPU    124.57s WALL (      20 calls)
     v_h          :      1.36s CPU      1.40s WALL (      20 calls)
     v_xc         :    116.52s CPU    123.17s WALL (      20 calls)
     newd         :     78.24s CPU     88.11s WALL (      20 calls)
     mix_rho      :      3.51s CPU      3.57s WALL (      19 calls)

     Called by c_bands:
     init_us_2    :      1.60s CPU      1.64s WALL (      39 calls)
     cegterg      :    583.38s CPU    586.65s WALL (      19 calls)

     Called by sum_band:
     sum_band:bec :      0.01s CPU      0.01s WALL (      19 calls)
     addusdens    :    113.19s CPU    122.99s WALL (      19 calls)

     Called by *egterg:
     h_psi        :    306.92s CPU    309.25s WALL (      71 calls)
     s_psi        :    103.87s CPU    103.93s WALL (      71 calls)
     g_psi        :      0.35s CPU      0.35s WALL (      51 calls)
     cdiaghg      :      5.46s CPU      5.47s WALL (      70 calls)
     cegterg:over :     74.79s CPU     74.83s WALL (      51 calls)
     cegterg:upda :     46.47s CPU     46.75s WALL (      51 calls)
     cegterg:last :     30.83s CPU     30.84s WALL (      19 calls)

     Called by h_psi:
     h_psi:pot    :    306.54s CPU    308.47s WALL (      71 calls)
     h_psi:calbec :    103.26s CPU    103.32s WALL (      71 calls)
     vloc_psi     :     99.64s CPU    101.47s WALL (      71 calls)
     add_vuspsi   :    103.64s CPU    103.68s WALL (      71 calls)

     General routines
     calbec       :    146.48s CPU    146.55s WALL (      90 calls)
     fft          :     66.58s CPU     69.08s WALL (    1258 calls)
     ffts         :      0.65s CPU      0.67s WALL (      39 calls)
     fftw         :    106.26s CPU    108.29s WALL (   14108 calls)
     interpolate  :      1.58s CPU      1.61s WALL (      20 calls)

     Parallel routines
     fft_scatt_xy :     29.52s CPU     29.93s WALL (   15405 calls)
     fft_scatt_yz :     60.25s CPU     63.44s WALL (   15405 calls)

     PWSCF        :  16m50.73s CPU  17m21.41s WALL


   This run was terminated on:   3:45:49   3Sep2022            

=------------------------------------------------------------------------------=
   JOB DONE.
=------------------------------------------------------------------------------=
