
     Program PWSCF v.6.4.1 starts on 21Sep2022 at 22:51:22 

     This program is part of the open-source Quantum ESPRESSO suite
     for quantum simulation of materials; please cite
         "P. Giannozzi et al., J. Phys.:Condens. Matter 21 395502 (2009);
         "P. Giannozzi et al., J. Phys.:Condens. Matter 29 465901 (2017);
          URL http://www.quantum-espresso.org", 
     in publications or presentations arising from this work. More details at
     http://www.quantum-espresso.org/quote

     Parallel version (MPI), running on     6 processors

     MPI processes distributed on     1 nodes
     R & G space division:  proc/nbgrp/npool/nimage =       6
     Reading input from distance-1.7.in

     Current dimensions of program PWSCF are:
     Max number of different atomic species (ntypx) = 10
     Max number of k-points (npk) =  40000
     Max angular momentum in pseudopotentials (lmaxx) =  3

     IMPORTANT: XC functional enforced from input :
     Exchange-correlation      = RVV10 ( 1  4 13  4 3 0)
     Any further DFT definition will be discarded
     Please, verify this is what you really want

               file H.pbe-rrkjus.UPF: wavefunction(s)  1S renormalized
               file Mn.pbe-spn-rrkjus_psl.0.3.1.UPF: wavefunction(s)  3D renormalized

     Subspace diagonalization in iterative solution of the eigenvalue problem:
     a serial algorithm will be used


     Parallelization info
     --------------------
     sticks:   dense  smooth     PW     G-vecs:    dense   smooth      PW
     Min        3051    1746    432               270999   117096   14629
     Max        3053    1747    437               271001   117099   14630
     Sum       18313   10477   2611              1626001   702581   87777



     bravais-lattice index     =            4
     lattice parameter (alat)  =      23.2937  a.u.
     unit-cell volume          =    8879.8548 (a.u.)^3
     number of atoms/cell      =           52
     number of atomic types    =            3
     number of electrons       =       213.00
     number of Kohn-Sham states=          128
     kinetic-energy cutoff     =      70.0000  Ry
     charge density cutoff     =     490.0000  Ry
     convergence threshold     =      1.0E-06
     mixing beta               =       0.7000
     number of iterations used =            8  plain     mixing
     Exchange-correlation      = RVV10 ( 1  4 13  4 3 0)

     celldm(1)=  23.293684  celldm(2)=   0.000000  celldm(3)=   0.811261
     celldm(4)=   0.000000  celldm(5)=   0.000000  celldm(6)=   0.000000

     crystal axes: (cart. coord. in units of alat)
               a(1) = (   1.000000   0.000000   0.000000 )  
               a(2) = (  -0.500000   0.866025   0.000000 )  
               a(3) = (   0.000000   0.000000   0.811261 )  

     reciprocal axes: (cart. coord. in units 2 pi/alat)
               b(1) = (  1.000000  0.577350 -0.000000 )  
               b(2) = (  0.000000  1.154701  0.000000 )  
               b(3) = (  0.000000 -0.000000  1.232649 )  


     PseudoPot. # 1 for H  read from file:
     /home/cristian/Escritorio/Proyecto_Grafeno/pseudopotenciales/H.pbe-rrkjus.UPF
     MD5 check sum: 7cc9d459525c9a0585f487a71c3c9563
     Pseudo is Ultrasoft, Zval =  1.0
     Generated by new atomic code, or converted to UPF format
     Using radial grid of 1061 points,  2 beta functions with: 
                l(1) =   0
                l(2) =   0
     Q(r) pseudized with 0 coefficients 


     PseudoPot. # 2 for C  read from file:
     /home/cristian/Escritorio/Proyecto_Grafeno/pseudopotenciales/C.pbe-n-rrkjus_psl.1.0.0.UPF
     MD5 check sum: 1fdd950c42eb37d8afe3dd2f8d12311e
     Pseudo is Ultrasoft + core correction, Zval =  4.0
     Generated using "atomic" code by A. Dal Corso v.6.3MaX
     Using radial grid of 1073 points,  4 beta functions with: 
                l(1) =   0
                l(2) =   0
                l(3) =   1
                l(4) =   1
     Q(r) pseudized with 0 coefficients 


     PseudoPot. # 3 for Mn read from file:
     /home/cristian/Escritorio/Proyecto_Grafeno/pseudopotenciales/Mn.pbe-spn-rrkjus_psl.0.3.1.UPF
     MD5 check sum: e1cac159bdd2ba70c18e85765a5d4279
     Pseudo is Ultrasoft + core correction, Zval = 15.0
     Generated using "atomic" code by A. Dal Corso v.6.2.2
     Using radial grid of 1187 points,  6 beta functions with: 
                l(1) =   0
                l(2) =   0
                l(3) =   1
                l(4) =   1
                l(5) =   2
                l(6) =   2
     Q(r) pseudized with 0 coefficients 


     vdW kernel table read from file rVV10_kernel_table
     MD5 check sum: b8e2538accc0c0b3206b45ba4daaba6c

     atomic species   valence    mass     pseudopotential
        H              1.00     1.00794     H ( 1.00)
        C              4.00    12.01070     C ( 1.00)
        Mn            15.00    54.93804     Mn( 1.00)

     No symmetry found


                                    s                        frac. trans.

      isym =  1     identity                                     

 cryst.   s( 1) = (     1          0          0      )
                  (     0          1          0      )
                  (     0          0          1      )

 cart.    s( 1) = (  1.0000000  0.0000000  0.0000000 )
                  (  0.0000000  1.0000000  0.0000000 )
                  (  0.0000000  0.0000000  1.0000000 )


     point group C_1 (1)    
     there are  1 classes
     the character table:

       E    
A      1.00

     the symmetry operations in each class and the name of the first element:

     E        1
          identity                                               

   Cartesian axes

     site n.     atom                  positions (alat units)
         1           H   tau(   1) = (   0.1694937   0.4618802   0.1379144  )
         2           H   tau(   2) = (   0.2305063   0.4618802   0.1379144  )
         3           C   tau(   3) = (   0.0000000   0.0000000   0.0000000  )
         4           C   tau(   4) = (   0.0000000   0.1154701   0.0000000  )
         5           C   tau(   5) = (  -0.1000000   0.1732051   0.0000000  )
         6           C   tau(   6) = (  -0.1000000   0.2886751   0.0000000  )
         7           C   tau(   7) = (  -0.2000000   0.3464102   0.0000000  )
         8           C   tau(   8) = (  -0.2000000   0.4618802   0.0000000  )
         9           C   tau(   9) = (  -0.3000000   0.5196152   0.0000000  )
        10           C   tau(  10) = (  -0.3000000   0.6350853   0.0000000  )
        11           C   tau(  11) = (  -0.4000000   0.6928203   0.0000000  )
        12           C   tau(  12) = (  -0.4000000   0.8082904   0.0000000  )
        13           C   tau(  13) = (   0.2000000   0.0000000   0.0000000  )
        14           C   tau(  14) = (   0.2000000   0.1154701   0.0000000  )
        15           C   tau(  15) = (   0.1000000   0.1732051   0.0000000  )
        16           C   tau(  16) = (   0.1000000   0.2886751   0.0000000  )
        17           C   tau(  17) = (   0.0000000   0.3464102   0.0000000  )
        18           C   tau(  18) = (   0.0000000   0.4618802   0.0000000  )
        19           C   tau(  19) = (  -0.1000000   0.5196152   0.0000000  )
        20           C   tau(  20) = (  -0.1000000   0.6350853   0.0000000  )
        21           C   tau(  21) = (  -0.2000000   0.6928203   0.0000000  )
        22           C   tau(  22) = (  -0.2000000   0.8082904   0.0000000  )
        23           C   tau(  23) = (   0.4000000   0.0000000   0.0000000  )
        24           C   tau(  24) = (   0.4000000   0.1154701   0.0000000  )
        25           C   tau(  25) = (   0.3000000   0.1732051   0.0000000  )
        26           C   tau(  26) = (   0.3000000   0.2886751   0.0000000  )
        27           C   tau(  27) = (   0.2000000   0.3464102   0.0000000  )
        28           Mn  tau(  28) = (   0.2000000   0.4618802   0.0000000  )
        29           C   tau(  29) = (   0.1000000   0.5196152   0.0000000  )
        30           C   tau(  30) = (   0.1000000   0.6350853   0.0000000  )
        31           C   tau(  31) = (   0.0000000   0.6928203   0.0000000  )
        32           C   tau(  32) = (   0.0000000   0.8082904   0.0000000  )
        33           C   tau(  33) = (   0.6000000   0.0000000   0.0000000  )
        34           C   tau(  34) = (   0.6000000   0.1154701   0.0000000  )
        35           C   tau(  35) = (   0.5000000   0.1732051   0.0000000  )
        36           C   tau(  36) = (   0.5000000   0.2886751   0.0000000  )
        37           C   tau(  37) = (   0.4000000   0.3464102   0.0000000  )
        38           C   tau(  38) = (   0.4000000   0.4618802   0.0000000  )
        39           C   tau(  39) = (   0.3000000   0.5196152   0.0000000  )
        40           C   tau(  40) = (   0.3000000   0.6350853   0.0000000  )
        41           C   tau(  41) = (   0.2000000   0.6928203   0.0000000  )
        42           C   tau(  42) = (   0.2000000   0.8082904   0.0000000  )
        43           C   tau(  43) = (   0.8000000   0.0000000   0.0000000  )
        44           C   tau(  44) = (   0.8000000   0.1154701   0.0000000  )
        45           C   tau(  45) = (   0.7000000   0.1732051   0.0000000  )
        46           C   tau(  46) = (   0.7000000   0.2886751   0.0000000  )
        47           C   tau(  47) = (   0.6000000   0.3464102   0.0000000  )
        48           C   tau(  48) = (   0.6000000   0.4618802   0.0000000  )
        49           C   tau(  49) = (   0.5000000   0.5196152   0.0000000  )
        50           C   tau(  50) = (   0.5000000   0.6350853   0.0000000  )
        51           C   tau(  51) = (   0.4000000   0.6928203   0.0000000  )
        52           C   tau(  52) = (   0.4000000   0.8082904   0.0000000  )

   Crystallographic axes

     site n.     atom                  positions (cryst. coord.)
         1           H   tau(   1) = (  0.4361603  0.5333333  0.1700000  )
         2           H   tau(   2) = (  0.4971730  0.5333333  0.1700000  )
         3           C   tau(   3) = (  0.0000000  0.0000000  0.0000000  )
         4           C   tau(   4) = (  0.0666667  0.1333333  0.0000000  )
         5           C   tau(   5) = (  0.0000000  0.2000000  0.0000000  )
         6           C   tau(   6) = (  0.0666667  0.3333333  0.0000000  )
         7           C   tau(   7) = (  0.0000000  0.4000000  0.0000000  )
         8           C   tau(   8) = (  0.0666667  0.5333333  0.0000000  )
         9           C   tau(   9) = (  0.0000000  0.6000000  0.0000000  )
        10           C   tau(  10) = (  0.0666667  0.7333333  0.0000000  )
        11           C   tau(  11) = (  0.0000000  0.8000000  0.0000000  )
        12           C   tau(  12) = (  0.0666667  0.9333333  0.0000000  )
        13           C   tau(  13) = (  0.2000000  0.0000000  0.0000000  )
        14           C   tau(  14) = (  0.2666667  0.1333333  0.0000000  )
        15           C   tau(  15) = (  0.2000000  0.2000000  0.0000000  )
        16           C   tau(  16) = (  0.2666667  0.3333333  0.0000000  )
        17           C   tau(  17) = (  0.2000000  0.4000000  0.0000000  )
        18           C   tau(  18) = (  0.2666667  0.5333333  0.0000000  )
        19           C   tau(  19) = (  0.2000000  0.6000000  0.0000000  )
        20           C   tau(  20) = (  0.2666667  0.7333333  0.0000000  )
        21           C   tau(  21) = (  0.2000000  0.8000000  0.0000000  )
        22           C   tau(  22) = (  0.2666667  0.9333333  0.0000000  )
        23           C   tau(  23) = (  0.4000000  0.0000000  0.0000000  )
        24           C   tau(  24) = (  0.4666667  0.1333333  0.0000000  )
        25           C   tau(  25) = (  0.4000000  0.2000000  0.0000000  )
        26           C   tau(  26) = (  0.4666667  0.3333333  0.0000000  )
        27           C   tau(  27) = (  0.4000000  0.4000000  0.0000000  )
        28           Mn  tau(  28) = (  0.4666667  0.5333333  0.0000000  )
        29           C   tau(  29) = (  0.4000000  0.6000000  0.0000000  )
        30           C   tau(  30) = (  0.4666667  0.7333333  0.0000000  )
        31           C   tau(  31) = (  0.4000000  0.8000000  0.0000000  )
        32           C   tau(  32) = (  0.4666667  0.9333333  0.0000000  )
        33           C   tau(  33) = (  0.6000000  0.0000000  0.0000000  )
        34           C   tau(  34) = (  0.6666667  0.1333333  0.0000000  )
        35           C   tau(  35) = (  0.6000000  0.2000000  0.0000000  )
        36           C   tau(  36) = (  0.6666667  0.3333333  0.0000000  )
        37           C   tau(  37) = (  0.6000000  0.4000000  0.0000000  )
        38           C   tau(  38) = (  0.6666667  0.5333333  0.0000000  )
        39           C   tau(  39) = (  0.6000000  0.6000000  0.0000000  )
        40           C   tau(  40) = (  0.6666667  0.7333333  0.0000000  )
        41           C   tau(  41) = (  0.6000000  0.8000000  0.0000000  )
        42           C   tau(  42) = (  0.6666667  0.9333333  0.0000000  )
        43           C   tau(  43) = (  0.8000000  0.0000000  0.0000000  )
        44           C   tau(  44) = (  0.8666667  0.1333333  0.0000000  )
        45           C   tau(  45) = (  0.8000000  0.2000000  0.0000000  )
        46           C   tau(  46) = (  0.8666667  0.3333333  0.0000000  )
        47           C   tau(  47) = (  0.8000000  0.4000000  0.0000000  )
        48           C   tau(  48) = (  0.8666667  0.5333333  0.0000000  )
        49           C   tau(  49) = (  0.8000000  0.6000000  0.0000000  )
        50           C   tau(  50) = (  0.8666667  0.7333333  0.0000000  )
        51           C   tau(  51) = (  0.8000000  0.8000000  0.0000000  )
        52           C   tau(  52) = (  0.8666667  0.9333333  0.0000000  )

     number of k points=     1  Marzari-Vanderbilt smearing, width (Ry)=  0.0010
                       cart. coord. in units 2pi/alat
        k(    1) = (   0.0000000   0.0000000   0.0000000), wk =   2.0000000

                       cryst. coord.
        k(    1) = (   0.0000000   0.0000000   0.0000000), wk =   2.0000000

     Dense  grid:  1626001 G-vectors     FFT dimensions: ( 180, 180, 135)

     Smooth grid:   702581 G-vectors     FFT dimensions: ( 125, 125, 108)

     Dynamical RAM for                 wfc:      28.59 MB

     Dynamical RAM for     wfc (w. buffer):      28.59 MB

     Dynamical RAM for           str. fact:      12.41 MB

     Dynamical RAM for           local pot:       0.00 MB

     Dynamical RAM for          nlocal pot:      92.46 MB

     Dynamical RAM for                qrad:      19.73 MB

     Dynamical RAM for          rho,v,vnew:      29.46 MB

     Dynamical RAM for               rhoin:       9.82 MB

     Dynamical RAM for            rho*nmix:      66.16 MB

     Dynamical RAM for           G-vectors:      16.40 MB

     Dynamical RAM for          h,s,v(r/c):      12.00 MB

     Dynamical RAM for          <psi|beta>:       0.81 MB

     Dynamical RAM for                 psi:     114.35 MB

     Dynamical RAM for                hpsi:     114.35 MB

     Dynamical RAM for                spsi:     114.35 MB

     Dynamical RAM for      wfcinit/wfcrot:      93.90 MB

     Dynamical RAM for           addusdens:     971.75 MB

     Estimated static dynamical RAM per process >     320.00 MB

     Estimated max dynamical RAM per process >       1.26 GB

     Estimated total dynamical RAM >       7.57 GB

     Check: negative core charge=   -0.000002

     Initial potential from superposition of free atoms

     starting charge  212.80506, renormalised to  213.00000

     negative rho (up, down):  8.941E-05 0.000E+00


---------------------------------------------------------------------------------
Carrying out rVV10 run using the following parameters:
Nqs =      20    Nr_points =    1024   r_max =   100.000
b_value =  6.30000    beta =  0.00901
     q_mesh =  0.00010000  0.00030000  0.00058939  0.00100810
               0.00161396  0.00249058  0.00375900  0.00559430
               0.00824984  0.01209221  0.01765183  0.02569619
               0.03733578  0.05417739  0.07854596  0.11380545
               0.16482331  0.23864234  0.34545298  0.50000000

Gradients computed in Reciprocal space

---------------------------------------------------------------------------------


     Starting wfcs are  208 randomized atomic wfcs

     total cpu time spent up to now is       52.8 secs

     Self-consistent Calculation

     iteration #  1     ecut=    70.00 Ry     beta= 0.70
     Davidson diagonalization with overlap
     ethr =  1.00E-02,  avg # of iterations =  2.0

     negative rho (up, down):  1.912E-04 0.000E+00

     total cpu time spent up to now is      131.8 secs

     total energy              =    -818.75990300 Ry
     Harris-Foulkes estimate   =    -829.21607610 Ry
     estimated scf accuracy    <      13.73916247 Ry

     iteration #  2     ecut=    70.00 Ry     beta= 0.70
     Davidson diagonalization with overlap
     ethr =  6.45E-03,  avg # of iterations =  6.0

     negative rho (up, down):  2.395E-04 0.000E+00

     total cpu time spent up to now is      206.8 secs

     total energy              =    -810.81674584 Ry
     Harris-Foulkes estimate   =    -849.60615183 Ry
     estimated scf accuracy    <     148.70299039 Ry

     iteration #  3     ecut=    70.00 Ry     beta= 0.70
     Davidson diagonalization with overlap
     ethr =  6.45E-03,  avg # of iterations =  5.0

     negative rho (up, down):  2.482E-04 0.000E+00

     total cpu time spent up to now is      304.6 secs

     total energy              =    -824.33926746 Ry
     Harris-Foulkes estimate   =    -826.88636768 Ry
     estimated scf accuracy    <       5.27312076 Ry

     iteration #  4     ecut=    70.00 Ry     beta= 0.70
     Davidson diagonalization with overlap
     ethr =  2.48E-03,  avg # of iterations =  4.0

     negative rho (up, down):  3.245E-04 0.000E+00

     total cpu time spent up to now is      374.9 secs

     total energy              =    -825.03549847 Ry
     Harris-Foulkes estimate   =    -826.63070527 Ry
     estimated scf accuracy    <       6.34100949 Ry

     iteration #  5     ecut=    70.00 Ry     beta= 0.70
     Davidson diagonalization with overlap
     ethr =  2.48E-03,  avg # of iterations =  3.0

     negative rho (up, down):  3.582E-04 0.000E+00

     total cpu time spent up to now is      436.4 secs

     total energy              =    -825.87184849 Ry
     Harris-Foulkes estimate   =    -825.99904355 Ry
     estimated scf accuracy    <       0.70176374 Ry

     iteration #  6     ecut=    70.00 Ry     beta= 0.70
     Davidson diagonalization with overlap
     ethr =  3.29E-04,  avg # of iterations =  3.0

     negative rho (up, down):  4.093E-04 0.000E+00

     total cpu time spent up to now is      494.9 secs

     total energy              =    -825.90082480 Ry
     Harris-Foulkes estimate   =    -825.93697121 Ry
     estimated scf accuracy    <       0.15099783 Ry

     iteration #  7     ecut=    70.00 Ry     beta= 0.70
     Davidson diagonalization with overlap
     ethr =  7.09E-05,  avg # of iterations =  7.0

     negative rho (up, down):  5.379E-04 0.000E+00

     total cpu time spent up to now is      561.9 secs

     total energy              =    -825.91218797 Ry
     Harris-Foulkes estimate   =    -825.94008331 Ry
     estimated scf accuracy    <       0.10828127 Ry

     iteration #  8     ecut=    70.00 Ry     beta= 0.70
     Davidson diagonalization with overlap
     ethr =  5.08E-05,  avg # of iterations =  3.0

     negative rho (up, down):  6.440E-04 0.000E+00

     total cpu time spent up to now is      620.7 secs

     total energy              =    -825.91828892 Ry
     Harris-Foulkes estimate   =    -825.92176791 Ry
     estimated scf accuracy    <       0.01662535 Ry

     iteration #  9     ecut=    70.00 Ry     beta= 0.70
     Davidson diagonalization with overlap
     ethr =  7.81E-06,  avg # of iterations =  4.0

     negative rho (up, down):  7.356E-04 0.000E+00

     total cpu time spent up to now is      686.9 secs

     total energy              =    -825.91905448 Ry
     Harris-Foulkes estimate   =    -825.92068565 Ry
     estimated scf accuracy    <       0.00925569 Ry

     iteration # 10     ecut=    70.00 Ry     beta= 0.70
     Davidson diagonalization with overlap
     ethr =  4.35E-06,  avg # of iterations =  2.0

     negative rho (up, down):  7.363E-04 0.000E+00

     total cpu time spent up to now is      743.7 secs

     total energy              =    -825.91939728 Ry
     Harris-Foulkes estimate   =    -825.92088157 Ry
     estimated scf accuracy    <       0.01733976 Ry

     iteration # 11     ecut=    70.00 Ry     beta= 0.70
     Davidson diagonalization with overlap
     ethr =  4.35E-06,  avg # of iterations =  1.0

     negative rho (up, down):  7.059E-04 0.000E+00

     total cpu time spent up to now is      803.4 secs

     total energy              =    -825.91943808 Ry
     Harris-Foulkes estimate   =    -825.92101578 Ry
     estimated scf accuracy    <       0.01867119 Ry

     iteration # 12     ecut=    70.00 Ry     beta= 0.70
     Davidson diagonalization with overlap
     ethr =  4.35E-06,  avg # of iterations =  1.0

     negative rho (up, down):  7.294E-04 0.000E+00

     total cpu time spent up to now is      860.7 secs

     total energy              =    -825.91966902 Ry
     Harris-Foulkes estimate   =    -825.92019508 Ry
     estimated scf accuracy    <       0.00679719 Ry

     iteration # 13     ecut=    70.00 Ry     beta= 0.70
     Davidson diagonalization with overlap
     ethr =  3.19E-06,  avg # of iterations =  1.0

     negative rho (up, down):  7.282E-04 0.000E+00

     total cpu time spent up to now is      917.4 secs

     total energy              =    -825.91994069 Ry
     Harris-Foulkes estimate   =    -825.92014023 Ry
     estimated scf accuracy    <       0.00512305 Ry

     iteration # 14     ecut=    70.00 Ry     beta= 0.70
     Davidson diagonalization with overlap
     ethr =  2.41E-06,  avg # of iterations =  1.0

     negative rho (up, down):  7.495E-04 0.000E+00

     total cpu time spent up to now is      975.2 secs

     total energy              =    -825.92001003 Ry
     Harris-Foulkes estimate   =    -825.92004274 Ry
     estimated scf accuracy    <       0.00026151 Ry

     iteration # 15     ecut=    70.00 Ry     beta= 0.70
     Davidson diagonalization with overlap
     ethr =  1.23E-07,  avg # of iterations =  2.0

     negative rho (up, down):  7.486E-04 0.000E+00

     total cpu time spent up to now is     1032.8 secs

     total energy              =    -825.92002343 Ry
     Harris-Foulkes estimate   =    -825.92002834 Ry
     estimated scf accuracy    <       0.00004230 Ry

     iteration # 16     ecut=    70.00 Ry     beta= 0.70
     Davidson diagonalization with overlap
     ethr =  1.99E-08,  avg # of iterations =  2.0

     negative rho (up, down):  7.521E-04 0.000E+00

     total cpu time spent up to now is     1091.1 secs

     total energy              =    -825.92002516 Ry
     Harris-Foulkes estimate   =    -825.92002765 Ry
     estimated scf accuracy    <       0.00000748 Ry

     iteration # 17     ecut=    70.00 Ry     beta= 0.70
     Davidson diagonalization with overlap
     ethr =  3.51E-09,  avg # of iterations =  3.0

     negative rho (up, down):  7.532E-04 0.000E+00

     total cpu time spent up to now is     1149.4 secs

     total energy              =    -825.92002580 Ry
     Harris-Foulkes estimate   =    -825.92002635 Ry
     estimated scf accuracy    <       0.00000131 Ry

     iteration # 18     ecut=    70.00 Ry     beta= 0.70
     Davidson diagonalization with overlap
     ethr =  6.14E-10,  avg # of iterations =  3.0

     negative rho (up, down):  7.533E-04 0.000E+00

     total cpu time spent up to now is     1210.5 secs

     total energy              =    -825.92002594 Ry
     Harris-Foulkes estimate   =    -825.92002611 Ry
     estimated scf accuracy    <       0.00000138 Ry

     iteration # 19     ecut=    70.00 Ry     beta= 0.70
     Davidson diagonalization with overlap
     ethr =  6.14E-10,  avg # of iterations =  2.0

     negative rho (up, down):  7.539E-04 0.000E+00

     total cpu time spent up to now is     1267.5 secs

     End of self-consistent calculation

          k = 0.0000 0.0000 0.0000 ( 87777 PWs)   bands (ev):

   -80.3243 -49.9468 -49.9416 -48.6550 -19.6113 -18.7638 -18.7625 -18.7014
   -18.7002 -18.6561 -18.4114 -16.9398 -16.9328 -16.9125 -16.8466 -16.8429
   -16.5331 -16.0813 -16.0767 -15.9762 -15.9407 -15.9351 -15.3042 -13.9915
   -13.9784 -13.9137 -13.8323 -13.8289 -13.2678 -12.9178 -12.9151 -12.8843
   -12.6226 -12.6166 -12.1792 -11.7179 -11.7171 -11.5188 -11.2657 -11.2611
   -10.8433 -10.1706  -9.5977  -9.5924  -9.3321  -9.1531  -9.1521  -9.0527
    -9.0277  -9.0260  -9.0201  -8.5666  -8.5611  -8.0713  -8.0674  -7.8914
    -7.7103  -7.6888  -7.2886  -7.2695  -7.1995  -7.1316  -7.0848  -6.7912
    -6.7888  -6.6659  -6.6565  -6.6130  -6.6005  -6.3956  -6.3906  -6.3744
    -6.3739  -6.3720  -6.3349  -6.2534  -5.7095  -5.6245  -5.4015  -5.4003
    -5.1844  -5.1836  -4.9617  -4.8227  -4.7490  -4.5759  -4.5589  -4.5564
    -4.1895  -4.1588  -4.1551  -4.0637  -4.0611  -3.6742  -3.6717  -3.6133
    -3.5186  -3.5157  -2.9634  -2.6247  -2.5972  -1.7045  -1.6435  -1.6410
    -0.8601  -0.8131  -0.8111   0.5144   1.0807   1.1115   1.1194   1.7332
     1.7346   1.9028   2.3346   2.5142   2.8569   2.9597   2.9613   3.0118
     3.5669   3.6055   3.6137   3.6704   3.7044   3.8306   3.8366   3.9743

     occupation numbers 
     1.0000   1.0000   1.0000   1.0000   1.0000   1.0000   1.0000   1.0000
     1.0000   1.0000   1.0000   1.0000   1.0000   1.0000   1.0000   1.0000
     1.0000   1.0000   1.0000   1.0000   1.0000   1.0000   1.0000   1.0000
     1.0000   1.0000   1.0000   1.0000   1.0000   1.0000   1.0000   1.0000
     1.0000   1.0000   1.0000   1.0000   1.0000   1.0000   1.0000   1.0000
     1.0000   1.0000   1.0000   1.0000   1.0000   1.0000   1.0000   1.0000
     1.0000   1.0000   1.0000   1.0000   1.0000   1.0000   1.0000   1.0000
     1.0000   1.0000   1.0000   1.0000   1.0000   1.0000   1.0000   1.0000
     1.0000   1.0000   1.0000   1.0000   1.0000   1.0000   1.0000   1.0000
     1.0000   1.0000   1.0000   1.0000   1.0000   1.0000   1.0000   1.0000
     1.0000   1.0000   1.0000   1.0000   1.0000   1.0000   1.0000   1.0000
     1.0000   1.0000   1.0000   1.0000   1.0000   1.0000   1.0000   1.0000
     1.0000   1.0000   1.0000   1.0000   1.0000   1.0000   1.0000   1.0000
     1.0000   0.8013   0.6987   0.0000   0.0000   0.0000   0.0000   0.0000
     0.0000   0.0000   0.0000   0.0000   0.0000   0.0000   0.0000   0.0000
     0.0000   0.0000   0.0000   0.0000   0.0000   0.0000   0.0000   0.0000

     the Fermi energy is    -0.8056 ev

!    total energy              =    -825.92002526 Ry
     Harris-Foulkes estimate   =    -825.92002603 Ry
     estimated scf accuracy    <       0.00000080 Ry

     The total energy is the sum of the following terms:

     one-electron contribution =   -2762.42293795 Ry
     hartree contribution      =    1426.58443766 Ry
     xc contribution           =    -259.79266999 Ry
     ewald contribution        =     769.71148732 Ry
     smearing contrib. (-TS)   =      -0.00034230 Ry

     convergence has been achieved in  19 iterations

     Writing output data file manganeso-top-distance-1.7.save/

     init_run     :     50.28s CPU     51.42s WALL (       1 calls)
     electrons    :   1182.53s CPU   1214.87s WALL (       1 calls)

     Called by init_run:
     wfcinit      :     25.35s CPU     25.52s WALL (       1 calls)
     wfcinit:atom :      0.03s CPU      0.05s WALL (       1 calls)
     wfcinit:wfcr :     25.16s CPU     25.27s WALL (       1 calls)
     potinit      :     11.42s CPU     11.79s WALL (       1 calls)
     hinit0       :      8.29s CPU      8.33s WALL (       1 calls)

     Called by electrons:
     c_bands      :    724.76s CPU    728.43s WALL (      19 calls)
     sum_band     :    232.03s CPU    243.19s WALL (      19 calls)
     v_of_rho     :    136.33s CPU    143.73s WALL (      20 calls)
     v_h          :      1.66s CPU      1.71s WALL (      20 calls)
     v_xc         :    134.67s CPU    142.02s WALL (      20 calls)
     newd         :     93.55s CPU    104.38s WALL (      20 calls)
     mix_rho      :      4.54s CPU      4.63s WALL (      19 calls)

     Called by c_bands:
     init_us_2    :      1.99s CPU      2.04s WALL (      39 calls)
     cegterg      :    719.69s CPU    723.34s WALL (      19 calls)

     Called by sum_band:
     sum_band:bec :      0.02s CPU      0.02s WALL (      19 calls)
     addusdens    :    142.52s CPU    153.20s WALL (      19 calls)

     Called by *egterg:
     h_psi        :    389.75s CPU    392.23s WALL (      75 calls)
     s_psi        :    129.24s CPU    129.33s WALL (      75 calls)
     g_psi        :      0.36s CPU      0.36s WALL (      55 calls)
     cdiaghg      :      5.93s CPU      5.93s WALL (      74 calls)
     cegterg:over :     85.36s CPU     85.44s WALL (      55 calls)
     cegterg:upda :     55.16s CPU     55.49s WALL (      55 calls)
     cegterg:last :     36.55s CPU     36.57s WALL (      19 calls)

     Called by h_psi:
     h_psi:pot    :    389.29s CPU    391.37s WALL (      75 calls)
     h_psi:calbec :    128.40s CPU    128.48s WALL (      75 calls)
     vloc_psi     :    132.59s CPU    134.49s WALL (      75 calls)
     add_vuspsi   :    128.30s CPU    128.39s WALL (      75 calls)

     General routines
     calbec       :    181.99s CPU    182.12s WALL (      94 calls)
     fft          :     78.37s CPU     81.14s WALL (    1258 calls)
     ffts         :      0.89s CPU      0.92s WALL (      39 calls)
     fftw         :    139.70s CPU    141.67s WALL (   14088 calls)
     interpolate  :      2.01s CPU      2.05s WALL (      20 calls)

     Parallel routines
     fft_scatt_xy :     39.68s CPU     40.02s WALL (   15385 calls)
     fft_scatt_yz :     71.50s CPU     75.01s WALL (   15385 calls)

     PWSCF        :  20m34.27s CPU  21m 7.99s WALL


   This run was terminated on:  23:12:30  21Sep2022            

=------------------------------------------------------------------------------=
   JOB DONE.
=------------------------------------------------------------------------------=
