
     Program PWSCF v.6.4.1 starts on  9Mar2022 at 23:59:22 

     This program is part of the open-source Quantum ESPRESSO suite
     for quantum simulation of materials; please cite
         "P. Giannozzi et al., J. Phys.:Condens. Matter 21 395502 (2009);
         "P. Giannozzi et al., J. Phys.:Condens. Matter 29 465901 (2017);
          URL http://www.quantum-espresso.org", 
     in publications or presentations arising from this work. More details at
     http://www.quantum-espresso.org/quote

     Parallel version (MPI), running on     6 processors

     MPI processes distributed on     1 nodes
     R & G space division:  proc/nbgrp/npool/nimage =       6
     Reading input from degauss-0.07.in

     Current dimensions of program PWSCF are:
     Max number of different atomic species (ntypx) = 10
     Max number of k-points (npk) =  40000
     Max angular momentum in pseudopotentials (lmaxx) =  3
               file Cr.pbe-spn-rrkjus_psl.1.0.0.UPF: wavefunction(s)  3P renormalized
               file Cr.pbe-spn-rrkjus_psl.1.0.0.UPF: wavefunction(s)  3P renormalized

     Subspace diagonalization in iterative solution of the eigenvalue problem:
     a serial algorithm will be used

     Message from routine setup:
     DEPRECATED: symmetry with ibrav=0, use correct ibrav instead

     Parallelization info
     --------------------
     sticks:   dense  smooth     PW     G-vecs:    dense   smooth      PW
     Min         320     129     39                10576     2689     453
     Max         321     131     41                10577     2690     454
     Sum        1925     777    241                63461    16135    2721



     bravais-lattice index     =            0
     lattice parameter (alat)  =       5.4991  a.u.
     unit-cell volume          =     166.2936 (a.u.)^3
     number of atoms/cell      =            2
     number of atomic types    =            2
     number of electrons       =        28.00
     number of Kohn-Sham states=           18
     kinetic-energy cutoff     =      80.0000  Ry
     charge density cutoff     =     800.0000  Ry
     convergence threshold     =      1.0E-06
     mixing beta               =       0.7000
     number of iterations used =            8  plain     mixing
     Exchange-correlation      = PBE ( 1  4  3  4 0 0)

     celldm(1)=   5.499103  celldm(2)=   0.000000  celldm(3)=   0.000000
     celldm(4)=   0.000000  celldm(5)=   0.000000  celldm(6)=   0.000000

     crystal axes: (cart. coord. in units of alat)
               a(1) = (   1.000000   0.000000   0.000000 )  
               a(2) = (   0.000000   1.000000   0.000000 )  
               a(3) = (   0.000000   0.000000   1.000000 )  

     reciprocal axes: (cart. coord. in units 2 pi/alat)
               b(1) = (  1.000000  0.000000  0.000000 )  
               b(2) = (  0.000000  1.000000  0.000000 )  
               b(3) = (  0.000000  0.000000  1.000000 )  


     PseudoPot. # 1 for Cr read from file:
     /home/cristian/Escritorio/Proyecto_Grafeno/pseudopotenciales/Cr.pbe-spn-rrkjus_psl.1.0.0.UPF
     MD5 check sum: 793d051e4f89dd1e3290b85340a92c0a
     Pseudo is Ultrasoft + core correction, Zval = 14.0
     Generated using "atomic" code by A. Dal Corso v.6.2.2
     Using radial grid of 1183 points,  6 beta functions with: 
                l(1) =   0
                l(2) =   0
                l(3) =   1
                l(4) =   1
                l(5) =   2
                l(6) =   2
     Q(r) pseudized with 0 coefficients 


     PseudoPot. # 2 for Cr read from file:
     /home/cristian/Escritorio/Proyecto_Grafeno/pseudopotenciales/Cr.pbe-spn-rrkjus_psl.1.0.0.UPF
     MD5 check sum: 793d051e4f89dd1e3290b85340a92c0a
     Pseudo is Ultrasoft + core correction, Zval = 14.0
     Generated using "atomic" code by A. Dal Corso v.6.2.2
     Using radial grid of 1183 points,  6 beta functions with: 
                l(1) =   0
                l(2) =   0
                l(3) =   1
                l(4) =   1
                l(5) =   2
                l(6) =   2
     Q(r) pseudized with 0 coefficients 


     atomic species   valence    mass     pseudopotential
        Cr1           14.00    51.99610     Cr( 1.00)
        Cr2           14.00    51.99610     Cr( 1.00)

     Starting magnetic structure 
     atomic species   magnetization
        Cr1          0.100
        Cr2         -0.100

     48 Sym. Ops., with inversion, found



   Cartesian axes

     site n.     atom                  positions (alat units)
         1           Cr1 tau(   1) = (   0.0000000   0.0000000   0.0000000  )
         2           Cr2 tau(   2) = (   0.5000000   0.5000000   0.5000000  )

     number of k points=    56  gaussian smearing, width (Ry)=  0.0700
                       cart. coord. in units 2pi/alat
        k(    1) = (   0.0416667   0.0416667   0.0416667), wk =   0.0046296
        k(    2) = (   0.0416667   0.0416667   0.1250000), wk =   0.0138889
        k(    3) = (   0.0416667   0.0416667   0.2083333), wk =   0.0138889
        k(    4) = (   0.0416667   0.0416667   0.2916667), wk =   0.0138889
        k(    5) = (   0.0416667   0.0416667   0.3750000), wk =   0.0138889
        k(    6) = (   0.0416667   0.0416667   0.4583333), wk =   0.0138889
        k(    7) = (   0.0416667   0.1250000   0.1250000), wk =   0.0138889
        k(    8) = (   0.0416667   0.1250000   0.2083333), wk =   0.0277778
        k(    9) = (   0.0416667   0.1250000   0.2916667), wk =   0.0277778
        k(   10) = (   0.0416667   0.1250000   0.3750000), wk =   0.0277778
        k(   11) = (   0.0416667   0.1250000   0.4583333), wk =   0.0277778
        k(   12) = (   0.0416667   0.2083333   0.2083333), wk =   0.0138889
        k(   13) = (   0.0416667   0.2083333   0.2916667), wk =   0.0277778
        k(   14) = (   0.0416667   0.2083333   0.3750000), wk =   0.0277778
        k(   15) = (   0.0416667   0.2083333   0.4583333), wk =   0.0277778
        k(   16) = (   0.0416667   0.2916667   0.2916667), wk =   0.0138889
        k(   17) = (   0.0416667   0.2916667   0.3750000), wk =   0.0277778
        k(   18) = (   0.0416667   0.2916667   0.4583333), wk =   0.0277778
        k(   19) = (   0.0416667   0.3750000   0.3750000), wk =   0.0138889
        k(   20) = (   0.0416667   0.3750000   0.4583333), wk =   0.0277778
        k(   21) = (   0.0416667   0.4583333   0.4583333), wk =   0.0138889
        k(   22) = (   0.1250000   0.1250000   0.1250000), wk =   0.0046296
        k(   23) = (   0.1250000   0.1250000   0.2083333), wk =   0.0138889
        k(   24) = (   0.1250000   0.1250000   0.2916667), wk =   0.0138889
        k(   25) = (   0.1250000   0.1250000   0.3750000), wk =   0.0138889
        k(   26) = (   0.1250000   0.1250000   0.4583333), wk =   0.0138889
        k(   27) = (   0.1250000   0.2083333   0.2083333), wk =   0.0138889
        k(   28) = (   0.1250000   0.2083333   0.2916667), wk =   0.0277778
        k(   29) = (   0.1250000   0.2083333   0.3750000), wk =   0.0277778
        k(   30) = (   0.1250000   0.2083333   0.4583333), wk =   0.0277778
        k(   31) = (   0.1250000   0.2916667   0.2916667), wk =   0.0138889
        k(   32) = (   0.1250000   0.2916667   0.3750000), wk =   0.0277778
        k(   33) = (   0.1250000   0.2916667   0.4583333), wk =   0.0277778
        k(   34) = (   0.1250000   0.3750000   0.3750000), wk =   0.0138889
        k(   35) = (   0.1250000   0.3750000   0.4583333), wk =   0.0277778
        k(   36) = (   0.1250000   0.4583333   0.4583333), wk =   0.0138889
        k(   37) = (   0.2083333   0.2083333   0.2083333), wk =   0.0046296
        k(   38) = (   0.2083333   0.2083333   0.2916667), wk =   0.0138889
        k(   39) = (   0.2083333   0.2083333   0.3750000), wk =   0.0138889
        k(   40) = (   0.2083333   0.2083333   0.4583333), wk =   0.0138889
        k(   41) = (   0.2083333   0.2916667   0.2916667), wk =   0.0138889
        k(   42) = (   0.2083333   0.2916667   0.3750000), wk =   0.0277778
        k(   43) = (   0.2083333   0.2916667   0.4583333), wk =   0.0277778
        k(   44) = (   0.2083333   0.3750000   0.3750000), wk =   0.0138889
        k(   45) = (   0.2083333   0.3750000   0.4583333), wk =   0.0277778
        k(   46) = (   0.2083333   0.4583333   0.4583333), wk =   0.0138889
        k(   47) = (   0.2916667   0.2916667   0.2916667), wk =   0.0046296
        k(   48) = (   0.2916667   0.2916667   0.3750000), wk =   0.0138889
        k(   49) = (   0.2916667   0.2916667   0.4583333), wk =   0.0138889
        k(   50) = (   0.2916667   0.3750000   0.3750000), wk =   0.0138889
        k(   51) = (   0.2916667   0.3750000   0.4583333), wk =   0.0277778
        k(   52) = (   0.2916667   0.4583333   0.4583333), wk =   0.0138889
        k(   53) = (   0.3750000   0.3750000   0.3750000), wk =   0.0046296
        k(   54) = (   0.3750000   0.3750000   0.4583333), wk =   0.0138889
        k(   55) = (   0.3750000   0.4583333   0.4583333), wk =   0.0138889
        k(   56) = (   0.4583333   0.4583333   0.4583333), wk =   0.0046296

     Dense  grid:    63461 G-vectors     FFT dimensions: (  50,  50,  50)

     Smooth grid:    16135 G-vectors     FFT dimensions: (  32,  32,  32)

     Estimated max dynamical RAM per process >      55.15 MB

     Estimated total dynamical RAM >     330.93 MB
     Generating pointlists ...
     new r_m :   0.3572 (alat units)  1.9645 (a.u.) for type    1
     new r_m :   0.3572 (alat units)  1.9645 (a.u.) for type    2

     Check: negative core charge=   -0.000002

     Initial potential from superposition of free atoms

     starting charge   27.99845, renormalised to   28.00000
     Starting wfcs are   20 randomized atomic wfcs

     total cpu time spent up to now is        2.6 secs

     Self-consistent Calculation

     iteration #  1     ecut=    80.00 Ry     beta= 0.70
     Davidson diagonalization with overlap
     ethr =  1.00E-02,  avg # of iterations =  2.4

     Threshold (ethr) on eigenvalues was too large:
     Diagonalizing with lowered threshold

     Davidson diagonalization with overlap
     ethr =  5.70E-04,  avg # of iterations =  2.5

     total cpu time spent up to now is        6.9 secs

     total energy              =    -349.93655309 Ry
     Harris-Foulkes estimate   =    -350.04708638 Ry
     estimated scf accuracy    <       0.17202288 Ry

     total magnetization       =    -0.00 Bohr mag/cell
     absolute magnetization    =     2.00 Bohr mag/cell

     iteration #  2     ecut=    80.00 Ry     beta= 0.70
     Davidson diagonalization with overlap
     ethr =  6.14E-04,  avg # of iterations =  3.1

     total cpu time spent up to now is       10.2 secs

     total energy              =    -349.95967130 Ry
     Harris-Foulkes estimate   =    -350.07643207 Ry
     estimated scf accuracy    <       0.25342996 Ry

     total magnetization       =     0.00 Bohr mag/cell
     absolute magnetization    =     2.35 Bohr mag/cell

     iteration #  3     ecut=    80.00 Ry     beta= 0.70
     Davidson diagonalization with overlap
     ethr =  6.14E-04,  avg # of iterations =  3.0

     total cpu time spent up to now is       12.8 secs

     total energy              =    -350.01275736 Ry
     Harris-Foulkes estimate   =    -350.01275465 Ry
     estimated scf accuracy    <       0.00235468 Ry

     total magnetization       =     0.00 Bohr mag/cell
     absolute magnetization    =     2.08 Bohr mag/cell

     iteration #  4     ecut=    80.00 Ry     beta= 0.70
     Davidson diagonalization with overlap
     ethr =  8.41E-06,  avg # of iterations =  3.8

     total cpu time spent up to now is       15.8 secs

     total energy              =    -350.01348619 Ry
     Harris-Foulkes estimate   =    -350.01353692 Ry
     estimated scf accuracy    <       0.00043238 Ry

     total magnetization       =    -0.00 Bohr mag/cell
     absolute magnetization    =     2.00 Bohr mag/cell

     iteration #  5     ecut=    80.00 Ry     beta= 0.70
     Davidson diagonalization with overlap
     ethr =  1.54E-06,  avg # of iterations =  2.7

     total cpu time spent up to now is       18.0 secs

     total energy              =    -350.01361104 Ry
     Harris-Foulkes estimate   =    -350.01357949 Ry
     estimated scf accuracy    <       0.00071589 Ry

     total magnetization       =     0.00 Bohr mag/cell
     absolute magnetization    =     1.98 Bohr mag/cell

     iteration #  6     ecut=    80.00 Ry     beta= 0.70
     Davidson diagonalization with overlap
     ethr =  1.54E-06,  avg # of iterations =  2.2

     total cpu time spent up to now is       20.1 secs

     total energy              =    -350.01365311 Ry
     Harris-Foulkes estimate   =    -350.01372258 Ry
     estimated scf accuracy    <       0.00006652 Ry

     total magnetization       =     0.00 Bohr mag/cell
     absolute magnetization    =     1.89 Bohr mag/cell

     iteration #  7     ecut=    80.00 Ry     beta= 0.70
     Davidson diagonalization with overlap
     ethr =  2.38E-07,  avg # of iterations =  4.3

     total cpu time spent up to now is       23.3 secs

     total energy              =    -350.01379253 Ry
     Harris-Foulkes estimate   =    -350.01396412 Ry
     estimated scf accuracy    <       0.00003625 Ry

     total magnetization       =     0.00 Bohr mag/cell
     absolute magnetization    =     1.72 Bohr mag/cell

     iteration #  8     ecut=    80.00 Ry     beta= 0.70
     Davidson diagonalization with overlap
     ethr =  1.29E-07,  avg # of iterations =  4.6

     total cpu time spent up to now is       26.7 secs

     total energy              =    -350.01238971 Ry
     Harris-Foulkes estimate   =    -350.01418133 Ry
     estimated scf accuracy    <       0.00002061 Ry

     total magnetization       =     0.00 Bohr mag/cell
     absolute magnetization    =     1.52 Bohr mag/cell

     iteration #  9     ecut=    80.00 Ry     beta= 0.70
     Davidson diagonalization with overlap
     ethr =  7.36E-08,  avg # of iterations =  5.0

     total cpu time spent up to now is       30.9 secs

     total energy              =    -350.01281165 Ry
     Harris-Foulkes estimate   =    -350.01449787 Ry
     estimated scf accuracy    <       0.00001169 Ry

     total magnetization       =     0.00 Bohr mag/cell
     absolute magnetization    =     1.04 Bohr mag/cell

     iteration # 10     ecut=    80.00 Ry     beta= 0.70
     Davidson diagonalization with overlap
     ethr =  4.18E-08,  avg # of iterations =  5.0

     total cpu time spent up to now is       35.2 secs

     total energy              =    -350.01329248 Ry
     Harris-Foulkes estimate   =    -350.01462915 Ry
     estimated scf accuracy    <       0.00000500 Ry

     total magnetization       =    -0.00 Bohr mag/cell
     absolute magnetization    =     0.60 Bohr mag/cell

     iteration # 11     ecut=    80.00 Ry     beta= 0.70
     Davidson diagonalization with overlap
     ethr =  1.79E-08,  avg # of iterations =  5.0

     total cpu time spent up to now is       39.5 secs

     total energy              =    -350.01443397 Ry
     Harris-Foulkes estimate   =    -350.01467298 Ry
     estimated scf accuracy    <       0.00000379 Ry

     total magnetization       =    -0.00 Bohr mag/cell
     absolute magnetization    =     0.21 Bohr mag/cell

     iteration # 12     ecut=    80.00 Ry     beta= 0.70
     Davidson diagonalization with overlap
     ethr =  1.35E-08,  avg # of iterations =  4.9

     total cpu time spent up to now is       43.5 secs

     total energy              =    -350.01463728 Ry
     Harris-Foulkes estimate   =    -350.01467841 Ry
     estimated scf accuracy    <       0.00000342 Ry

     total magnetization       =    -0.00 Bohr mag/cell
     absolute magnetization    =     0.05 Bohr mag/cell

     iteration # 13     ecut=    80.00 Ry     beta= 0.70
     Davidson diagonalization with overlap
     ethr =  1.22E-08,  avg # of iterations =  4.8

     Magnetic moment per site:
     atom:    1    charge:   12.2769    magn:   -0.0067    constr:    0.0000
     atom:    2    charge:   12.2769    magn:    0.0066    constr:    0.0000

     total cpu time spent up to now is       47.1 secs

     End of self-consistent calculation

     Number of k-points >= 100: set verbosity='high' to print the bands.

     the Fermi energy is    18.0643 ev

!    total energy              =    -350.01467801 Ry
     Harris-Foulkes estimate   =    -350.01467810 Ry
     estimated scf accuracy    <       0.00000011 Ry

     The total energy is the sum of the following terms:

     one-electron contribution =    -121.54685279 Ry
     hartree contribution      =      75.49903933 Ry
     xc contribution           =     -44.46652967 Ry
     ewald contribution        =    -259.42040003 Ry
     smearing contrib. (-TS)   =      -0.07993484 Ry

     total magnetization       =    -0.00 Bohr mag/cell
     absolute magnetization    =     0.01 Bohr mag/cell

     convergence has been achieved in  13 iterations

     Writing output data file degauss-0.07.save/

     init_run     :      1.16s CPU      1.21s WALL (       1 calls)
     electrons    :     43.59s CPU     44.46s WALL (       1 calls)

     Called by init_run:
     wfcinit      :      0.69s CPU      0.71s WALL (       1 calls)
     potinit      :      0.08s CPU      0.08s WALL (       1 calls)
     hinit0       :      0.25s CPU      0.26s WALL (       1 calls)

     Called by electrons:
     c_bands      :     37.53s CPU     38.29s WALL (      14 calls)
     sum_band     :      4.71s CPU      4.81s WALL (      14 calls)
     v_of_rho     :      0.50s CPU      0.52s WALL (      14 calls)
     newd         :      0.86s CPU      0.88s WALL (      14 calls)
     mix_rho      :      0.05s CPU      0.05s WALL (      14 calls)

     Called by c_bands:
     init_us_2    :      0.47s CPU      0.48s WALL (    3248 calls)
     cegterg      :     35.80s CPU     36.54s WALL (    1568 calls)

     Called by sum_band:
     sum_band:bec :      0.03s CPU      0.03s WALL (    1568 calls)
     addusdens    :      1.48s CPU      1.48s WALL (      14 calls)

     Called by *egterg:
     h_psi        :     17.96s CPU     18.37s WALL (    7663 calls)
     s_psi        :      1.96s CPU      2.02s WALL (    7663 calls)
     g_psi        :      0.19s CPU      0.19s WALL (    5983 calls)
     cdiaghg      :      5.43s CPU      5.52s WALL (    7439 calls)

     Called by h_psi:
     h_psi:pot    :     17.88s CPU     18.29s WALL (    7663 calls)
     h_psi:calbec :      2.66s CPU      2.74s WALL (    7663 calls)
     vloc_psi     :     13.24s CPU     13.51s WALL (    7663 calls)
     add_vuspsi   :      1.97s CPU      2.03s WALL (    7663 calls)

     General routines
     calbec       :      3.46s CPU      3.56s WALL (    9231 calls)
     fft          :      0.25s CPU      0.26s WALL (     346 calls)
     ffts         :      0.01s CPU      0.01s WALL (      56 calls)
     fftw         :     13.24s CPU     13.52s WALL (  214002 calls)
     interpolate  :      0.02s CPU      0.02s WALL (      28 calls)

     Parallel routines
     fft_scatt_xy :      1.72s CPU      1.76s WALL (  214404 calls)
     fft_scatt_yz :      6.84s CPU      7.00s WALL (  214404 calls)

     PWSCF        :     46.27s CPU     47.26s WALL


   This run was terminated on:   0: 0:10  10Mar2022            

=------------------------------------------------------------------------------=
   JOB DONE.
=------------------------------------------------------------------------------=
