
     Program PWSCF v.6.4.1 starts on  9Mar2022 at 23:57:59 

     This program is part of the open-source Quantum ESPRESSO suite
     for quantum simulation of materials; please cite
         "P. Giannozzi et al., J. Phys.:Condens. Matter 21 395502 (2009);
         "P. Giannozzi et al., J. Phys.:Condens. Matter 29 465901 (2017);
          URL http://www.quantum-espresso.org", 
     in publications or presentations arising from this work. More details at
     http://www.quantum-espresso.org/quote

     Parallel version (MPI), running on     6 processors

     MPI processes distributed on     1 nodes
     R & G space division:  proc/nbgrp/npool/nimage =       6
     Reading input from degauss-0.01.in

     Current dimensions of program PWSCF are:
     Max number of different atomic species (ntypx) = 10
     Max number of k-points (npk) =  40000
     Max angular momentum in pseudopotentials (lmaxx) =  3
               file Cr.pbe-spn-rrkjus_psl.1.0.0.UPF: wavefunction(s)  3P renormalized
               file Cr.pbe-spn-rrkjus_psl.1.0.0.UPF: wavefunction(s)  3P renormalized

     Subspace diagonalization in iterative solution of the eigenvalue problem:
     a serial algorithm will be used

     Message from routine setup:
     DEPRECATED: symmetry with ibrav=0, use correct ibrav instead

     Parallelization info
     --------------------
     sticks:   dense  smooth     PW     G-vecs:    dense   smooth      PW
     Min         320     129     39                10576     2689     453
     Max         321     131     41                10577     2690     454
     Sum        1925     777    241                63461    16135    2721



     bravais-lattice index     =            0
     lattice parameter (alat)  =       5.4991  a.u.
     unit-cell volume          =     166.2936 (a.u.)^3
     number of atoms/cell      =            2
     number of atomic types    =            2
     number of electrons       =        28.00
     number of Kohn-Sham states=           18
     kinetic-energy cutoff     =      80.0000  Ry
     charge density cutoff     =     800.0000  Ry
     convergence threshold     =      1.0E-06
     mixing beta               =       0.7000
     number of iterations used =            8  plain     mixing
     Exchange-correlation      = PBE ( 1  4  3  4 0 0)

     celldm(1)=   5.499103  celldm(2)=   0.000000  celldm(3)=   0.000000
     celldm(4)=   0.000000  celldm(5)=   0.000000  celldm(6)=   0.000000

     crystal axes: (cart. coord. in units of alat)
               a(1) = (   1.000000   0.000000   0.000000 )  
               a(2) = (   0.000000   1.000000   0.000000 )  
               a(3) = (   0.000000   0.000000   1.000000 )  

     reciprocal axes: (cart. coord. in units 2 pi/alat)
               b(1) = (  1.000000  0.000000  0.000000 )  
               b(2) = (  0.000000  1.000000  0.000000 )  
               b(3) = (  0.000000  0.000000  1.000000 )  


     PseudoPot. # 1 for Cr read from file:
     /home/cristian/Escritorio/Proyecto_Grafeno/pseudopotenciales/Cr.pbe-spn-rrkjus_psl.1.0.0.UPF
     MD5 check sum: 793d051e4f89dd1e3290b85340a92c0a
     Pseudo is Ultrasoft + core correction, Zval = 14.0
     Generated using "atomic" code by A. Dal Corso v.6.2.2
     Using radial grid of 1183 points,  6 beta functions with: 
                l(1) =   0
                l(2) =   0
                l(3) =   1
                l(4) =   1
                l(5) =   2
                l(6) =   2
     Q(r) pseudized with 0 coefficients 


     PseudoPot. # 2 for Cr read from file:
     /home/cristian/Escritorio/Proyecto_Grafeno/pseudopotenciales/Cr.pbe-spn-rrkjus_psl.1.0.0.UPF
     MD5 check sum: 793d051e4f89dd1e3290b85340a92c0a
     Pseudo is Ultrasoft + core correction, Zval = 14.0
     Generated using "atomic" code by A. Dal Corso v.6.2.2
     Using radial grid of 1183 points,  6 beta functions with: 
                l(1) =   0
                l(2) =   0
                l(3) =   1
                l(4) =   1
                l(5) =   2
                l(6) =   2
     Q(r) pseudized with 0 coefficients 


     atomic species   valence    mass     pseudopotential
        Cr1           14.00    51.99610     Cr( 1.00)
        Cr2           14.00    51.99610     Cr( 1.00)

     Starting magnetic structure 
     atomic species   magnetization
        Cr1          0.100
        Cr2         -0.100

     48 Sym. Ops., with inversion, found



   Cartesian axes

     site n.     atom                  positions (alat units)
         1           Cr1 tau(   1) = (   0.0000000   0.0000000   0.0000000  )
         2           Cr2 tau(   2) = (   0.5000000   0.5000000   0.5000000  )

     number of k points=    56  gaussian smearing, width (Ry)=  0.0100
                       cart. coord. in units 2pi/alat
        k(    1) = (   0.0416667   0.0416667   0.0416667), wk =   0.0046296
        k(    2) = (   0.0416667   0.0416667   0.1250000), wk =   0.0138889
        k(    3) = (   0.0416667   0.0416667   0.2083333), wk =   0.0138889
        k(    4) = (   0.0416667   0.0416667   0.2916667), wk =   0.0138889
        k(    5) = (   0.0416667   0.0416667   0.3750000), wk =   0.0138889
        k(    6) = (   0.0416667   0.0416667   0.4583333), wk =   0.0138889
        k(    7) = (   0.0416667   0.1250000   0.1250000), wk =   0.0138889
        k(    8) = (   0.0416667   0.1250000   0.2083333), wk =   0.0277778
        k(    9) = (   0.0416667   0.1250000   0.2916667), wk =   0.0277778
        k(   10) = (   0.0416667   0.1250000   0.3750000), wk =   0.0277778
        k(   11) = (   0.0416667   0.1250000   0.4583333), wk =   0.0277778
        k(   12) = (   0.0416667   0.2083333   0.2083333), wk =   0.0138889
        k(   13) = (   0.0416667   0.2083333   0.2916667), wk =   0.0277778
        k(   14) = (   0.0416667   0.2083333   0.3750000), wk =   0.0277778
        k(   15) = (   0.0416667   0.2083333   0.4583333), wk =   0.0277778
        k(   16) = (   0.0416667   0.2916667   0.2916667), wk =   0.0138889
        k(   17) = (   0.0416667   0.2916667   0.3750000), wk =   0.0277778
        k(   18) = (   0.0416667   0.2916667   0.4583333), wk =   0.0277778
        k(   19) = (   0.0416667   0.3750000   0.3750000), wk =   0.0138889
        k(   20) = (   0.0416667   0.3750000   0.4583333), wk =   0.0277778
        k(   21) = (   0.0416667   0.4583333   0.4583333), wk =   0.0138889
        k(   22) = (   0.1250000   0.1250000   0.1250000), wk =   0.0046296
        k(   23) = (   0.1250000   0.1250000   0.2083333), wk =   0.0138889
        k(   24) = (   0.1250000   0.1250000   0.2916667), wk =   0.0138889
        k(   25) = (   0.1250000   0.1250000   0.3750000), wk =   0.0138889
        k(   26) = (   0.1250000   0.1250000   0.4583333), wk =   0.0138889
        k(   27) = (   0.1250000   0.2083333   0.2083333), wk =   0.0138889
        k(   28) = (   0.1250000   0.2083333   0.2916667), wk =   0.0277778
        k(   29) = (   0.1250000   0.2083333   0.3750000), wk =   0.0277778
        k(   30) = (   0.1250000   0.2083333   0.4583333), wk =   0.0277778
        k(   31) = (   0.1250000   0.2916667   0.2916667), wk =   0.0138889
        k(   32) = (   0.1250000   0.2916667   0.3750000), wk =   0.0277778
        k(   33) = (   0.1250000   0.2916667   0.4583333), wk =   0.0277778
        k(   34) = (   0.1250000   0.3750000   0.3750000), wk =   0.0138889
        k(   35) = (   0.1250000   0.3750000   0.4583333), wk =   0.0277778
        k(   36) = (   0.1250000   0.4583333   0.4583333), wk =   0.0138889
        k(   37) = (   0.2083333   0.2083333   0.2083333), wk =   0.0046296
        k(   38) = (   0.2083333   0.2083333   0.2916667), wk =   0.0138889
        k(   39) = (   0.2083333   0.2083333   0.3750000), wk =   0.0138889
        k(   40) = (   0.2083333   0.2083333   0.4583333), wk =   0.0138889
        k(   41) = (   0.2083333   0.2916667   0.2916667), wk =   0.0138889
        k(   42) = (   0.2083333   0.2916667   0.3750000), wk =   0.0277778
        k(   43) = (   0.2083333   0.2916667   0.4583333), wk =   0.0277778
        k(   44) = (   0.2083333   0.3750000   0.3750000), wk =   0.0138889
        k(   45) = (   0.2083333   0.3750000   0.4583333), wk =   0.0277778
        k(   46) = (   0.2083333   0.4583333   0.4583333), wk =   0.0138889
        k(   47) = (   0.2916667   0.2916667   0.2916667), wk =   0.0046296
        k(   48) = (   0.2916667   0.2916667   0.3750000), wk =   0.0138889
        k(   49) = (   0.2916667   0.2916667   0.4583333), wk =   0.0138889
        k(   50) = (   0.2916667   0.3750000   0.3750000), wk =   0.0138889
        k(   51) = (   0.2916667   0.3750000   0.4583333), wk =   0.0277778
        k(   52) = (   0.2916667   0.4583333   0.4583333), wk =   0.0138889
        k(   53) = (   0.3750000   0.3750000   0.3750000), wk =   0.0046296
        k(   54) = (   0.3750000   0.3750000   0.4583333), wk =   0.0138889
        k(   55) = (   0.3750000   0.4583333   0.4583333), wk =   0.0138889
        k(   56) = (   0.4583333   0.4583333   0.4583333), wk =   0.0046296

     Dense  grid:    63461 G-vectors     FFT dimensions: (  50,  50,  50)

     Smooth grid:    16135 G-vectors     FFT dimensions: (  32,  32,  32)

     Estimated max dynamical RAM per process >      55.15 MB

     Estimated total dynamical RAM >     330.93 MB
     Generating pointlists ...
     new r_m :   0.3572 (alat units)  1.9645 (a.u.) for type    1
     new r_m :   0.3572 (alat units)  1.9645 (a.u.) for type    2

     Check: negative core charge=   -0.000002

     Initial potential from superposition of free atoms

     starting charge   27.99845, renormalised to   28.00000
     Starting wfcs are   20 randomized atomic wfcs

     total cpu time spent up to now is        2.5 secs

     Self-consistent Calculation

     iteration #  1     ecut=    80.00 Ry     beta= 0.70
     Davidson diagonalization with overlap
     ethr =  1.00E-02,  avg # of iterations =  2.4

     Threshold (ethr) on eigenvalues was too large:
     Diagonalizing with lowered threshold

     Davidson diagonalization with overlap
     ethr =  6.26E-04,  avg # of iterations =  2.4

     total cpu time spent up to now is        6.6 secs

     total energy              =    -349.90382656 Ry
     Harris-Foulkes estimate   =    -350.02672815 Ry
     estimated scf accuracy    <       0.18798890 Ry

     total magnetization       =    -0.00 Bohr mag/cell
     absolute magnetization    =     2.17 Bohr mag/cell

     iteration #  2     ecut=    80.00 Ry     beta= 0.70
     Davidson diagonalization with overlap
     ethr =  6.71E-04,  avg # of iterations =  3.1

     total cpu time spent up to now is        9.6 secs

     total energy              =    -349.93390019 Ry
     Harris-Foulkes estimate   =    -350.05481759 Ry
     estimated scf accuracy    <       0.26394630 Ry

     total magnetization       =     0.00 Bohr mag/cell
     absolute magnetization    =     2.74 Bohr mag/cell

     iteration #  3     ecut=    80.00 Ry     beta= 0.70
     Davidson diagonalization with overlap
     ethr =  6.71E-04,  avg # of iterations =  3.0

     total cpu time spent up to now is       11.9 secs

     total energy              =    -349.98706925 Ry
     Harris-Foulkes estimate   =    -349.98748797 Ry
     estimated scf accuracy    <       0.00229421 Ry

     total magnetization       =     0.00 Bohr mag/cell
     absolute magnetization    =     2.49 Bohr mag/cell

     iteration #  4     ecut=    80.00 Ry     beta= 0.70
     Davidson diagonalization with overlap
     ethr =  8.19E-06,  avg # of iterations =  4.0

     total cpu time spent up to now is       15.5 secs

     total energy              =    -349.98074363 Ry
     Harris-Foulkes estimate   =    -349.99630921 Ry
     estimated scf accuracy    <       0.16561682 Ry

     total magnetization       =    -0.01 Bohr mag/cell
     absolute magnetization    =     2.53 Bohr mag/cell

     iteration #  5     ecut=    80.00 Ry     beta= 0.70
     Davidson diagonalization with overlap
     ethr =  8.19E-06,  avg # of iterations =  4.0

     total cpu time spent up to now is       18.5 secs

     total energy              =    -349.98859235 Ry
     Harris-Foulkes estimate   =    -349.98852010 Ry
     estimated scf accuracy    <       0.00012841 Ry

     total magnetization       =     0.00 Bohr mag/cell
     absolute magnetization    =     2.60 Bohr mag/cell

     iteration #  6     ecut=    80.00 Ry     beta= 0.70
     Davidson diagonalization with overlap
     ethr =  4.59E-07,  avg # of iterations =  3.0

     total cpu time spent up to now is       20.6 secs

     total energy              =    -349.98850305 Ry
     Harris-Foulkes estimate   =    -349.98861549 Ry
     estimated scf accuracy    <       0.00008756 Ry

     total magnetization       =    -0.00 Bohr mag/cell
     absolute magnetization    =     2.64 Bohr mag/cell

     iteration #  7     ecut=    80.00 Ry     beta= 0.70
     Davidson diagonalization with overlap
     ethr =  3.13E-07,  avg # of iterations =  4.3

     total cpu time spent up to now is       23.5 secs

     total energy              =    -349.98860870 Ry
     Harris-Foulkes estimate   =    -349.98891670 Ry
     estimated scf accuracy    <       0.00003596 Ry

     total magnetization       =     0.00 Bohr mag/cell
     absolute magnetization    =     2.84 Bohr mag/cell

     iteration #  8     ecut=    80.00 Ry     beta= 0.70
     Davidson diagonalization with overlap
     ethr =  1.28E-07,  avg # of iterations =  4.6

     Magnetic moment per site:
     atom:    1    charge:   12.2778    magn:    1.4115    constr:    0.0000
     atom:    2    charge:   12.2783    magn:   -1.4116    constr:    0.0000

     total cpu time spent up to now is       26.6 secs

     End of self-consistent calculation

     Number of k-points >= 100: set verbosity='high' to print the bands.

     the Fermi energy is    18.1377 ev

!    total energy              =    -349.98901795 Ry
     Harris-Foulkes estimate   =    -349.98901727 Ry
     estimated scf accuracy    <       0.00000070 Ry

     The total energy is the sum of the following terms:

     one-electron contribution =    -121.59821048 Ry
     hartree contribution      =      75.59904621 Ry
     xc contribution           =     -44.56898906 Ry
     ewald contribution        =    -259.42040003 Ry
     smearing contrib. (-TS)   =      -0.00046459 Ry

     total magnetization       =    -0.00 Bohr mag/cell
     absolute magnetization    =     3.03 Bohr mag/cell

     convergence has been achieved in   8 iterations

     Writing output data file degauss-0.01.save/

     init_run     :      1.10s CPU      1.14s WALL (       1 calls)
     electrons    :     23.65s CPU     24.11s WALL (       1 calls)

     Called by init_run:
     wfcinit      :      0.67s CPU      0.68s WALL (       1 calls)
     potinit      :      0.06s CPU      0.06s WALL (       1 calls)
     hinit0       :      0.24s CPU      0.24s WALL (       1 calls)

     Called by electrons:
     c_bands      :     19.91s CPU     20.29s WALL (       9 calls)
     sum_band     :      2.93s CPU      3.00s WALL (       9 calls)
     v_of_rho     :      0.30s CPU      0.31s WALL (       9 calls)
     newd         :      0.54s CPU      0.57s WALL (       9 calls)
     mix_rho      :      0.02s CPU      0.03s WALL (       9 calls)

     Called by c_bands:
     init_us_2    :      0.30s CPU      0.30s WALL (    2128 calls)
     cegterg      :     18.79s CPU     19.15s WALL (    1008 calls)

     Called by sum_band:
     sum_band:bec :      0.02s CPU      0.02s WALL (    1008 calls)
     addusdens    :      0.93s CPU      0.93s WALL (       9 calls)

     Called by *egterg:
     h_psi        :     10.00s CPU     10.21s WALL (    4579 calls)
     s_psi        :      1.10s CPU      1.13s WALL (    4579 calls)
     g_psi        :      0.10s CPU      0.10s WALL (    3459 calls)
     cdiaghg      :      2.85s CPU      2.89s WALL (    4355 calls)

     Called by h_psi:
     h_psi:pot    :      9.95s CPU     10.16s WALL (    4579 calls)
     h_psi:calbec :      1.50s CPU      1.54s WALL (    4579 calls)
     vloc_psi     :      7.34s CPU      7.47s WALL (    4579 calls)
     add_vuspsi   :      1.11s CPU      1.14s WALL (    4579 calls)

     General routines
     calbec       :      1.98s CPU      2.05s WALL (    5587 calls)
     fft          :      0.14s CPU      0.14s WALL (     221 calls)
     ffts         :      0.01s CPU      0.01s WALL (      36 calls)
     fftw         :      7.42s CPU      7.58s WALL (  124590 calls)
     interpolate  :      0.01s CPU      0.01s WALL (      18 calls)

     Parallel routines
     fft_scatt_xy :      0.97s CPU      1.00s WALL (  124847 calls)
     fft_scatt_yz :      3.77s CPU      3.85s WALL (  124847 calls)

     PWSCF        :     26.22s CPU     26.79s WALL


   This run was terminated on:  23:58:26   9Mar2022            

=------------------------------------------------------------------------------=
   JOB DONE.
=------------------------------------------------------------------------------=
