
     Program PWSCF v.6.4.1 starts on 19Oct2022 at 21:18:24 

     This program is part of the open-source Quantum ESPRESSO suite
     for quantum simulation of materials; please cite
         "P. Giannozzi et al., J. Phys.:Condens. Matter 21 395502 (2009);
         "P. Giannozzi et al., J. Phys.:Condens. Matter 29 465901 (2017);
          URL http://www.quantum-espresso.org", 
     in publications or presentations arising from this work. More details at
     http://www.quantum-espresso.org/quote

     Parallel version (MPI), running on     6 processors

     MPI processes distributed on     1 nodes
     R & G space division:  proc/nbgrp/npool/nimage =       6
     Reading input from v-vcrelax.in

     Current dimensions of program PWSCF are:
     Max number of different atomic species (ntypx) = 10
     Max number of k-points (npk) =  40000
     Max angular momentum in pseudopotentials (lmaxx) =  3

     IMPORTANT: XC functional enforced from input :
     Exchange-correlation      = RVV10 ( 1  4 13  4 3 0)
     Any further DFT definition will be discarded
     Please, verify this is what you really want

               file H.pbe-rrkjus.UPF: wavefunction(s)  1S renormalized
               file V.pbe-spnl-rrkjus_psl.1.0.0.UPF: wavefunction(s)  3P 3D renormalized

     Subspace diagonalization in iterative solution of the eigenvalue problem:
     a serial algorithm will be used


     Parallelization info
     --------------------
     sticks:   dense  smooth     PW     G-vecs:    dense   smooth      PW
     Min        3051    1746    432               270999   117096   14629
     Max        3053    1747    437               271001   117099   14630
     Sum       18313   10477   2611              1626001   702581   87777



     bravais-lattice index     =            4
     lattice parameter (alat)  =      23.2937  a.u.
     unit-cell volume          =    8879.8548 (a.u.)^3
     number of atoms/cell      =           52
     number of atomic types    =            3
     number of electrons       =       211.00
     number of Kohn-Sham states=          127
     kinetic-energy cutoff     =      70.0000  Ry
     charge density cutoff     =     490.0000  Ry
     convergence threshold     =      1.0E-10
     mixing beta               =       0.3000
     number of iterations used =            4  plain     mixing
     Exchange-correlation      = RVV10 ( 1  4 13  4 3 0)
     nstep                     =           50


     celldm(1)=  23.293684  celldm(2)=   0.000000  celldm(3)=   0.811261
     celldm(4)=   0.000000  celldm(5)=   0.000000  celldm(6)=   0.000000

     crystal axes: (cart. coord. in units of alat)
               a(1) = (   1.000000   0.000000   0.000000 )  
               a(2) = (  -0.500000   0.866025   0.000000 )  
               a(3) = (   0.000000   0.000000   0.811261 )  

     reciprocal axes: (cart. coord. in units 2 pi/alat)
               b(1) = (  1.000000  0.577350 -0.000000 )  
               b(2) = (  0.000000  1.154701  0.000000 )  
               b(3) = (  0.000000 -0.000000  1.232649 )  


     PseudoPot. # 1 for H  read from file:
     /home/cristian/Escritorio/Proyecto_Grafeno/pseudopotenciales/H.pbe-rrkjus.UPF
     MD5 check sum: 7cc9d459525c9a0585f487a71c3c9563
     Pseudo is Ultrasoft, Zval =  1.0
     Generated by new atomic code, or converted to UPF format
     Using radial grid of 1061 points,  2 beta functions with: 
                l(1) =   0
                l(2) =   0
     Q(r) pseudized with 0 coefficients 


     PseudoPot. # 2 for C  read from file:
     /home/cristian/Escritorio/Proyecto_Grafeno/pseudopotenciales/C.pbe-n-rrkjus_psl.1.0.0.UPF
     MD5 check sum: 1fdd950c42eb37d8afe3dd2f8d12311e
     Pseudo is Ultrasoft + core correction, Zval =  4.0
     Generated using "atomic" code by A. Dal Corso v.6.3MaX
     Using radial grid of 1073 points,  4 beta functions with: 
                l(1) =   0
                l(2) =   0
                l(3) =   1
                l(4) =   1
     Q(r) pseudized with 0 coefficients 


     PseudoPot. # 3 for V  read from file:
     /home/cristian/Escritorio/Proyecto_Grafeno/pseudopotenciales/V.pbe-spnl-rrkjus_psl.1.0.0.UPF
     MD5 check sum: 79b3eb63147daf0b665d9f1bcc691206
     Pseudo is Ultrasoft + core correction, Zval = 13.0
     Generated using "atomic" code by A. Dal Corso v.6.2.2
     Using radial grid of 1181 points,  6 beta functions with: 
                l(1) =   0
                l(2) =   0
                l(3) =   1
                l(4) =   1
                l(5) =   2
                l(6) =   2
     Q(r) pseudized with 0 coefficients 


     vdW kernel table read from file rVV10_kernel_table
     MD5 check sum: b8e2538accc0c0b3206b45ba4daaba6c

     atomic species   valence    mass     pseudopotential
        H              1.00     1.00794     H ( 1.00)
        C              4.00    12.01070     C ( 1.00)
        V             13.00    50.94150     V ( 1.00)

     Starting magnetic structure 
     atomic species   magnetization
        H            0.500
        C            0.300
        V            0.800

      2 Sym. Ops. (no inversion) found


                                    s                        frac. trans.

      isym =  1     identity                                     

 cryst.   s( 1) = (     1          0          0      )
                  (     0          1          0      )
                  (     0          0          1      )

 cart.    s( 1) = (  1.0000000  0.0000000  0.0000000 )
                  (  0.0000000  1.0000000  0.0000000 )
                  (  0.0000000  0.0000000  1.0000000 )


      isym =  2     inv. 180 deg rotation - cryst. axis [1,1,0]  

 cryst.   s( 2) = (     0         -1          0      )
                  (    -1          0          0      )
                  (     0          0          1      )

 cart.    s( 2) = (  0.5000000 -0.8660254  0.0000000 )
                  ( -0.8660254 -0.5000000  0.0000000 )
                  (  0.0000000  0.0000000  1.0000000 )


     point group C_s (m)    
     there are  2 classes
     the character table:

       E     s    
A'     1.00  1.00
A''    1.00 -1.00

     the symmetry operations in each class and the name of the first element:

     E        1
          identity                                               
     s        2
          inv. 180 deg rotation - cryst. axis [1,1,0]            

   Cartesian axes

     site n.     atom                  positions (alat units)
         1           H   tau(   1) = (   0.2000000   0.4618802   0.1703648  )
         2           H   tau(   2) = (   0.2000000   0.4618802   0.2313775  )
         3           C   tau(   3) = (   0.0000000   0.0000000   0.0000000  )
         4           C   tau(   4) = (   0.0000000   0.1154701   0.0000000  )
         5           C   tau(   5) = (  -0.1000000   0.1732051   0.0000000  )
         6           C   tau(   6) = (  -0.1000000   0.2886751   0.0000000  )
         7           C   tau(   7) = (  -0.2000000   0.3464102   0.0000000  )
         8           C   tau(   8) = (  -0.2000000   0.4618802   0.0000000  )
         9           C   tau(   9) = (  -0.3000000   0.5196152   0.0000000  )
        10           C   tau(  10) = (  -0.3000000   0.6350853   0.0000000  )
        11           C   tau(  11) = (  -0.4000000   0.6928203   0.0000000  )
        12           C   tau(  12) = (  -0.4000000   0.8082904   0.0000000  )
        13           C   tau(  13) = (   0.2000000   0.0000000   0.0000000  )
        14           C   tau(  14) = (   0.2000000   0.1154701   0.0000000  )
        15           C   tau(  15) = (   0.1000000   0.1732051   0.0000000  )
        16           C   tau(  16) = (   0.1000000   0.2886751   0.0000000  )
        17           C   tau(  17) = (   0.0000000   0.3464102   0.0000000  )
        18           C   tau(  18) = (   0.0000000   0.4618802   0.0000000  )
        19           C   tau(  19) = (  -0.1000000   0.5196152   0.0000000  )
        20           C   tau(  20) = (  -0.1000000   0.6350853   0.0000000  )
        21           C   tau(  21) = (  -0.2000000   0.6928203   0.0000000  )
        22           C   tau(  22) = (  -0.2000000   0.8082904   0.0000000  )
        23           C   tau(  23) = (   0.4000000   0.0000000   0.0000000  )
        24           C   tau(  24) = (   0.4000000   0.1154701   0.0000000  )
        25           C   tau(  25) = (   0.3000000   0.1732051   0.0000000  )
        26           C   tau(  26) = (   0.3000000   0.2886751   0.0000000  )
        27           C   tau(  27) = (   0.2000000   0.3464102   0.0000000  )
        28           V   tau(  28) = (   0.2000000   0.4618802   0.0000000  )
        29           C   tau(  29) = (   0.1000000   0.5196152   0.0000000  )
        30           C   tau(  30) = (   0.1000000   0.6350853   0.0000000  )
        31           C   tau(  31) = (   0.0000000   0.6928203   0.0000000  )
        32           C   tau(  32) = (   0.0000000   0.8082904   0.0000000  )
        33           C   tau(  33) = (   0.6000000   0.0000000   0.0000000  )
        34           C   tau(  34) = (   0.6000000   0.1154701   0.0000000  )
        35           C   tau(  35) = (   0.5000000   0.1732051   0.0000000  )
        36           C   tau(  36) = (   0.5000000   0.2886751   0.0000000  )
        37           C   tau(  37) = (   0.4000000   0.3464102   0.0000000  )
        38           C   tau(  38) = (   0.4000000   0.4618802   0.0000000  )
        39           C   tau(  39) = (   0.3000000   0.5196152   0.0000000  )
        40           C   tau(  40) = (   0.3000000   0.6350853   0.0000000  )
        41           C   tau(  41) = (   0.2000000   0.6928203   0.0000000  )
        42           C   tau(  42) = (   0.2000000   0.8082904   0.0000000  )
        43           C   tau(  43) = (   0.8000000   0.0000000   0.0000000  )
        44           C   tau(  44) = (   0.8000000   0.1154701   0.0000000  )
        45           C   tau(  45) = (   0.7000000   0.1732051   0.0000000  )
        46           C   tau(  46) = (   0.7000000   0.2886751   0.0000000  )
        47           C   tau(  47) = (   0.6000000   0.3464102   0.0000000  )
        48           C   tau(  48) = (   0.6000000   0.4618802   0.0000000  )
        49           C   tau(  49) = (   0.5000000   0.5196152   0.0000000  )
        50           C   tau(  50) = (   0.5000000   0.6350853   0.0000000  )
        51           C   tau(  51) = (   0.4000000   0.6928203   0.0000000  )
        52           C   tau(  52) = (   0.4000000   0.8082904   0.0000000  )

   Crystallographic axes

     site n.     atom                  positions (cryst. coord.)
         1           H   tau(   1) = (  0.4666667  0.5333333  0.2100000  )
         2           H   tau(   2) = (  0.4666667  0.5333333  0.2852072  )
         3           C   tau(   3) = (  0.0000000  0.0000000  0.0000000  )
         4           C   tau(   4) = (  0.0666667  0.1333333  0.0000000  )
         5           C   tau(   5) = (  0.0000000  0.2000000  0.0000000  )
         6           C   tau(   6) = (  0.0666667  0.3333333  0.0000000  )
         7           C   tau(   7) = (  0.0000000  0.4000000  0.0000000  )
         8           C   tau(   8) = (  0.0666667  0.5333333  0.0000000  )
         9           C   tau(   9) = (  0.0000000  0.6000000  0.0000000  )
        10           C   tau(  10) = (  0.0666667  0.7333333  0.0000000  )
        11           C   tau(  11) = (  0.0000000  0.8000000  0.0000000  )
        12           C   tau(  12) = (  0.0666667  0.9333333  0.0000000  )
        13           C   tau(  13) = (  0.2000000  0.0000000  0.0000000  )
        14           C   tau(  14) = (  0.2666667  0.1333333  0.0000000  )
        15           C   tau(  15) = (  0.2000000  0.2000000  0.0000000  )
        16           C   tau(  16) = (  0.2666667  0.3333333  0.0000000  )
        17           C   tau(  17) = (  0.2000000  0.4000000  0.0000000  )
        18           C   tau(  18) = (  0.2666667  0.5333333  0.0000000  )
        19           C   tau(  19) = (  0.2000000  0.6000000  0.0000000  )
        20           C   tau(  20) = (  0.2666667  0.7333333  0.0000000  )
        21           C   tau(  21) = (  0.2000000  0.8000000  0.0000000  )
        22           C   tau(  22) = (  0.2666667  0.9333333  0.0000000  )
        23           C   tau(  23) = (  0.4000000  0.0000000  0.0000000  )
        24           C   tau(  24) = (  0.4666667  0.1333333  0.0000000  )
        25           C   tau(  25) = (  0.4000000  0.2000000  0.0000000  )
        26           C   tau(  26) = (  0.4666667  0.3333333  0.0000000  )
        27           C   tau(  27) = (  0.4000000  0.4000000  0.0000000  )
        28           V   tau(  28) = (  0.4666667  0.5333333  0.0000000  )
        29           C   tau(  29) = (  0.4000000  0.6000000  0.0000000  )
        30           C   tau(  30) = (  0.4666667  0.7333333  0.0000000  )
        31           C   tau(  31) = (  0.4000000  0.8000000  0.0000000  )
        32           C   tau(  32) = (  0.4666667  0.9333333  0.0000000  )
        33           C   tau(  33) = (  0.6000000  0.0000000  0.0000000  )
        34           C   tau(  34) = (  0.6666667  0.1333333  0.0000000  )
        35           C   tau(  35) = (  0.6000000  0.2000000  0.0000000  )
        36           C   tau(  36) = (  0.6666667  0.3333333  0.0000000  )
        37           C   tau(  37) = (  0.6000000  0.4000000  0.0000000  )
        38           C   tau(  38) = (  0.6666667  0.5333333  0.0000000  )
        39           C   tau(  39) = (  0.6000000  0.6000000  0.0000000  )
        40           C   tau(  40) = (  0.6666667  0.7333333  0.0000000  )
        41           C   tau(  41) = (  0.6000000  0.8000000  0.0000000  )
        42           C   tau(  42) = (  0.6666667  0.9333333  0.0000000  )
        43           C   tau(  43) = (  0.8000000  0.0000000  0.0000000  )
        44           C   tau(  44) = (  0.8666667  0.1333333  0.0000000  )
        45           C   tau(  45) = (  0.8000000  0.2000000  0.0000000  )
        46           C   tau(  46) = (  0.8666667  0.3333333  0.0000000  )
        47           C   tau(  47) = (  0.8000000  0.4000000  0.0000000  )
        48           C   tau(  48) = (  0.8666667  0.5333333  0.0000000  )
        49           C   tau(  49) = (  0.8000000  0.6000000  0.0000000  )
        50           C   tau(  50) = (  0.8666667  0.7333333  0.0000000  )
        51           C   tau(  51) = (  0.8000000  0.8000000  0.0000000  )
        52           C   tau(  52) = (  0.8666667  0.9333333  0.0000000  )

     number of k points=     1  Marzari-Vanderbilt smearing, width (Ry)=  0.0010
                       cart. coord. in units 2pi/alat
        k(    1) = (   0.0000000   0.0000000   0.0000000), wk =   1.0000000

                       cryst. coord.
        k(    1) = (   0.0000000   0.0000000   0.0000000), wk =   1.0000000

     Dense  grid:  1626001 G-vectors     FFT dimensions: ( 180, 180, 135)

     Smooth grid:   702581 G-vectors     FFT dimensions: ( 125, 125, 108)

     Dynamical RAM for                 wfc:      28.36 MB

     Dynamical RAM for     wfc (w. buffer):      85.09 MB

     Dynamical RAM for           str. fact:      12.41 MB

     Dynamical RAM for           local pot:       0.00 MB

     Dynamical RAM for          nlocal pot:      92.46 MB

     Dynamical RAM for                qrad:      19.73 MB

     Dynamical RAM for          rho,v,vnew:      58.92 MB

     Dynamical RAM for               rhoin:      19.64 MB

     Dynamical RAM for            rho*nmix:      66.16 MB

     Dynamical RAM for           G-vectors:      16.40 MB

     Dynamical RAM for          h,s,v(r/c):      11.81 MB

     Dynamical RAM for          <psi|beta>:       0.80 MB

     Dynamical RAM for                 psi:     113.46 MB

     Dynamical RAM for                hpsi:     113.46 MB

     Dynamical RAM for                spsi:     113.46 MB

     Dynamical RAM for      wfcinit/wfcrot:      93.90 MB

     Dynamical RAM for           addusdens:     975.89 MB

     Dynamical RAM for          addusforce:    1410.48 MB

     Estimated static dynamical RAM per process >     421.47 MB

     Estimated max dynamical RAM per process >       1.79 GB

     Estimated total dynamical RAM >      10.73 GB
     Generating pointlists ...
     new r_m :   0.0252 (alat units)  0.5862 (a.u.) for type    1
     new r_m :   0.0476 (alat units)  1.1095 (a.u.) for type    2
     new r_m :   0.0476 (alat units)  1.1095 (a.u.) for type    3

     Check: negative core charge=   -0.000002

     Initial potential from superposition of free atoms

     starting charge  210.80465, renormalised to  211.00000

     negative rho (up, down):  1.288E-04 1.735E-02


---------------------------------------------------------------------------------
Carrying out rVV10 run using the following parameters:
Nqs =      20    Nr_points =    1024   r_max =   100.000
b_value =  6.30000    beta =  0.00901
     q_mesh =  0.00010000  0.00030000  0.00058939  0.00100810
               0.00161396  0.00249058  0.00375900  0.00559430
               0.00824984  0.01209221  0.01765183  0.02569619
               0.03733578  0.05417739  0.07854596  0.11380545
               0.16482331  0.23864234  0.34545298  0.50000000

Gradients computed in Reciprocal space

---------------------------------------------------------------------------------


     Starting wfcs are  208 randomized atomic wfcs

     total cpu time spent up to now is       71.8 secs

     Self-consistent Calculation

     iteration #  1     ecut=    70.00 Ry     beta= 0.30
     Davidson diagonalization with overlap
     ethr =  1.00E-02,  avg # of iterations =  3.0

     negative rho (up, down):  1.608E-04 1.515E-02

     total cpu time spent up to now is      202.5 secs

     total energy              =    -754.63426083 Ry
     Harris-Foulkes estimate   =    -757.09064610 Ry
     estimated scf accuracy    <      12.52559515 Ry

     total magnetization       =     5.00 Bohr mag/cell
     absolute magnetization    =     6.03 Bohr mag/cell

     iteration #  2     ecut=    70.00 Ry     beta= 0.30
     Davidson diagonalization with overlap
     ethr =  5.94E-03,  avg # of iterations =  6.5

     negative rho (up, down):  1.410E-03 8.090E-02

     total cpu time spent up to now is      301.6 secs

     total energy              =    -754.43162069 Ry
     Harris-Foulkes estimate   =    -757.53484944 Ry
     estimated scf accuracy    <      15.79054144 Ry

     total magnetization       =     9.00 Bohr mag/cell
     absolute magnetization    =     9.07 Bohr mag/cell

     iteration #  3     ecut=    70.00 Ry     beta= 0.30
     Davidson diagonalization with overlap
     ethr =  5.94E-03,  avg # of iterations =  3.0

     negative rho (up, down):  5.851E-03 9.169E-02

     total cpu time spent up to now is      396.3 secs

     total energy              =    -756.50084224 Ry
     Harris-Foulkes estimate   =    -756.56845122 Ry
     estimated scf accuracy    <       3.87761377 Ry

     total magnetization       =     5.00 Bohr mag/cell
     absolute magnetization    =     5.66 Bohr mag/cell

     iteration #  4     ecut=    70.00 Ry     beta= 0.30
     Davidson diagonalization with overlap
     ethr =  1.84E-03,  avg # of iterations =  4.0

     negative rho (up, down):  5.916E-03 1.030E-01

     total cpu time spent up to now is      496.6 secs

     total energy              =    -757.16509565 Ry
     Harris-Foulkes estimate   =    -757.04981168 Ry
     estimated scf accuracy    <       0.26570654 Ry

     total magnetization       =     3.00 Bohr mag/cell
     absolute magnetization    =     3.41 Bohr mag/cell

     iteration #  5     ecut=    70.00 Ry     beta= 0.30
     Davidson diagonalization with overlap
     c_bands:  1 eigenvalues not converged
     ethr =  1.26E-04,  avg # of iterations = 15.5

     negative rho (up, down):  6.014E-02 8.388E-03

     total cpu time spent up to now is      605.1 secs

     total energy              =    -757.26821073 Ry
     Harris-Foulkes estimate   =    -757.18249617 Ry
     estimated scf accuracy    <       0.11847408 Ry

     total magnetization       =     3.00 Bohr mag/cell
     absolute magnetization    =     3.35 Bohr mag/cell

     iteration #  6     ecut=    70.00 Ry     beta= 0.30
     Davidson diagonalization with overlap
     ethr =  5.61E-05,  avg # of iterations =  3.5

     negative rho (up, down):  3.004E-02 1.577E-02

     total cpu time spent up to now is      705.3 secs

     total energy              =    -757.29758922 Ry
     Harris-Foulkes estimate   =    -757.30128794 Ry
     estimated scf accuracy    <       0.07831432 Ry

     total magnetization       =     1.00 Bohr mag/cell
     absolute magnetization    =     1.63 Bohr mag/cell

     iteration #  7     ecut=    70.00 Ry     beta= 0.30
     Davidson diagonalization with overlap
     ethr =  3.71E-05,  avg # of iterations =  2.5

     negative rho (up, down):  2.539E-02 1.501E-02

     total cpu time spent up to now is      799.5 secs

     total energy              =    -757.30874260 Ry
     Harris-Foulkes estimate   =    -757.30441127 Ry
     estimated scf accuracy    <       0.04934050 Ry

     total magnetization       =     1.00 Bohr mag/cell
     absolute magnetization    =     1.63 Bohr mag/cell

     iteration #  8     ecut=    70.00 Ry     beta= 0.30
     Davidson diagonalization with overlap
     ethr =  2.34E-05,  avg # of iterations =  3.5

     negative rho (up, down):  3.920E-02 1.108E-02

     total cpu time spent up to now is      894.7 secs

     total energy              =    -757.31985247 Ry
     Harris-Foulkes estimate   =    -757.31453533 Ry
     estimated scf accuracy    <       0.03215205 Ry

     total magnetization       =     1.00 Bohr mag/cell
     absolute magnetization    =     1.58 Bohr mag/cell

     iteration #  9     ecut=    70.00 Ry     beta= 0.30
     Davidson diagonalization with overlap
     ethr =  1.52E-05,  avg # of iterations = 11.0

     negative rho (up, down):  3.726E-02 1.018E-02

     total cpu time spent up to now is      996.6 secs

     total energy              =    -757.32483621 Ry
     Harris-Foulkes estimate   =    -757.32253092 Ry
     estimated scf accuracy    <       0.00339238 Ry

     total magnetization       =     1.00 Bohr mag/cell
     absolute magnetization    =     1.51 Bohr mag/cell

     iteration # 10     ecut=    70.00 Ry     beta= 0.30
     Davidson diagonalization with overlap
     ethr =  1.61E-06,  avg # of iterations =  7.0

     negative rho (up, down):  3.974E-02 1.051E-02

     total cpu time spent up to now is     1100.2 secs

     total energy              =    -757.32626368 Ry
     Harris-Foulkes estimate   =    -757.32531167 Ry
     estimated scf accuracy    <       0.00171987 Ry

     total magnetization       =     1.00 Bohr mag/cell
     absolute magnetization    =     1.48 Bohr mag/cell

     iteration # 11     ecut=    70.00 Ry     beta= 0.30
     Davidson diagonalization with overlap
     ethr =  8.15E-07,  avg # of iterations =  3.5

     negative rho (up, down):  4.367E-02 8.358E-03

     total cpu time spent up to now is     1207.9 secs

     total energy              =    -757.32663073 Ry
     Harris-Foulkes estimate   =    -757.32652478 Ry
     estimated scf accuracy    <       0.00062359 Ry

     total magnetization       =     1.00 Bohr mag/cell
     absolute magnetization    =     1.46 Bohr mag/cell

     iteration # 12     ecut=    70.00 Ry     beta= 0.30
     Davidson diagonalization with overlap
     ethr =  2.96E-07,  avg # of iterations =  4.0

     negative rho (up, down):  4.105E-02 7.317E-03

     total cpu time spent up to now is     1322.0 secs

     total energy              =    -757.32758101 Ry
     Harris-Foulkes estimate   =    -757.32674509 Ry
     estimated scf accuracy    <       0.00019277 Ry

     total magnetization       =     1.00 Bohr mag/cell
     absolute magnetization    =     1.46 Bohr mag/cell

     iteration # 13     ecut=    70.00 Ry     beta= 0.30
     Davidson diagonalization with overlap
     ethr =  9.14E-08,  avg # of iterations =  3.5

     negative rho (up, down):  3.882E-02 7.304E-03

     total cpu time spent up to now is     1426.2 secs

     total energy              =    -757.32825190 Ry
     Harris-Foulkes estimate   =    -757.32760732 Ry
     estimated scf accuracy    <       0.00015143 Ry

     total magnetization       =     1.00 Bohr mag/cell
     absolute magnetization    =     1.47 Bohr mag/cell

     iteration # 14     ecut=    70.00 Ry     beta= 0.30
     Davidson diagonalization with overlap
     ethr =  7.18E-08,  avg # of iterations =  3.0

     negative rho (up, down):  3.752E-02 7.755E-03

     total cpu time spent up to now is     1520.6 secs

     total energy              =    -757.32870384 Ry
     Harris-Foulkes estimate   =    -757.32826696 Ry
     estimated scf accuracy    <       0.00004454 Ry

     total magnetization       =     1.00 Bohr mag/cell
     absolute magnetization    =     1.47 Bohr mag/cell

     iteration # 15     ecut=    70.00 Ry     beta= 0.30
     Davidson diagonalization with overlap
     ethr =  2.11E-08,  avg # of iterations =  3.0

     negative rho (up, down):  3.613E-02 8.013E-03

     total cpu time spent up to now is     1613.2 secs

     total energy              =    -757.32915387 Ry
     Harris-Foulkes estimate   =    -757.32871114 Ry
     estimated scf accuracy    <       0.00000506 Ry

     total magnetization       =     1.00 Bohr mag/cell
     absolute magnetization    =     1.49 Bohr mag/cell

     iteration # 16     ecut=    70.00 Ry     beta= 0.30
     Davidson diagonalization with overlap
     ethr =  2.40E-09,  avg # of iterations =  4.0

     negative rho (up, down):  3.509E-02 8.048E-03

     total cpu time spent up to now is     1725.3 secs

     total energy              =    -757.32952992 Ry
     Harris-Foulkes estimate   =    -757.32915614 Ry
     estimated scf accuracy    <       0.00000198 Ry

     total magnetization       =     1.00 Bohr mag/cell
     absolute magnetization    =     1.49 Bohr mag/cell

     iteration # 17     ecut=    70.00 Ry     beta= 0.30
     Davidson diagonalization with overlap
     ethr =  9.37E-10,  avg # of iterations =  4.0

     negative rho (up, down):  3.450E-02 7.908E-03

     total cpu time spent up to now is     1844.2 secs

     total energy              =    -757.32981475 Ry
     Harris-Foulkes estimate   =    -757.32953132 Ry
     estimated scf accuracy    <       0.00000124 Ry

     total magnetization       =     1.00 Bohr mag/cell
     absolute magnetization    =     1.50 Bohr mag/cell

     iteration # 18     ecut=    70.00 Ry     beta= 0.30
     Davidson diagonalization with overlap
     ethr =  5.90E-10,  avg # of iterations =  4.0

     negative rho (up, down):  3.424E-02 7.135E-03

     total cpu time spent up to now is     1972.8 secs

     total energy              =    -757.32998168 Ry
     Harris-Foulkes estimate   =    -757.32981548 Ry
     estimated scf accuracy    <       0.00000072 Ry

     total magnetization       =     1.00 Bohr mag/cell
     absolute magnetization    =     1.51 Bohr mag/cell

     iteration # 19     ecut=    70.00 Ry     beta= 0.30
     Davidson diagonalization with overlap
     ethr =  3.41E-10,  avg # of iterations =  4.0

     negative rho (up, down):  3.399E-02 6.558E-03

     total cpu time spent up to now is     2113.6 secs

     total energy              =    -757.33010570 Ry
     Harris-Foulkes estimate   =    -757.32998243 Ry
     estimated scf accuracy    <       0.00000070 Ry

     total magnetization       =     1.00 Bohr mag/cell
     absolute magnetization    =     1.52 Bohr mag/cell

     iteration # 20     ecut=    70.00 Ry     beta= 0.30
     Davidson diagonalization with overlap
     ethr =  3.30E-10,  avg # of iterations =  3.0

     negative rho (up, down):  3.386E-02 5.224E-03

     total cpu time spent up to now is     2218.8 secs

     total energy              =    -757.33018040 Ry
     Harris-Foulkes estimate   =    -757.33010587 Ry
     estimated scf accuracy    <       0.00000075 Ry

     total magnetization       =     1.00 Bohr mag/cell
     absolute magnetization    =     1.52 Bohr mag/cell

     iteration # 21     ecut=    70.00 Ry     beta= 0.30
     Davidson diagonalization with overlap
     ethr =  3.30E-10,  avg # of iterations =  3.0

     negative rho (up, down):  3.380E-02 4.156E-03

     total cpu time spent up to now is     2325.7 secs

     total energy              =    -757.33021642 Ry
     Harris-Foulkes estimate   =    -757.33018054 Ry
     estimated scf accuracy    <       0.00000011 Ry

     total magnetization       =     1.00 Bohr mag/cell
     absolute magnetization    =     1.52 Bohr mag/cell

     iteration # 22     ecut=    70.00 Ry     beta= 0.30
     Davidson diagonalization with overlap
     ethr =  4.99E-11,  avg # of iterations =  4.0

     negative rho (up, down):  3.377E-02 3.402E-03

     total cpu time spent up to now is     2469.6 secs

     total energy              =    -757.33023759 Ry
     Harris-Foulkes estimate   =    -757.33021653 Ry
     estimated scf accuracy    <       0.00000006 Ry

     total magnetization       =     1.00 Bohr mag/cell
     absolute magnetization    =     1.53 Bohr mag/cell

     iteration # 23     ecut=    70.00 Ry     beta= 0.30
     Davidson diagonalization with overlap
     ethr =  2.89E-11,  avg # of iterations =  3.5

     negative rho (up, down):  3.374E-02 2.560E-03

     total cpu time spent up to now is     2611.8 secs

     total energy              =    -757.33025026 Ry
     Harris-Foulkes estimate   =    -757.33023766 Ry
     estimated scf accuracy    <       0.00000004 Ry

     total magnetization       =     1.00 Bohr mag/cell
     absolute magnetization    =     1.53 Bohr mag/cell

     iteration # 24     ecut=    70.00 Ry     beta= 0.30
     Davidson diagonalization with overlap
     ethr =  1.67E-11,  avg # of iterations =  3.0

     negative rho (up, down):  3.373E-02 2.199E-03

     total cpu time spent up to now is     2707.3 secs

     total energy              =    -757.33025692 Ry
     Harris-Foulkes estimate   =    -757.33025028 Ry
     estimated scf accuracy    <       0.00000003 Ry

     total magnetization       =     1.00 Bohr mag/cell
     absolute magnetization    =     1.53 Bohr mag/cell

     iteration # 25     ecut=    70.00 Ry     beta= 0.30
     Davidson diagonalization with overlap
     ethr =  1.41E-11,  avg # of iterations =  3.0

     negative rho (up, down):  3.372E-02 2.044E-03

     total cpu time spent up to now is     2807.6 secs

     total energy              =    -757.33026008 Ry
     Harris-Foulkes estimate   =    -757.33025693 Ry
     estimated scf accuracy    <       0.00000003 Ry

     total magnetization       =     1.00 Bohr mag/cell
     absolute magnetization    =     1.53 Bohr mag/cell

     iteration # 26     ecut=    70.00 Ry     beta= 0.30
     Davidson diagonalization with overlap
     ethr =  1.20E-11,  avg # of iterations =  3.0

     negative rho (up, down):  3.371E-02 1.938E-03

     total cpu time spent up to now is     2910.2 secs

     total energy              =    -757.33026182 Ry
     Harris-Foulkes estimate   =    -757.33026011 Ry
     estimated scf accuracy    <       0.00000063 Ry

     total magnetization       =     1.00 Bohr mag/cell
     absolute magnetization    =     1.53 Bohr mag/cell

     iteration # 27     ecut=    70.00 Ry     beta= 0.30
     Davidson diagonalization with overlap
     ethr =  1.20E-11,  avg # of iterations =  3.0

     negative rho (up, down):  3.371E-02 1.907E-03

     total cpu time spent up to now is     3006.3 secs

     total energy              =    -757.33026259 Ry
     Harris-Foulkes estimate   =    -757.33026184 Ry
     estimated scf accuracy    <       0.00000001 Ry

     total magnetization       =     1.00 Bohr mag/cell
     absolute magnetization    =     1.53 Bohr mag/cell

     iteration # 28     ecut=    70.00 Ry     beta= 0.30
     Davidson diagonalization with overlap
     ethr =  6.41E-12,  avg # of iterations =  2.5

     negative rho (up, down):  3.371E-02 1.865E-03

     total cpu time spent up to now is     3098.5 secs

     total energy              =    -757.33026292 Ry
     Harris-Foulkes estimate   =    -757.33026259 Ry
     estimated scf accuracy    <       0.00000002 Ry

     total magnetization       =     1.00 Bohr mag/cell
     absolute magnetization    =     1.53 Bohr mag/cell

     iteration # 29     ecut=    70.00 Ry     beta= 0.30
     Davidson diagonalization with overlap
     ethr =  6.41E-12,  avg # of iterations =  2.0

     negative rho (up, down):  3.370E-02 1.897E-03

     total cpu time spent up to now is     3189.8 secs

     total energy              =    -757.33026308 Ry
     Harris-Foulkes estimate   =    -757.33026293 Ry
     estimated scf accuracy    <       0.00000001 Ry

     total magnetization       =     1.00 Bohr mag/cell
     absolute magnetization    =     1.54 Bohr mag/cell

     iteration # 30     ecut=    70.00 Ry     beta= 0.30
     Davidson diagonalization with overlap
     ethr =  5.43E-12,  avg # of iterations =  3.0

     negative rho (up, down):  3.370E-02 1.933E-03

     total cpu time spent up to now is     3281.8 secs

     total energy              =    -757.33026316 Ry
     Harris-Foulkes estimate   =    -757.33026308 Ry
     estimated scf accuracy    <          5.7E-09 Ry

     total magnetization       =     1.00 Bohr mag/cell
     absolute magnetization    =     1.54 Bohr mag/cell

     iteration # 31     ecut=    70.00 Ry     beta= 0.30
     Davidson diagonalization with overlap
     ethr =  2.71E-12,  avg # of iterations =  3.0

     negative rho (up, down):  3.370E-02 1.890E-03

     total cpu time spent up to now is     3373.9 secs

     total energy              =    -757.33026318 Ry
     Harris-Foulkes estimate   =    -757.33026316 Ry
     estimated scf accuracy    <          6.0E-09 Ry

     total magnetization       =     1.00 Bohr mag/cell
     absolute magnetization    =     1.54 Bohr mag/cell

     iteration # 32     ecut=    70.00 Ry     beta= 0.30
     Davidson diagonalization with overlap
     ethr =  2.71E-12,  avg # of iterations =  3.5

     negative rho (up, down):  3.371E-02 1.871E-03

     total cpu time spent up to now is     3490.9 secs

     total energy              =    -757.33026319 Ry
     Harris-Foulkes estimate   =    -757.33026319 Ry
     estimated scf accuracy    <          5.8E-10 Ry

     total magnetization       =     1.00 Bohr mag/cell
     absolute magnetization    =     1.54 Bohr mag/cell

     iteration # 33     ecut=    70.00 Ry     beta= 0.30
     Davidson diagonalization with overlap
     ethr =  2.77E-13,  avg # of iterations =  3.0

     negative rho (up, down):  3.371E-02 1.887E-03

     total cpu time spent up to now is     3604.5 secs

     total energy              =    -757.33026319 Ry
     Harris-Foulkes estimate   =    -757.33026319 Ry
     estimated scf accuracy    <          2.6E-09 Ry

     total magnetization       =     1.00 Bohr mag/cell
     absolute magnetization    =     1.53 Bohr mag/cell

     iteration # 34     ecut=    70.00 Ry     beta= 0.30
     Davidson diagonalization with overlap
     ethr =  2.77E-13,  avg # of iterations =  3.0

     negative rho (up, down):  3.370E-02 1.889E-03

     total cpu time spent up to now is     3698.6 secs

     total energy              =    -757.33026320 Ry
     Harris-Foulkes estimate   =    -757.33026319 Ry
     estimated scf accuracy    <          3.2E-09 Ry

     total magnetization       =     1.00 Bohr mag/cell
     absolute magnetization    =     1.53 Bohr mag/cell

     iteration # 35     ecut=    70.00 Ry     beta= 0.30
     Davidson diagonalization with overlap
     ethr =  2.77E-13,  avg # of iterations =  3.0

     negative rho (up, down):  3.370E-02 1.843E-03

     total cpu time spent up to now is     3796.7 secs

     total energy              =    -757.33026320 Ry
     Harris-Foulkes estimate   =    -757.33026320 Ry
     estimated scf accuracy    <          1.9E-09 Ry

     total magnetization       =     1.00 Bohr mag/cell
     absolute magnetization    =     1.54 Bohr mag/cell

     iteration # 36     ecut=    70.00 Ry     beta= 0.30
     Davidson diagonalization with overlap
     ethr =  2.77E-13,  avg # of iterations =  4.0

     negative rho (up, down):  3.370E-02 1.857E-03

     total cpu time spent up to now is     3924.6 secs

     total energy              =    -757.33026320 Ry
     Harris-Foulkes estimate   =    -757.33026320 Ry
     estimated scf accuracy    <          2.3E-10 Ry

     total magnetization       =     1.00 Bohr mag/cell
     absolute magnetization    =     1.54 Bohr mag/cell

     iteration # 37     ecut=    70.00 Ry     beta= 0.30
     Davidson diagonalization with overlap
     ethr =  1.11E-13,  avg # of iterations =  3.0

     negative rho (up, down):  3.370E-02 1.840E-03

     total cpu time spent up to now is     4019.5 secs

     total energy              =    -757.33026320 Ry
     Harris-Foulkes estimate   =    -757.33026320 Ry
     estimated scf accuracy    <          1.3E-09 Ry

     total magnetization       =     1.00 Bohr mag/cell
     absolute magnetization    =     1.54 Bohr mag/cell

     iteration # 38     ecut=    70.00 Ry     beta= 0.30
     Davidson diagonalization with overlap
     ethr =  1.11E-13,  avg # of iterations =  4.5

     negative rho (up, down):  3.371E-02 1.862E-03

     total cpu time spent up to now is     4156.5 secs

     total energy              =    -757.33026320 Ry
     Harris-Foulkes estimate   =    -757.33026320 Ry
     estimated scf accuracy    <          5.4E-10 Ry

     total magnetization       =     1.00 Bohr mag/cell
     absolute magnetization    =     1.53 Bohr mag/cell

     iteration # 39     ecut=    70.00 Ry     beta= 0.30
     Davidson diagonalization with overlap
     ethr =  1.11E-13,  avg # of iterations =  4.0

     negative rho (up, down):  3.371E-02 1.859E-03

     total cpu time spent up to now is     4277.6 secs

     total energy              =    -757.33026320 Ry
     Harris-Foulkes estimate   =    -757.33026320 Ry
     estimated scf accuracy    <          1.3E-10 Ry

     total magnetization       =     1.00 Bohr mag/cell
     absolute magnetization    =     1.53 Bohr mag/cell

     iteration # 40     ecut=    70.00 Ry     beta= 0.30
     Davidson diagonalization with overlap
     ethr =  1.00E-13,  avg # of iterations =  6.5

     negative rho (up, down):  3.371E-02 1.853E-03

     Magnetic moment per site:
     atom:    1    charge:    0.2185    magn:   -0.0000    constr:    0.0000
     atom:    2    charge:    0.2040    magn:   -0.0001    constr:    0.0000
     atom:    3    charge:    1.7177    magn:   -0.0067    constr:    0.0000
     atom:    4    charge:    1.7157    magn:    0.0093    constr:    0.0000
     atom:    5    charge:    1.7183    magn:   -0.0041    constr:    0.0000
     atom:    6    charge:    1.7141    magn:    0.0025    constr:    0.0000
     atom:    7    charge:    1.7183    magn:   -0.0041    constr:    0.0000
     atom:    8    charge:    1.7157    magn:    0.0093    constr:    0.0000
     atom:    9    charge:    1.7177    magn:   -0.0067    constr:    0.0000
     atom:   10    charge:    1.7144    magn:    0.0309    constr:    0.0000
     atom:   11    charge:    1.7186    magn:   -0.0088    constr:    0.0000
     atom:   12    charge:    1.7144    magn:    0.0309    constr:    0.0000
     atom:   13    charge:    1.7186    magn:   -0.0088    constr:    0.0000
     atom:   14    charge:    1.7145    magn:    0.0231    constr:    0.0000
     atom:   15    charge:    1.7169    magn:   -0.0078    constr:    0.0000
     atom:   16    charge:    1.7111    magn:    0.0297    constr:    0.0000
     atom:   17    charge:    1.7269    magn:   -0.0051    constr:    0.0000
     atom:   18    charge:    1.7111    magn:    0.0297    constr:    0.0000
     atom:   19    charge:    1.7169    magn:   -0.0078    constr:    0.0000
     atom:   20    charge:    1.7145    magn:    0.0230    constr:    0.0000
     atom:   21    charge:    1.7186    magn:   -0.0088    constr:    0.0000
     atom:   22    charge:    1.7144    magn:    0.0309    constr:    0.0000
     atom:   23    charge:    1.7177    magn:   -0.0067    constr:    0.0000
     atom:   24    charge:    1.7157    magn:    0.0093    constr:    0.0000
     atom:   25    charge:    1.7169    magn:   -0.0078    constr:    0.0000
     atom:   26    charge:    1.7111    magn:    0.0297    constr:    0.0000
     atom:   27    charge:    1.9146    magn:   -0.0005    constr:    0.0000
     atom:   28    charge:    7.8613    magn:    0.1009    constr:    0.0000
     atom:   29    charge:    1.9146    magn:   -0.0005    constr:    0.0000
     atom:   30    charge:    1.7111    magn:    0.0297    constr:    0.0000
     atom:   31    charge:    1.7169    magn:   -0.0078    constr:    0.0000
     atom:   32    charge:    1.7157    magn:    0.0093    constr:    0.0000
     atom:   33    charge:    1.7183    magn:   -0.0041    constr:    0.0000
     atom:   34    charge:    1.7138    magn:    0.0068    constr:    0.0000
     atom:   35    charge:    1.7183    magn:   -0.0041    constr:    0.0000
     atom:   36    charge:    1.7141    magn:    0.0025    constr:    0.0000
     atom:   37    charge:    1.7269    magn:   -0.0051    constr:    0.0000
     atom:   38    charge:    1.7111    magn:    0.0297    constr:    0.0000
     atom:   39    charge:    1.9146    magn:   -0.0005    constr:    0.0000
     atom:   40    charge:    1.7111    magn:    0.0297    constr:    0.0000
     atom:   41    charge:    1.7269    magn:   -0.0051    constr:    0.0000
     atom:   42    charge:    1.7141    magn:    0.0025    constr:    0.0000
     atom:   43    charge:    1.7183    magn:   -0.0041    constr:    0.0000
     atom:   44    charge:    1.7138    magn:    0.0068    constr:    0.0000
     atom:   45    charge:    1.7246    magn:   -0.0030    constr:    0.0000
     atom:   46    charge:    1.7138    magn:    0.0068    constr:    0.0000
     atom:   47    charge:    1.7183    magn:   -0.0041    constr:    0.0000
     atom:   48    charge:    1.7157    magn:    0.0093    constr:    0.0000
     atom:   49    charge:    1.7169    magn:   -0.0078    constr:    0.0000
     atom:   50    charge:    1.7145    magn:    0.0231    constr:    0.0000
     atom:   51    charge:    1.7169    magn:   -0.0078    constr:    0.0000
     atom:   52    charge:    1.7157    magn:    0.0093    constr:    0.0000

     total cpu time spent up to now is     4393.8 secs

     End of self-consistent calculation

 ------ SPIN UP ------------


          k = 0.0000 0.0000 0.0000 ( 87777 PWs)   bands (ev):

   -62.7885 -37.8758 -37.8757 -36.5616 -19.6133 -18.7700 -18.7699 -18.7015
   -18.6541 -18.6541 -18.2162 -16.9147 -16.9139 -16.9139 -16.7767 -16.7767
   -16.4954 -16.0604 -16.0604 -15.9675 -15.8106 -15.8106 -15.0599 -13.8715
   -13.8647 -13.8647 -13.8409 -13.8409 -13.1116 -12.8951 -12.8951 -12.8777
   -12.4832 -12.4832 -12.0919 -11.6225 -11.6225 -11.4985 -11.1163 -11.1163
   -10.1323  -9.3129  -9.3129  -9.2330  -9.1597  -9.1597  -9.0711  -9.0465
    -9.0465  -9.0309  -8.4413  -8.4413  -8.1668  -7.8707  -7.8707  -7.8351
    -7.7169  -7.6540  -7.2322  -7.2322  -6.9416  -6.9416  -6.8705  -6.6792
    -6.6792  -6.6771  -6.5679  -6.5679  -6.5208  -6.4127  -6.4127  -6.3686
    -6.3643  -6.3643  -6.3119  -6.2063  -5.2379  -5.2379  -5.1377  -5.1377
    -4.9227  -4.9227  -4.8120  -4.7241  -4.5992  -4.5877  -4.5877  -4.2076
    -3.9657  -3.9657  -3.7387  -3.7387  -3.6384  -3.5891  -3.4768  -3.4768
    -2.8390  -2.2398  -2.2398  -2.1835  -2.1835  -1.7255  -1.6616  -1.6616
    -0.4892  -0.2188  -0.2187   1.0712   1.0736   1.1007   1.1007   1.8093
     2.0719   2.0719   2.4606   2.9164   2.9165   2.9964   3.4587   3.4687
     3.4687   3.7501   3.7502   3.7938   3.9202   4.0230   4.0230

     occupation numbers 
     1.0000   1.0000   1.0000   1.0000   1.0000   1.0000   1.0000   1.0000
     1.0000   1.0000   1.0000   1.0000   1.0000   1.0000   1.0000   1.0000
     1.0000   1.0000   1.0000   1.0000   1.0000   1.0000   1.0000   1.0000
     1.0000   1.0000   1.0000   1.0000   1.0000   1.0000   1.0000   1.0000
     1.0000   1.0000   1.0000   1.0000   1.0000   1.0000   1.0000   1.0000
     1.0000   1.0000   1.0000   1.0000   1.0000   1.0000   1.0000   1.0000
     1.0000   1.0000   1.0000   1.0000   1.0000   1.0000   1.0000   1.0000
     1.0000   1.0000   1.0000   1.0000   1.0000   1.0000   1.0000   1.0000
     1.0000   1.0000   1.0000   1.0000   1.0000   1.0000   1.0000   1.0000
     1.0000   1.0000   1.0000   1.0000   1.0000   1.0000   1.0000   1.0000
     1.0000   1.0000   1.0000   1.0000   1.0000   1.0000   1.0000   1.0000
     1.0000   1.0000   1.0000   1.0000   1.0000   1.0000   1.0000   1.0000
     1.0000   1.0000   1.0000   1.0000   1.0000   1.0000   1.0000   1.0000
     1.0000   0.5001   0.4999   0.0000   0.0000   0.0000   0.0000   0.0000
     0.0000   0.0000   0.0000   0.0000   0.0000   0.0000   0.0000   0.0000
     0.0000   0.0000   0.0000   0.0000   0.0000   0.0000   0.0000

 ------ SPIN DOWN ----------


          k = 0.0000 0.0000 0.0000 ( 87777 PWs)   bands (ev):

   -62.5934 -37.7148 -37.7147 -36.2949 -19.5914 -18.7484 -18.7483 -18.6812
   -18.6374 -18.6374 -18.1841 -16.8986 -16.8950 -16.8950 -16.7483 -16.7483
   -16.4812 -16.0331 -16.0331 -15.9516 -15.7895 -15.7895 -15.0451 -13.8372
   -13.8372 -13.8345 -13.8238 -13.8238 -13.1146 -12.8845 -12.8845 -12.8620
   -12.4750 -12.4750 -12.0735 -11.6046 -11.6046 -11.4852 -11.1039 -11.1038
   -10.1177  -9.2960  -9.2960  -9.2200  -9.1422  -9.1422  -9.0630  -9.0324
    -9.0324  -9.0216  -8.4346  -8.4346  -8.1543  -7.8592  -7.8592  -7.8276
    -7.6736  -7.6456  -7.2233  -7.2233  -6.8639  -6.8639  -6.8502  -6.6467
    -6.6467  -6.6271  -6.5566  -6.5566  -6.5111  -6.4033  -6.4032  -6.3628
    -6.3576  -6.3576  -6.3037  -6.1285  -5.2295  -5.2295  -5.0533  -5.0532
    -4.9129  -4.9129  -4.8062  -4.7181  -4.5573  -4.5366  -4.5366  -4.1702
    -3.9143  -3.9143  -3.6642  -3.6642  -3.5923  -3.5596  -3.4702  -3.4702
    -2.8043  -2.1724  -2.1724  -2.1180  -2.1180  -1.6458  -1.6458  -1.6310
    -0.4849   0.0075   0.0076   1.1219   1.1219   1.1447   1.1489   1.8783
     2.1423   2.1423   2.4642   2.9878   2.9878   3.0378   3.4754   3.4755
     3.4771   3.7520   3.7520   3.8003   3.9557   4.0946   4.0946

     occupation numbers 
     1.0000   1.0000   1.0000   1.0000   1.0000   1.0000   1.0000   1.0000
     1.0000   1.0000   1.0000   1.0000   1.0000   1.0000   1.0000   1.0000
     1.0000   1.0000   1.0000   1.0000   1.0000   1.0000   1.0000   1.0000
     1.0000   1.0000   1.0000   1.0000   1.0000   1.0000   1.0000   1.0000
     1.0000   1.0000   1.0000   1.0000   1.0000   1.0000   1.0000   1.0000
     1.0000   1.0000   1.0000   1.0000   1.0000   1.0000   1.0000   1.0000
     1.0000   1.0000   1.0000   1.0000   1.0000   1.0000   1.0000   1.0000
     1.0000   1.0000   1.0000   1.0000   1.0000   1.0000   1.0000   1.0000
     1.0000   1.0000   1.0000   1.0000   1.0000   1.0000   1.0000   1.0000
     1.0000   1.0000   1.0000   1.0000   1.0000   1.0000   1.0000   1.0000
     1.0000   1.0000   1.0000   1.0000   1.0000   1.0000   1.0000   1.0000
     1.0000   1.0000   1.0000   1.0000   1.0000   1.0000   1.0000   1.0000
     1.0000   1.0000   1.0000   1.0000   1.0000   1.0000   1.0000   1.0000
     1.0000   0.0000   0.0000   0.0000   0.0000   0.0000   0.0000   0.0000
     0.0000   0.0000   0.0000   0.0000   0.0000   0.0000   0.0000   0.0000
     0.0000   0.0000   0.0000   0.0000   0.0000   0.0000   0.0000

     the Fermi energy is    -0.2169 ev

!    total energy              =    -757.33026320 Ry
     Harris-Foulkes estimate   =    -757.33026320 Ry
     estimated scf accuracy    <          2.1E-11 Ry

     The total energy is the sum of the following terms:

     one-electron contribution =   -2599.43164957 Ry
     hartree contribution      =    1346.67098451 Ry
     xc contribution           =    -252.69594093 Ry
     ewald contribution        =     748.12667097 Ry
     smearing contrib. (-TS)   =      -0.00032818 Ry

     total magnetization       =     1.00 Bohr mag/cell
     absolute magnetization    =     1.53 Bohr mag/cell

     convergence has been achieved in  40 iterations

     negative rho (up, down):  3.371E-02 1.853E-03

     Forces acting on atoms (cartesian axes, Ry/au):

     atom    1 type  1   force =    -0.00000025    0.00000015    0.01168424
     atom    2 type  1   force =    -0.00000023    0.00000013    0.00075629
     atom    3 type  2   force =    -0.00169883    0.00098082    0.00008492
     atom    4 type  2   force =    -0.00866978   -0.00212972   -0.00003383
     atom    5 type  2   force =    -0.00183884   -0.00618480   -0.00009775
     atom    6 type  2   force =     0.01002642    0.00578880    0.00005538
     atom    7 type  2   force =    -0.00627584    0.00150022   -0.00009776
     atom    8 type  2   force =    -0.00617965   -0.00644370   -0.00003380
     atom    9 type  2   force =     0.00000014   -0.00195970    0.00008488
     atom   10 type  2   force =     0.00000187   -0.00329190    0.00003341
     atom   11 type  2   force =    -0.00940974   -0.00543262    0.00000576
     atom   12 type  2   force =    -0.00284909    0.00164492    0.00003345
     atom   13 type  2   force =    -0.00000009    0.01086539    0.00000576
     atom   14 type  2   force =     0.00000074   -0.01341279    0.00006558
     atom   15 type  2   force =    -0.00790550    0.01522270    0.00001105
     atom   16 type  2   force =    -0.03537713   -0.03767772    0.00020781
     atom   17 type  2   force =    -0.03146212   -0.01816604    0.00211703
     atom   18 type  2   force =    -0.05031401   -0.01179907    0.00020793
     atom   19 type  2   force =     0.00922823   -0.01445698    0.00001112
     atom   20 type  2   force =    -0.01161366    0.00670515    0.00006559
     atom   21 type  2   force =     0.00940736   -0.00543134    0.00000575
     atom   22 type  2   force =     0.00285180    0.00164433    0.00003341
     atom   23 type  2   force =     0.00169722    0.00097973    0.00008488
     atom   24 type  2   force =     0.00867056   -0.00213026   -0.00003383
     atom   25 type  2   force =     0.00790438    0.01522226    0.00001113
     atom   26 type  2   force =     0.03537804   -0.03767814    0.00020788
     atom   27 type  2   force =    -0.00000384   -0.89141617   -0.01192881
     atom   28 type  3   force =     0.00000719   -0.00000415    0.01550573
     atom   29 type  2   force =    -0.77199862    0.44571361   -0.01192899
     atom   30 type  2   force =    -0.01493871    0.04947274    0.00020793
     atom   31 type  2   force =     0.01713423   -0.00076339    0.00001112
     atom   32 type  2   force =     0.00249058    0.00857359   -0.00003380
     atom   33 type  2   force =    -0.00443714    0.00468492   -0.00009776
     atom   34 type  2   force =     0.00300889    0.00173640    0.00003274
     atom   35 type  2   force =     0.00183795   -0.00618576   -0.00009777
     atom   36 type  2   force =    -0.01002758    0.00578943    0.00005536
     atom   37 type  2   force =     0.03146205   -0.01816462    0.00211700
     atom   38 type  2   force =     0.05031925   -0.01179921    0.00020788
     atom   39 type  2   force =     0.77198713    0.44571141   -0.01192881
     atom   40 type  2   force =     0.01494130    0.04947635    0.00020781
     atom   41 type  2   force =     0.00000119    0.03633001    0.00211703
     atom   42 type  2   force =    -0.00000004   -0.01157753    0.00005538
     atom   43 type  2   force =     0.00443677    0.00468488   -0.00009775
     atom   44 type  2   force =    -0.00300806    0.00173670    0.00003274
     atom   45 type  2   force =    -0.00000039    0.00000023    0.00013163
     atom   46 type  2   force =     0.00000068   -0.00347397    0.00003274
     atom   47 type  2   force =     0.00627600    0.00150116   -0.00009777
     atom   48 type  2   force =     0.00618014   -0.00644379   -0.00003383
     atom   49 type  2   force =    -0.00923068   -0.01445653    0.00001113
     atom   50 type  2   force =     0.01161619    0.00670576    0.00006558
     atom   51 type  2   force =    -0.01713599   -0.00076499    0.00001105
     atom   52 type  2   force =    -0.00249050    0.00857311   -0.00003383
     The non-local contrib.  to forces
     atom    1 type  1   force =    -0.00000004    0.00000002    0.11878633
     atom    2 type  1   force =    -0.00000003    0.00000002   -0.13118849
     atom    3 type  2   force =     0.01595239   -0.00921011   -0.00007325
     atom    4 type  2   force =     0.01049103   -0.00480459    0.00012604
     atom    5 type  2   force =     0.01237545   -0.00306353   -0.00030820
     atom    6 type  2   force =    -0.00143096   -0.00082675   -0.00001241
     atom    7 type  2   force =     0.00353599    0.01224816   -0.00030820
     atom    8 type  2   force =     0.00108844    0.01148808    0.00012599
     atom    9 type  2   force =     0.00000098    0.01841756   -0.00007327
     atom   10 type  2   force =     0.00000080    0.00771176    0.00006658
     atom   11 type  2   force =    -0.00293036   -0.00168618   -0.00000955
     atom   12 type  2   force =     0.00667673   -0.00385481    0.00006657
     atom   13 type  2   force =    -0.00000490    0.00338085   -0.00000955
     atom   14 type  2   force =    -0.00000177   -0.00891562    0.00003145
     atom   15 type  2   force =     0.01631906   -0.00039942    0.00005950
     atom   16 type  2   force =    -0.02088867   -0.01634193   -0.00107074
     atom   17 type  2   force =    -0.00378654   -0.00218402    0.00551567
     atom   18 type  2   force =    -0.02459479   -0.00991652   -0.00107030
     atom   19 type  2   force =     0.00781699    0.01433734    0.00005951
     atom   20 type  2   force =    -0.00771778    0.00445586    0.00003145
     atom   21 type  2   force =     0.00293432   -0.00169413   -0.00000954
     atom   22 type  2   force =    -0.00667818   -0.00385657    0.00006658
     atom   23 type  2   force =    -0.01594959   -0.00920963   -0.00007327
     atom   24 type  2   force =    -0.01049033   -0.00480400    0.00012600
     atom   25 type  2   force =    -0.01632193   -0.00040303    0.00005951
     atom   26 type  2   force =     0.02088524   -0.01634118   -0.00107041
     atom   27 type  2   force =    -0.00000489   -0.83924413   -0.00785803
     atom   28 type  3   force =    -0.00000117    0.00000068    0.03424003
     atom   29 type  2   force =    -0.72681448    0.41962654   -0.00785814
     atom   30 type  2   force =    -0.00370944    0.02625797   -0.00107030
     atom   31 type  2   force =    -0.00850801   -0.01393839    0.00005951
     atom   32 type  2   force =    -0.00940475   -0.00668666    0.00012599
     atom   33 type  2   force =    -0.00883923   -0.00918634   -0.00030820
     atom   34 type  2   force =    -0.01798712   -0.01038586    0.00002684
     atom   35 type  2   force =    -0.01237437   -0.00306324   -0.00030818
     atom   36 type  2   force =     0.00143294   -0.00082731   -0.00001240
     atom   37 type  2   force =     0.00378924   -0.00218772    0.00551562
     atom   38 type  2   force =     0.02459450   -0.00991656   -0.00107041
     atom   39 type  2   force =     0.72680429    0.41962630   -0.00785803
     atom   40 type  2   force =     0.00370819    0.02626109   -0.00107074
     atom   41 type  2   force =    -0.00000185    0.00437125    0.00551567
     atom   42 type  2   force =     0.00000050    0.00165262   -0.00001241
     atom   43 type  2   force =     0.00884082   -0.00918569   -0.00030820
     atom   44 type  2   force =     0.01798863   -0.01038574    0.00002683
     atom   45 type  2   force =     0.00000117   -0.00000068    0.00009480
     atom   46 type  2   force =     0.00000086    0.02077023    0.00002684
     atom   47 type  2   force =    -0.00353434    0.01224814   -0.00030818
     atom   48 type  2   force =    -0.00108477    0.01148689    0.00012600
     atom   49 type  2   force =    -0.00781193    0.01433672    0.00005951
     atom   50 type  2   force =     0.00772026    0.00445934    0.00003145
     atom   51 type  2   force =     0.00850544   -0.01393301    0.00005950
     atom   52 type  2   force =     0.00940641   -0.00668321    0.00012604
     The ionic contribution  to forces
     atom    1 type  1   force =     0.00000000   -0.00000000    3.22065282
     atom    2 type  1   force =     0.00000000   -0.00000000    3.82865839
     atom    3 type  2   force =     0.05477821   -0.03162621   -0.02888306
     atom    4 type  2   force =    -0.27749302   -0.48063202   -0.04118086
     atom    5 type  2   force =    -0.38174389   -0.31810432   -0.03668304
     atom    6 type  2   force =    -0.84217448   -0.48622966   -0.05937804
     atom    7 type  2   force =    -0.46635837   -0.17154775   -0.03668304
     atom    8 type  2   force =    -0.55498605   -0.00000000   -0.04118086
     atom    9 type  2   force =    -0.00000000    0.06325243   -0.02888306
     atom   10 type  2   force =    -0.00000000    0.11641204   -0.02485207
     atom   11 type  2   force =     0.28126355    0.16238759   -0.02815158
     atom   12 type  2   force =     0.10081578   -0.05820602   -0.02485207
     atom   13 type  2   force =    -0.00000000   -0.32477517   -0.02815158
     atom   14 type  2   force =    -0.00000000   -0.97245932   -0.05937804
     atom   15 type  2   force =    -0.43385582   -1.27298504   -0.08315627
     atom   16 type  2   force =    -1.71470145   -2.96995004   -0.21001972
     atom   17 type  2   force =    -2.20822313   -1.27491822   -0.15932094
     atom   18 type  2   force =    -3.42940290   -0.00000000   -0.21001972
     atom   19 type  2   force =    -1.31936530    0.26076236   -0.08315627
     atom   20 type  2   force =    -0.84217448    0.48622966   -0.05937804
     atom   21 type  2   force =    -0.28126355    0.16238759   -0.02815158
     atom   22 type  2   force =    -0.10081578   -0.05820602   -0.02485207
     atom   23 type  2   force =    -0.05477821   -0.03162621   -0.02888306
     atom   24 type  2   force =     0.27749302   -0.48063202   -0.04118086
     atom   25 type  2   force =     0.43385582   -1.27298504   -0.08315627
     atom   26 type  2   force =     1.71470145   -2.96995004   -0.21001972
     atom   27 type  2   force =    -0.00000000  -10.16319428   -0.43060188
     atom   28 type  3   force =    -0.00000000   -0.00000001   -2.35492931
     atom   29 type  2   force =    -8.80158444    5.08159715   -0.43060188
     atom   30 type  2   force =    -1.71470145    2.96995003   -0.21001972
     atom   31 type  2   force =    -0.88550947    1.01222269   -0.08315627
     atom   32 type  2   force =    -0.27749302    0.48063201   -0.04118086
     atom   33 type  2   force =    -0.08461447    0.48965207   -0.03668304
     atom   34 type  2   force =     0.10081578    0.05820602   -0.02485207
     atom   35 type  2   force =     0.38174389   -0.31810432   -0.03668304
     atom   36 type  2   force =     0.84217448   -0.48622966   -0.05937804
     atom   37 type  2   force =     2.20822313   -1.27491822   -0.15932094
     atom   38 type  2   force =     3.42940290   -0.00000000   -0.21001972
     atom   39 type  2   force =     8.80158444    5.08159715   -0.43060188
     atom   40 type  2   force =     1.71470145    2.96995003   -0.21001972
     atom   41 type  2   force =    -0.00000000    2.54983644   -0.15932094
     atom   42 type  2   force =    -0.00000000    0.97245932   -0.05937804
     atom   43 type  2   force =     0.08461447    0.48965207   -0.03668304
     atom   44 type  2   force =    -0.10081578    0.05820602   -0.02485207
     atom   45 type  2   force =     0.00000000    0.00000000   -0.02188954
     atom   46 type  2   force =     0.00000000   -0.11641204   -0.02485207
     atom   47 type  2   force =     0.46635837   -0.17154775   -0.03668304
     atom   48 type  2   force =     0.55498605   -0.00000000   -0.04118086
     atom   49 type  2   force =     1.31936530    0.26076236   -0.08315627
     atom   50 type  2   force =     0.84217448    0.48622966   -0.05937804
     atom   51 type  2   force =     0.88550947    1.01222269   -0.08315627
     atom   52 type  2   force =     0.27749302    0.48063201   -0.04118086
     The local contribution  to forces
     atom    1 type  1   force =    -0.00000015    0.00000009   -3.32777506
     atom    2 type  1   force =    -0.00000010    0.00000006   -3.69673324
     atom    3 type  2   force =    -0.07215161    0.04165675    0.02901864
     atom    4 type  2   force =     0.25853292    0.48321324    0.04100440
     atom    5 type  2   force =     0.36774966    0.31493011    0.03686669
     atom    6 type  2   force =     0.85361346    0.49283490    0.05942611
     atom    7 type  2   force =     0.45661111    0.16101720    0.03686670
     atom    8 type  2   force =     0.54773841   -0.01771058    0.04100446
     atom    9 type  2   force =    -0.00000016   -0.08330927    0.02901864
     atom   10 type  2   force =     0.00000150   -0.12727606    0.02479957
     atom   11 type  2   force =    -0.28778015   -0.16615482    0.02814737
     atom   12 type  2   force =    -0.11022088    0.06363605    0.02479956
     atom   13 type  2   force =     0.00000422    0.33230233    0.02814737
     atom   14 type  2   force =     0.00000208    0.96781236    0.05939480
     atom   15 type  2   force =     0.40992549    1.28855182    0.08309002
     atom   16 type  2   force =     1.69987060    2.94831877    0.21124863
     atom   17 type  2   force =     2.18044376    1.25887743    0.15601454
     atom   18 type  2   force =     3.40325646   -0.00202961    0.21124838
     atom   19 type  2   force =     1.32087675   -0.28927278    0.08309007
     atom   20 type  2   force =     0.83814995   -0.48390610    0.05939480
     atom   21 type  2   force =     0.28777556   -0.16614730    0.02814737
     atom   22 type  2   force =     0.11022505    0.06363673    0.02479957
     atom   23 type  2   force =     0.07214786    0.04165477    0.02901864
     atom   24 type  2   force =    -0.25853285    0.48321158    0.04100443
     atom   25 type  2   force =    -0.40992435    1.28855364    0.08309002
     atom   26 type  2   force =    -1.69986781    2.94831708    0.21124835
     atom   27 type  2   force =    -0.00000037   10.09310562    0.42636760
     atom   28 type  3   force =     0.00000239   -0.00000147    2.33599707
     atom   29 type  2   force =     8.74088284   -5.04655106    0.42636755
     atom   30 type  2   force =     1.70338592   -2.94629175    0.21124838
     atom   31 type  2   force =     0.91095594   -0.99927643    0.08309007
     atom   32 type  2   force =     0.28920702   -0.46550009    0.04100446
     atom   33 type  2   force =     0.08886057   -0.47594542    0.03686670
     atom   34 type  2   force =    -0.08013271   -0.04626477    0.02483800
     atom   35 type  2   force =    -0.36775120    0.31492837    0.03686669
     atom   36 type  2   force =    -0.85361559    0.49283519    0.05942611
     atom   37 type  2   force =    -2.18044599    1.25888108    0.15601456
     atom   38 type  2   force =    -3.40325139   -0.00202984    0.21124835
     atom   39 type  2   force =    -8.74088605   -5.04655249    0.42636760
     atom   40 type  2   force =    -1.70338365   -2.94629052    0.21124863
     atom   41 type  2   force =     0.00000205   -2.51775840    0.15601454
     atom   42 type  2   force =    -0.00000082   -0.98566840    0.05942611
     atom   43 type  2   force =    -0.08886265   -0.47594561    0.03686669
     atom   44 type  2   force =     0.08013227   -0.04626439    0.02483799
     atom   45 type  2   force =    -0.00000140    0.00000081    0.02190484
     atom   46 type  2   force =     0.00000011    0.09252935    0.02483800
     atom   47 type  2   force =    -0.45661157    0.16101769    0.03686669
     atom   48 type  2   force =    -0.54773993   -0.01770978    0.04100443
     atom   49 type  2   force =    -1.32088236   -0.28927192    0.08309002
     atom   50 type  2   force =    -0.83814905   -0.48390799    0.05939480
     atom   51 type  2   force =    -0.91095587   -0.99928180    0.08309002
     atom   52 type  2   force =    -0.28920848   -0.46550270    0.04100440
     The core correction contribution to forces
     atom    1 type  1   force =     0.00000000    0.00000000    0.00000000
     atom    2 type  1   force =     0.00000000    0.00000000    0.00000000
     atom    3 type  2   force =    -0.00027761    0.00016028    0.00000336
     atom    4 type  2   force =    -0.00020117    0.00009356   -0.00000269
     atom    5 type  2   force =    -0.00022025    0.00005295    0.00000758
     atom    6 type  2   force =     0.00001840    0.00001064    0.00000045
     atom    7 type  2   force =    -0.00006427   -0.00021720    0.00000759
     atom    8 type  2   force =    -0.00001965   -0.00022100   -0.00000267
     atom    9 type  2   force =    -0.00000003   -0.00032054    0.00000336
     atom   10 type  2   force =    -0.00000001   -0.00013953    0.00000014
     atom   11 type  2   force =     0.00003771    0.00002166    0.00000035
     atom   12 type  2   force =    -0.00012082    0.00006975    0.00000015
     atom   13 type  2   force =     0.00000010   -0.00004348    0.00000035
     atom   14 type  2   force =     0.00000004    0.00014924   -0.00000183
     atom   15 type  2   force =    -0.00029504    0.00005555   -0.00000135
     atom   16 type  2   force =     0.00034128    0.00029558    0.00003049
     atom   17 type  2   force =     0.00010323    0.00005957   -0.00011143
     atom   18 type  2   force =     0.00042659    0.00014772    0.00003047
     atom   19 type  2   force =    -0.00009945   -0.00028338   -0.00000137
     atom   20 type  2   force =     0.00012921   -0.00007460   -0.00000184
     atom   21 type  2   force =    -0.00003776    0.00002180    0.00000032
     atom   22 type  2   force =     0.00012083    0.00006978    0.00000014
     atom   23 type  2   force =     0.00027758    0.00016029    0.00000336
     atom   24 type  2   force =     0.00020117    0.00009355   -0.00000267
     atom   25 type  2   force =     0.00029509    0.00005562   -0.00000136
     atom   26 type  2   force =    -0.00034121    0.00029559    0.00003049
     atom   27 type  2   force =     0.00000009    0.01791618    0.00014450
     atom   28 type  3   force =     0.00000012   -0.00000007    0.00017960
     atom   29 type  2   force =     0.01551600   -0.00895817    0.00014453
     atom   30 type  2   force =     0.00008537   -0.00044330    0.00003047
     atom   31 type  2   force =     0.00019569    0.00022782   -0.00000137
     atom   32 type  2   force =     0.00018157    0.00012752   -0.00000267
     atom   33 type  2   force =     0.00015596    0.00016426    0.00000759
     atom   34 type  2   force =     0.00031313    0.00018080    0.00000076
     atom   35 type  2   force =     0.00022023    0.00005296    0.00000756
     atom   36 type  2   force =    -0.00001844    0.00001065    0.00000044
     atom   37 type  2   force =    -0.00010329    0.00005964   -0.00011144
     atom   38 type  2   force =    -0.00042659    0.00014771    0.00003049
     atom   39 type  2   force =    -0.01551583   -0.00895817    0.00014450
     atom   40 type  2   force =    -0.00008534   -0.00044335    0.00003049
     atom   41 type  2   force =     0.00000003   -0.00011919   -0.00011143
     atom   42 type  2   force =    -0.00000002   -0.00002126    0.00000045
     atom   43 type  2   force =    -0.00015599    0.00016427    0.00000758
     atom   44 type  2   force =    -0.00031317    0.00018081    0.00000076
     atom   45 type  2   force =    -0.00000003    0.00000002    0.00000221
     atom   46 type  2   force =    -0.00000002   -0.00036158    0.00000076
     atom   47 type  2   force =     0.00006425   -0.00021720    0.00000756
     atom   48 type  2   force =     0.00001957   -0.00022099   -0.00000267
     atom   49 type  2   force =     0.00009938   -0.00028337   -0.00000136
     atom   50 type  2   force =    -0.00012923   -0.00007466   -0.00000183
     atom   51 type  2   force =    -0.00019563    0.00022773   -0.00000135
     atom   52 type  2   force =    -0.00018161    0.00012744   -0.00000269
     The Hubbard contrib.    to forces
     atom    1 type  1   force =     0.00000000    0.00000000    0.00000000
     atom    2 type  1   force =     0.00000000    0.00000000    0.00000000
     atom    3 type  2   force =     0.00000000    0.00000000    0.00000000
     atom    4 type  2   force =     0.00000000    0.00000000    0.00000000
     atom    5 type  2   force =     0.00000000    0.00000000    0.00000000
     atom    6 type  2   force =     0.00000000    0.00000000    0.00000000
     atom    7 type  2   force =     0.00000000    0.00000000    0.00000000
     atom    8 type  2   force =     0.00000000    0.00000000    0.00000000
     atom    9 type  2   force =     0.00000000    0.00000000    0.00000000
     atom   10 type  2   force =     0.00000000    0.00000000    0.00000000
     atom   11 type  2   force =     0.00000000    0.00000000    0.00000000
     atom   12 type  2   force =     0.00000000    0.00000000    0.00000000
     atom   13 type  2   force =     0.00000000    0.00000000    0.00000000
     atom   14 type  2   force =     0.00000000    0.00000000    0.00000000
     atom   15 type  2   force =     0.00000000    0.00000000    0.00000000
     atom   16 type  2   force =     0.00000000    0.00000000    0.00000000
     atom   17 type  2   force =     0.00000000    0.00000000    0.00000000
     atom   18 type  2   force =     0.00000000    0.00000000    0.00000000
     atom   19 type  2   force =     0.00000000    0.00000000    0.00000000
     atom   20 type  2   force =     0.00000000    0.00000000    0.00000000
     atom   21 type  2   force =     0.00000000    0.00000000    0.00000000
     atom   22 type  2   force =     0.00000000    0.00000000    0.00000000
     atom   23 type  2   force =     0.00000000    0.00000000    0.00000000
     atom   24 type  2   force =     0.00000000    0.00000000    0.00000000
     atom   25 type  2   force =     0.00000000    0.00000000    0.00000000
     atom   26 type  2   force =     0.00000000    0.00000000    0.00000000
     atom   27 type  2   force =     0.00000000    0.00000000    0.00000000
     atom   28 type  3   force =     0.00000000    0.00000000    0.00000000
     atom   29 type  2   force =     0.00000000    0.00000000    0.00000000
     atom   30 type  2   force =     0.00000000    0.00000000    0.00000000
     atom   31 type  2   force =     0.00000000    0.00000000    0.00000000
     atom   32 type  2   force =     0.00000000    0.00000000    0.00000000
     atom   33 type  2   force =     0.00000000    0.00000000    0.00000000
     atom   34 type  2   force =     0.00000000    0.00000000    0.00000000
     atom   35 type  2   force =     0.00000000    0.00000000    0.00000000
     atom   36 type  2   force =     0.00000000    0.00000000    0.00000000
     atom   37 type  2   force =     0.00000000    0.00000000    0.00000000
     atom   38 type  2   force =     0.00000000    0.00000000    0.00000000
     atom   39 type  2   force =     0.00000000    0.00000000    0.00000000
     atom   40 type  2   force =     0.00000000    0.00000000    0.00000000
     atom   41 type  2   force =     0.00000000    0.00000000    0.00000000
     atom   42 type  2   force =     0.00000000    0.00000000    0.00000000
     atom   43 type  2   force =     0.00000000    0.00000000    0.00000000
     atom   44 type  2   force =     0.00000000    0.00000000    0.00000000
     atom   45 type  2   force =     0.00000000    0.00000000    0.00000000
     atom   46 type  2   force =     0.00000000    0.00000000    0.00000000
     atom   47 type  2   force =     0.00000000    0.00000000    0.00000000
     atom   48 type  2   force =     0.00000000    0.00000000    0.00000000
     atom   49 type  2   force =     0.00000000    0.00000000    0.00000000
     atom   50 type  2   force =     0.00000000    0.00000000    0.00000000
     atom   51 type  2   force =     0.00000000    0.00000000    0.00000000
     atom   52 type  2   force =     0.00000000    0.00000000    0.00000000
     The SCF correction term to forces
     atom    1 type  1   force =    -0.00000009    0.00000005    0.00000087
     atom    2 type  1   force =    -0.00000012    0.00000007    0.00000035
     atom    3 type  2   force =    -0.00000023    0.00000013   -0.00000005
     atom    4 type  2   force =     0.00000043    0.00000010   -0.00000000
     atom    5 type  2   force =     0.00000018   -0.00000000   -0.00000006
     atom    6 type  2   force =    -0.00000003   -0.00000033   -0.00000001
     atom    7 type  2   force =    -0.00000032   -0.00000019   -0.00000008
     atom    8 type  2   force =    -0.00000083   -0.00000018    0.00000001
     atom    9 type  2   force =    -0.00000067    0.00000012   -0.00000008
     atom   10 type  2   force =    -0.00000045   -0.00000009   -0.00000008
     atom   11 type  2   force =    -0.00000052   -0.00000085   -0.00000011
     atom   12 type  2   force =     0.00000007   -0.00000004   -0.00000004
     atom   13 type  2   force =     0.00000048    0.00000088   -0.00000011
     atom   14 type  2   force =     0.00000036    0.00000055   -0.00000008
     atom   15 type  2   force =     0.00000080   -0.00000019   -0.00000012
     atom   16 type  2   force =     0.00000109   -0.00000010   -0.00000012
     atom   17 type  2   force =     0.00000054   -0.00000078   -0.00000009
     atom   18 type  2   force =     0.00000060   -0.00000065   -0.00000018
     atom   19 type  2   force =    -0.00000078   -0.00000051   -0.00000010
     atom   20 type  2   force =    -0.00000059    0.00000034   -0.00000006
     atom   21 type  2   force =    -0.00000123    0.00000071   -0.00000010
     atom   22 type  2   force =    -0.00000015    0.00000043   -0.00000008
     atom   23 type  2   force =    -0.00000044    0.00000052   -0.00000008
     atom   24 type  2   force =    -0.00000049    0.00000064    0.00000000
     atom   25 type  2   force =    -0.00000028    0.00000108   -0.00000005
     atom   26 type  2   force =     0.00000034    0.00000042   -0.00000011
     atom   27 type  2   force =     0.00000130    0.00000046   -0.00000029
     atom   28 type  3   force =     0.00000579   -0.00000334   -0.00000095
     atom   29 type  2   force =     0.00000144   -0.00000083   -0.00000032
     atom   30 type  2   force =     0.00000086   -0.00000020   -0.00000018
     atom   31 type  2   force =     0.00000005    0.00000093   -0.00000010
     atom   32 type  2   force =    -0.00000026    0.00000081    0.00000001
     atom   33 type  2   force =     0.00000000    0.00000037   -0.00000008
     atom   34 type  2   force =    -0.00000021    0.00000022   -0.00000007
     atom   35 type  2   force =    -0.00000062    0.00000048   -0.00000007
     atom   36 type  2   force =    -0.00000099    0.00000057   -0.00000002
     atom   37 type  2   force =    -0.00000106    0.00000061   -0.00000008
     atom   38 type  2   force =    -0.00000019   -0.00000051   -0.00000011
     atom   39 type  2   force =     0.00000025   -0.00000136   -0.00000029
     atom   40 type  2   force =     0.00000063   -0.00000089   -0.00000012
     atom   41 type  2   force =     0.00000094   -0.00000008   -0.00000009
     atom   42 type  2   force =     0.00000027    0.00000019   -0.00000001
     atom   43 type  2   force =     0.00000009   -0.00000015   -0.00000006
     atom   44 type  2   force =    -0.00000004    0.00000002   -0.00000005
     atom   45 type  2   force =    -0.00000015    0.00000009    0.00000005
     atom   46 type  2   force =    -0.00000030    0.00000007   -0.00000007
     atom   47 type  2   force =    -0.00000073    0.00000029   -0.00000007
     atom   48 type  2   force =    -0.00000080    0.00000010    0.00000000
     atom   49 type  2   force =    -0.00000108   -0.00000030   -0.00000005
     atom   50 type  2   force =    -0.00000029   -0.00000059   -0.00000008
     atom   51 type  2   force =     0.00000056   -0.00000059   -0.00000012
     atom   52 type  2   force =     0.00000013   -0.00000043   -0.00000000

     Total force =     1.551954     Total SCF correction =     0.000009

     BFGS Geometry Optimization

     number of scf cycles    =   1
     number of bfgs steps    =   0

     energy   new            =    -757.3302632023 Ry

     new trust radius        =       0.5000000000 bohr
     new conv_thr            =            1.0E-10 Ry


ATOMIC_POSITIONS (angstrom)
H        2.465297275   5.693360398   2.103467742
H        2.465297283   5.693360394   2.852296475
C       -0.000504193   0.000291096   0.000025202
C       -0.002573088   1.422708013  -0.000010040
C       -1.233194420   2.133174559  -0.000029012
C       -1.229672954   3.560068267   0.000016437
C       -2.467159943   4.270465512  -0.000029013
C       -2.467131397   5.691447942  -0.000010031
C       -3.697945983   6.404448782   0.000025190
C       -3.697945470   7.827393493   0.000009916
C       -4.933387399   8.538428196   0.000001709
C       -4.931440274   9.963868814   0.000009928
C        2.465297324   0.003224716   0.000001709
C        2.465297569   1.419359333   0.000019463
C        1.230302419   2.139528048   0.000003281
C        1.222149168   3.547167926   0.000061677
C       -0.009337580   4.264628804   0.000628310
C       -0.014932594   5.689858531   0.000061710
C       -1.229909847   6.400739739   0.000003300
C       -1.236095469   7.830360495   0.000019466
C       -2.462505357   8.538428574   0.000001708
C       -2.464450970   9.963868638   0.000009916
C        4.931098416   0.000290772   0.000025190
C        4.933168017   1.422707853  -0.000010040
C        3.700291950   2.139527919   0.000003304
C        3.708445802   3.547167801   0.000061697
C        2.465296209   4.005458630  -0.003540329
V        2.465299485   5.693359122   0.004601913
C        1.003528736   6.537312857  -0.003540382
C        1.228215046   7.843053405   0.000061710
C        0.005085234   8.539813968   0.000003300
C        0.000739175   9.965925159  -0.000010031
C        7.394575159   0.001390430  -0.000029013
C        7.396785052   1.423855431   0.000009716
C        6.163788858   2.133174275  -0.000029018
C        6.160267310   3.560068454   0.000016431
C        4.939932258   4.264629224   0.000628299
C        4.945528849   5.689858492   0.000061697
C        3.927062552   6.537312205  -0.003540329
C        3.702380424   7.843054476   0.000061677
C        2.465297703   8.550822844   0.000628310
C        2.465297339   9.959944549   0.000016437
C        9.862506181   0.001390416  -0.000029012
C        9.860296645   1.423855522   0.000009718
C        8.628540608   2.135010200   0.000039065
C        8.628540927   3.557319188   0.000009716
C        7.397754691   4.270465793  -0.000029018
C        7.397726241   5.691447915  -0.000010040
C        6.160503820   6.400739876   0.000003304
C        6.166690920   7.830360677   0.000019463
C        4.925508942   8.539813492   0.000003281
C        4.929855550   9.965925018  -0.000010040



     Writing output data file vanadio-top-2.1.save/
     NEW-OLD atomic charge density approx. for the potential

     Check: negative core charge=   -0.000002

     negative rho (up, down):  3.431E-02 5.345E-04

     total cpu time spent up to now is     4476.3 secs

     Self-consistent Calculation

     iteration #  1     ecut=    70.00 Ry     beta= 0.30
     Davidson diagonalization with overlap
     ethr =  1.00E-06,  avg # of iterations = 12.5

     negative rho (up, down):  2.613E-02 3.341E-03

     total cpu time spent up to now is     4700.9 secs

     total energy              =    -757.24204499 Ry
     Harris-Foulkes estimate   =    -758.26405758 Ry
[...]
     atom   32 type  2   force =     0.12997788   -0.15404491    0.39313462
     atom   33 type  2   force =     0.03956005   -0.23824087    0.40107550
     atom   34 type  2   force =    -0.13823565    0.05647923    0.48204010
     atom   35 type  2   force =    -0.30072105    0.27728811    0.78262818
     atom   36 type  2   force =    -0.67496949    0.38969382    1.04696404
     atom   37 type  2   force =    -1.25776929    0.72617344    1.59709447
     atom   38 type  2   force =    -1.81485933    0.10916604    1.94872173
     atom   39 type  2   force =    -1.15329481   -1.89763547    3.52527414
     atom   40 type  2   force =    -0.14453289   -1.53081052    1.47632362
     atom   41 type  2   force =     0.32216347   -1.01886954    0.18822132
     atom   42 type  2   force =     0.04698321   -0.53265265    0.61174612
     atom   43 type  2   force =     0.09450524   -0.29118001    0.94276190
     atom   44 type  2   force =     0.05324647   -0.03074186    0.66982721
     atom   45 type  2   force =    -0.01922496    0.01109953    0.16888631
     atom   46 type  2   force =    -0.11803028    0.09147597    0.48204010
     atom   47 type  2   force =    -0.39049907    0.12178801    0.78262818
     atom   48 type  2   force =    -0.52847925    0.08192089    0.97266415
     atom   49 type  2   force =    -0.90548743   -0.26764711    1.12869740
     atom   50 type  2   force =    -0.45620674   -0.35885462    1.11834339
     atom   51 type  2   force =    -0.51502801   -0.58465178    1.45845302
     atom   52 type  2   force =    -0.04187149   -0.37296863    1.24368871
     The core correction contribution to forces
     atom    1 type  1   force =     0.00000000    0.00000000    0.00000000
     atom    2 type  1   force =     0.00000000    0.00000000    0.00000000
     atom    3 type  2   force =    -0.00015403    0.00008893    0.00016496
     atom    4 type  2   force =     0.00001958    0.00004105    0.00029786
     atom    5 type  2   force =     0.00002588   -0.00003383    0.00000710
     atom    6 type  2   force =     0.00010697    0.00033364    0.00008218
     atom    7 type  2   force =     0.00004052    0.00005889    0.00012351
     atom    8 type  2   force =     0.00010889   -0.00003405    0.00005136
     atom    9 type  2   force =    -0.00002674   -0.00005717    0.00010540
     atom   10 type  2   force =     0.00004426   -0.00003423    0.00014096
     atom   11 type  2   force =    -0.00016412    0.00014120    0.00005017
     atom   12 type  2   force =    -0.00010523    0.00006075    0.00029679
     atom   13 type  2   force =    -0.00020434    0.00007153    0.00005017
     atom   14 type  2   force =     0.00009795   -0.00024421    0.00035041
     atom   15 type  2   force =    -0.00064423    0.00017718   -0.00010045
     atom   16 type  2   force =     0.00015162   -0.00020605   -0.00023219
     atom   17 type  2   force =     0.00004614   -0.00007430    0.00042189
     atom   18 type  2   force =     0.00034315    0.00079306   -0.00058841
     atom   19 type  2   force =     0.00028699   -0.00014429   -0.00041247
     atom   20 type  2   force =    -0.00013865    0.00008005    0.00026233
     atom   21 type  2   force =     0.00005385   -0.00003109   -0.00002445
     atom   22 type  2   force =     0.00005177   -0.00002122    0.00014096
     atom   23 type  2   force =     0.00003614    0.00005174    0.00010540
     atom   24 type  2   force =    -0.00009958   -0.00013291    0.00003146
     atom   25 type  2   force =     0.00029657   -0.00011202    0.00009769
     atom   26 type  2   force =    -0.00061563   -0.00066351   -0.00177715
     atom   27 type  2   force =    -0.00069755    0.00640819    0.00219124
     atom   28 type  3   force =     0.00539675   -0.00311582    0.02582943
     atom   29 type  2   force =     0.00588472   -0.00339754    0.00301511
     atom   30 type  2   force =    -0.00051524   -0.00069371   -0.00058841
     atom   31 type  2   force =     0.00026846   -0.00017640   -0.00041247
     atom   32 type  2   force =     0.00008394   -0.00007728    0.00005136
     atom   33 type  2   force =    -0.00003074   -0.00006453    0.00012351
     atom   34 type  2   force =     0.00010929    0.00010371    0.00002661
     atom   35 type  2   force =     0.00027186   -0.00010431    0.00017119
     atom   36 type  2   force =     0.00007221   -0.00004169    0.00002820
     atom   37 type  2   force =     0.00033265   -0.00019205   -0.00057997
     atom   38 type  2   force =     0.00026680    0.00086491   -0.00177715
     atom   39 type  2   force =    -0.00589843   -0.00260000    0.00219124
     atom   40 type  2   force =     0.00025426   -0.00002828   -0.00023219
     atom   41 type  2   force =     0.00008741   -0.00000281    0.00042189
     atom   42 type  2   force =    -0.00023546   -0.00025946    0.00008218
     atom   43 type  2   force =     0.00004223   -0.00000549    0.00000710
     atom   44 type  2   force =    -0.00028006    0.00016170    0.00003733
     atom   45 type  2   force =     0.00008562   -0.00004943    0.00037118
     atom   46 type  2   force =    -0.00003517   -0.00014651    0.00002661
     atom   47 type  2   force =     0.00022626   -0.00018328    0.00017119
     atom   48 type  2   force =     0.00006531    0.00015270    0.00003146
     atom   49 type  2   force =     0.00024529   -0.00020083    0.00009769
     atom   50 type  2   force =     0.00026047    0.00003728    0.00035041
     atom   51 type  2   force =    -0.00047556    0.00046933   -0.00010045
     atom   52 type  2   force =    -0.00002576   -0.00003748    0.00029786
     The Hubbard contrib.    to forces
     atom    1 type  1   force =     0.00000000    0.00000000    0.00000000
     atom    2 type  1   force =     0.00000000    0.00000000    0.00000000
     atom    3 type  2   force =     0.00000000    0.00000000    0.00000000
     atom    4 type  2   force =     0.00000000    0.00000000    0.00000000
     atom    5 type  2   force =     0.00000000    0.00000000    0.00000000
     atom    6 type  2   force =     0.00000000    0.00000000    0.00000000
     atom    7 type  2   force =     0.00000000    0.00000000    0.00000000
     atom    8 type  2   force =     0.00000000    0.00000000    0.00000000
     atom    9 type  2   force =     0.00000000    0.00000000    0.00000000
     atom   10 type  2   force =     0.00000000    0.00000000    0.00000000
     atom   11 type  2   force =     0.00000000    0.00000000    0.00000000
     atom   12 type  2   force =     0.00000000    0.00000000    0.00000000
     atom   13 type  2   force =     0.00000000    0.00000000    0.00000000
     atom   14 type  2   force =     0.00000000    0.00000000    0.00000000
     atom   15 type  2   force =     0.00000000    0.00000000    0.00000000
     atom   16 type  2   force =     0.00000000    0.00000000    0.00000000
     atom   17 type  2   force =     0.00000000    0.00000000    0.00000000
     atom   18 type  2   force =     0.00000000    0.00000000    0.00000000
     atom   19 type  2   force =     0.00000000    0.00000000    0.00000000
     atom   20 type  2   force =     0.00000000    0.00000000    0.00000000
     atom   21 type  2   force =     0.00000000    0.00000000    0.00000000
     atom   22 type  2   force =     0.00000000    0.00000000    0.00000000
     atom   23 type  2   force =     0.00000000    0.00000000    0.00000000
     atom   24 type  2   force =     0.00000000    0.00000000    0.00000000
     atom   25 type  2   force =     0.00000000    0.00000000    0.00000000
     atom   26 type  2   force =     0.00000000    0.00000000    0.00000000
     atom   27 type  2   force =     0.00000000    0.00000000    0.00000000
     atom   28 type  3   force =     0.00000000    0.00000000    0.00000000
     atom   29 type  2   force =     0.00000000    0.00000000    0.00000000
     atom   30 type  2   force =     0.00000000    0.00000000    0.00000000
     atom   31 type  2   force =     0.00000000    0.00000000    0.00000000
     atom   32 type  2   force =     0.00000000    0.00000000    0.00000000
     atom   33 type  2   force =     0.00000000    0.00000000    0.00000000
     atom   34 type  2   force =     0.00000000    0.00000000    0.00000000
     atom   35 type  2   force =     0.00000000    0.00000000    0.00000000
     atom   36 type  2   force =     0.00000000    0.00000000    0.00000000
     atom   37 type  2   force =     0.00000000    0.00000000    0.00000000
     atom   38 type  2   force =     0.00000000    0.00000000    0.00000000
     atom   39 type  2   force =     0.00000000    0.00000000    0.00000000
     atom   40 type  2   force =     0.00000000    0.00000000    0.00000000
     atom   41 type  2   force =     0.00000000    0.00000000    0.00000000
     atom   42 type  2   force =     0.00000000    0.00000000    0.00000000
     atom   43 type  2   force =     0.00000000    0.00000000    0.00000000
     atom   44 type  2   force =     0.00000000    0.00000000    0.00000000
     atom   45 type  2   force =     0.00000000    0.00000000    0.00000000
     atom   46 type  2   force =     0.00000000    0.00000000    0.00000000
     atom   47 type  2   force =     0.00000000    0.00000000    0.00000000
     atom   48 type  2   force =     0.00000000    0.00000000    0.00000000
     atom   49 type  2   force =     0.00000000    0.00000000    0.00000000
     atom   50 type  2   force =     0.00000000    0.00000000    0.00000000
     atom   51 type  2   force =     0.00000000    0.00000000    0.00000000
     atom   52 type  2   force =     0.00000000    0.00000000    0.00000000
     The SCF correction term to forces
     atom    1 type  1   force =    -0.00000015    0.00000008   -0.00000070
     atom    2 type  1   force =     0.00000197   -0.00000115   -0.00000153
     atom    3 type  2   force =     0.00000003   -0.00000002    0.00000032
     atom    4 type  2   force =    -0.00000016   -0.00000016   -0.00000005
     atom    5 type  2   force =    -0.00000038   -0.00000022   -0.00000012
     atom    6 type  2   force =    -0.00000038   -0.00000010   -0.00000002
     atom    7 type  2   force =    -0.00000021   -0.00000015    0.00000002
     atom    8 type  2   force =    -0.00000020   -0.00000003    0.00000000
     atom    9 type  2   force =     0.00000024    0.00000001    0.00000013
     atom   10 type  2   force =     0.00000006    0.00000004   -0.00000011
     atom   11 type  2   force =     0.00000025    0.00000006   -0.00000015
     atom   12 type  2   force =     0.00000004   -0.00000002   -0.00000018
     atom   13 type  2   force =     0.00000007   -0.00000024   -0.00000015
     atom   14 type  2   force =     0.00000004   -0.00000051   -0.00000002
     atom   15 type  2   force =    -0.00000019   -0.00000049   -0.00000007
     atom   16 type  2   force =    -0.00000039   -0.00000063   -0.00000008
     atom   17 type  2   force =    -0.00000064   -0.00000033   -0.00000010
     atom   18 type  2   force =    -0.00000073    0.00000011    0.00000002
     atom   19 type  2   force =    -0.00000043    0.00000017   -0.00000011
     atom   20 type  2   force =    -0.00000029    0.00000017    0.00000001
     atom   21 type  2   force =    -0.00000015    0.00000009   -0.00000008
     atom   22 type  2   force =    -0.00000001   -0.00000007   -0.00000011
     atom   23 type  2   force =     0.00000011   -0.00000021    0.00000013
     atom   24 type  2   force =     0.00000013   -0.00000022   -0.00000003
     atom   25 type  2   force =     0.00000015   -0.00000048   -0.00000009
     atom   26 type  2   force =     0.00000042   -0.00000060   -0.00000012
     atom   27 type  2   force =    -0.00000008   -0.00000064   -0.00000003
     atom   28 type  3   force =     0.00000122   -0.00000072    0.00000211
     atom   29 type  2   force =    -0.00000066    0.00000038    0.00000022
     atom   30 type  2   force =    -0.00000046    0.00000058    0.00000002
     atom   31 type  2   force =    -0.00000036    0.00000029   -0.00000011
     atom   32 type  2   force =    -0.00000007    0.00000018    0.00000000
     atom   33 type  2   force =     0.00000003    0.00000025    0.00000002
     atom   34 type  2   force =     0.00000015   -0.00000002    0.00000007
     atom   35 type  2   force =     0.00000009   -0.00000020   -0.00000003
     atom   36 type  2   force =     0.00000031   -0.00000018   -0.00000020
     atom   37 type  2   force =     0.00000063   -0.00000036   -0.00000005
     atom   38 type  2   force =     0.00000073   -0.00000006   -0.00000011
     atom   39 type  2   force =     0.00000051    0.00000039   -0.00000003
     atom   40 type  2   force =     0.00000035    0.00000065   -0.00000008
     atom   41 type  2   force =    -0.00000004    0.00000072   -0.00000010
     atom   42 type  2   force =    -0.00000010    0.00000038   -0.00000002
     atom   43 type  2   force =     0.00000001    0.00000044   -0.00000012
     atom   44 type  2   force =    -0.00000010    0.00000006    0.00000002
     atom   45 type  2   force =     0.00000008   -0.00000004    0.00000007
     atom   46 type  2   force =     0.00000009   -0.00000012    0.00000007
     atom   47 type  2   force =     0.00000022    0.00000002   -0.00000003
     atom   48 type  2   force =     0.00000026   -0.00000000   -0.00000002
     atom   49 type  2   force =     0.00000049    0.00000011   -0.00000009
     atom   50 type  2   force =     0.00000046    0.00000022   -0.00000002
     atom   51 type  2   force =     0.00000033    0.00000041   -0.00000007
     atom   52 type  2   force =     0.00000006    0.00000022   -0.00000005

     Total force =     0.028792     Total SCF correction =     0.000005

     number of scf cycles    =  50
     number of bfgs steps    =  49

     energy   old            =    -758.4141022628 Ry
     energy   new            =    -758.4156168580 Ry

     CASE: energy  _new < energy  _old

     new trust radius        =       0.0507980896 bohr
     new conv_thr            =            1.1E-11 Ry


ATOMIC_POSITIONS (angstrom)
H        2.170831541   5.863370269   3.229329900
H        2.833696343   5.480665097   3.384414667
C       -0.013379632   0.007724734  -0.274732246
C       -0.018062962   1.424935058  -0.222459671
C       -1.244859230   2.143840093  -0.169301886
C       -1.240210866   3.568918301  -0.054587484
C       -2.473058487   4.278177032  -0.077515311
C       -2.465973107   5.700276012  -0.041865381
C       -3.694480194   6.411935997  -0.137509765
C       -3.702890499   7.833915019  -0.164380340
C       -4.934184737   8.548809232  -0.237187064
C       -4.943391443   9.970768824  -0.278477771
C        2.455908414  -0.001275287  -0.237187064
C        2.456228751   1.415991907  -0.183536587
C        1.211941390   2.123555004  -0.159670869
C        1.201057267   3.528812384   0.027940689
C       -0.017263394   4.271908649   0.115943385
C       -0.020861580   5.701718620   0.310660532
C       -1.244176037   6.413255062   0.123224417
C       -1.250008072   7.838392941   0.086890037
C       -2.474043228   8.545089967  -0.087083149
C       -2.472571292   9.964890395  -0.164380340
C        4.926347193  -0.006454297  -0.137509765
C        4.930540466   1.413272698  -0.162255940
C        3.697795243   2.112085790  -0.134348264
C        3.696112018   3.531894592  -0.016090338
C        2.446790017   4.165489126   0.171001875
V        2.715011807   5.549187646   1.384898818
C        1.166184639   6.443403428   0.610134218
C        1.214979416   7.842258014   0.310660532
C       -0.012886448   8.545911189   0.123224417
C       -0.006327013   9.960508015  -0.041865381
C        7.384947515   0.002642959  -0.077515311
C        7.388515308   1.425604615  -0.138605172
C        6.158538396   2.136244510  -0.150776171
C        6.158569815   3.561048503  -0.133809483
C        4.927976865   4.271531674  -0.050496347
C        4.952588944   5.708176467  -0.016090338
C        3.779218981   6.473323790   0.171001875
C        3.707730839   7.870498369   0.027940689
C        2.455030265   8.554046878   0.115943385
C        2.452364030   9.964645632  -0.054587484
C        9.847437153   0.006159671  -0.169301886
C        9.848765578   1.430512986  -0.173767330
C        8.620599641   2.139594920  -0.142590605
C        8.622891217   3.563606405  -0.138605172
C        7.392470559   4.273477709  -0.150776171
C        7.404583549   5.698441019  -0.162255940
C        6.183021047   6.416623151  -0.134348264
C        6.165072788   7.839898217  -0.183536587
C        4.930161491   8.563701131  -0.159670869
C        4.920181935   9.978226121  -0.222459671



     Writing output data file vanadio-top-2.1.save/
     NEW-OLD atomic charge density approx. for the potential

     Check: negative core charge=   -0.000002

     negative rho (up, down):  9.642E-04 7.067E-03

     Writing output data file vanadio-top-2.1.save/

     init_run     :     69.20s CPU     70.61s WALL (       1 calls)
     electrons    : 117792.06s CPU 119935.99s WALL (      50 calls)
     update_pot   :   1027.11s CPU   1047.39s WALL (      50 calls)
     forces       :   2734.84s CPU   2797.04s WALL (      50 calls)

     Called by init_run:
     wfcinit      :     41.87s CPU     42.17s WALL (       1 calls)
     wfcinit:atom :      0.05s CPU      0.08s WALL (       2 calls)
     wfcinit:wfcr :     41.42s CPU     41.65s WALL (       2 calls)
     potinit      :     11.21s CPU     11.65s WALL (       1 calls)
     hinit0       :      6.72s CPU      6.76s WALL (       1 calls)

     Called by electrons:
     c_bands      :  77602.43s CPU  78029.57s WALL (    1162 calls)
     sum_band     :  23229.10s CPU  23923.80s WALL (    1162 calls)
     v_of_rho     :   8546.27s CPU   8962.08s WALL (    1213 calls)
     v_h          :     88.34s CPU     91.13s WALL (    1213 calls)
     v_xc         :   8805.50s CPU   9237.85s WALL (    1263 calls)
     newd         :   8467.15s CPU   9103.74s WALL (    1213 calls)
     mix_rho      :    402.81s CPU    410.65s WALL (    1162 calls)

     Called by c_bands:
     init_us_2    :    210.54s CPU    210.91s WALL (    4750 calls)
     cegterg      :  77075.01s CPU  77499.93s WALL (    2324 calls)

     Called by sum_band:
     sum_band:bec :      1.89s CPU      1.91s WALL (    2324 calls)
     addusdens    :  14551.53s CPU  15183.41s WALL (    1162 calls)

     Called by *egterg:
     h_psi        :  38566.51s CPU  38849.40s WALL (   12124 calls)
     s_psi        :  12627.20s CPU  12635.25s WALL (   12124 calls)
     g_psi        :     48.86s CPU     49.01s WALL (    9798 calls)
     cdiaghg      :    901.56s CPU    902.06s WALL (   12024 calls)
     cegterg:over :  10256.12s CPU  10262.23s WALL (    9798 calls)
     cegterg:upda :   6562.13s CPU   6597.24s WALL (    9798 calls)
     cegterg:last :   4629.61s CPU   4631.71s WALL (    2422 calls)

     Called by h_psi:
     h_psi:pot    :  38520.04s CPU  38752.42s WALL (   12124 calls)
     h_psi:calbec :  12664.08s CPU  12671.65s WALL (   12124 calls)
     vloc_psi     :  13227.15s CPU  13445.89s WALL (   12124 calls)
     add_vuspsi   :  12628.64s CPU  12634.81s WALL (   12124 calls)

     General routines
     calbec       :  18661.44s CPU  18672.42s WALL (   14848 calls)
     fft          :   5021.03s CPU   5184.47s WALL (   94173 calls)
     ffts         :     87.17s CPU     89.70s WALL (    4750 calls)
     fftw         :  14133.32s CPU  14374.95s WALL ( 1761176 calls)
     interpolate  :    200.08s CPU    205.43s WALL (    2426 calls)
     davcio       :      0.00s CPU      0.05s WALL (       2 calls)

     Parallel routines
     fft_scatt_xy :   3515.31s CPU   3558.94s WALL ( 1860099 calls)
     fft_scatt_yz :   6352.63s CPU   6640.45s WALL ( 1860099 calls)

     PWSCF        :   1d 9h53m CPU   1d10h30m WALL


   This run was terminated on:   7:49:17  21Oct2022            

=------------------------------------------------------------------------------=
   JOB DONE.
=------------------------------------------------------------------------------=
