
     Program PWSCF v.6.4.1 starts on  8Aug2022 at 20:21: 4 

     This program is part of the open-source Quantum ESPRESSO suite
     for quantum simulation of materials; please cite
         "P. Giannozzi et al., J. Phys.:Condens. Matter 21 395502 (2009);
         "P. Giannozzi et al., J. Phys.:Condens. Matter 29 465901 (2017);
          URL http://www.quantum-espresso.org", 
     in publications or presentations arising from this work. More details at
     http://www.quantum-espresso.org/quote

     Parallel version (MPI), running on     6 processors

     MPI processes distributed on     1 nodes
     R & G space division:  proc/nbgrp/npool/nimage =       6
     Reading input from mn-8.66.in

     Current dimensions of program PWSCF are:
     Max number of different atomic species (ntypx) = 10
     Max number of k-points (npk) =  40000
     Max angular momentum in pseudopotentials (lmaxx) =  3
               file Mn.pbe-spn-rrkjus_psl.0.3.1.UPF: wavefunction(s)  3D renormalized

     Subspace diagonalization in iterative solution of the eigenvalue problem:
     a serial algorithm will be used

     Message from routine setup:
     DEPRECATED: symmetry with ibrav=0, use correct ibrav instead

     Parallelization info
     --------------------
     sticks:   dense  smooth     PW     G-vecs:    dense   smooth      PW
     Min        1756     702    189               114227    28912    4050
     Max        1757     703    190               114228    28915    4052
     Sum       10541    4215   1139               685365   173479   24307



     bravais-lattice index     =            0
     lattice parameter (alat)  =      14.1725  a.u.
     unit-cell volume          =    2191.3931 (a.u.)^3
     number of atoms/cell      =           29
     number of atomic types    =            1
     number of electrons       =       435.00
     number of Kohn-Sham states=          262
     kinetic-energy cutoff     =      70.0000  Ry
     charge density cutoff     =     700.0000  Ry
     convergence threshold     =      1.0E-06
     mixing beta               =       0.7000
     number of iterations used =            8  plain     mixing
     Exchange-correlation      = PBE ( 1  4  3  4 0 0)

     celldm(1)=  14.172530  celldm(2)=   0.000000  celldm(3)=   0.000000
     celldm(4)=   0.000000  celldm(5)=   0.000000  celldm(6)=   0.000000

     crystal axes: (cart. coord. in units of alat)
               a(1) = (  -0.577350   0.577350   0.577350 )  
               a(2) = (   0.577350  -0.577350   0.577350 )  
               a(3) = (   0.577350   0.577350  -0.577350 )  

     reciprocal axes: (cart. coord. in units 2 pi/alat)
               b(1) = (  0.000000  0.866025  0.866025 )  
               b(2) = (  0.866025  0.000000  0.866025 )  
               b(3) = (  0.866025  0.866025  0.000000 )  


     PseudoPot. # 1 for Mn read from file:
     /home/cristian/Escritorio/Proyecto_Grafeno/pseudopotenciales/Mn.pbe-spn-rrkjus_psl.0.3.1.UPF
     MD5 check sum: e1cac159bdd2ba70c18e85765a5d4279
     Pseudo is Ultrasoft + core correction, Zval = 15.0
     Generated using "atomic" code by A. Dal Corso v.6.2.2
     Using radial grid of 1187 points,  6 beta functions with: 
                l(1) =   0
                l(2) =   0
                l(3) =   1
                l(4) =   1
                l(5) =   2
                l(6) =   2
     Q(r) pseudized with 0 coefficients 


     atomic species   valence    mass     pseudopotential
        Mn            15.00    54.93804     Mn( 1.00)

     Starting magnetic structure 
     atomic species   magnetization
        Mn           0.700

     24 Sym. Ops. (no inversion) found



   Cartesian axes

     site n.     atom                  positions (alat units)
         1           Mn  tau(   1) = (   0.0000000   0.0000000   0.0000000  )
         2           Mn  tau(   2) = (   0.3670447   0.3670447   0.3670447  )
         3           Mn  tau(   3) = (   0.2103056   0.2103056  -0.2103056  )
         4           Mn  tau(   4) = (   0.2103056  -0.2103056   0.2103056  )
         5           Mn  tau(   5) = (  -0.2103056   0.2103056   0.2103056  )
         6           Mn  tau(   6) = (   0.4739122   0.4739122  -0.2517940  )
         7           Mn  tau(   7) = (   0.1034381   0.1034381   0.3255563  )
         8           Mn  tau(   8) = (   0.1034381  -0.1034381   0.8291443  )
         9           Mn  tau(   9) = (  -0.1034381   0.1034381   0.8291443  )
        10           Mn  tau(  10) = (  -0.2517940   0.4739122   0.4739122  )
        11           Mn  tau(  11) = (   0.3255563   0.1034381   0.1034381  )
        12           Mn  tau(  12) = (   0.8291443   0.1034381  -0.1034381  )
        13           Mn  tau(  13) = (   0.8291443  -0.1034381   0.1034381  )
        14           Mn  tau(  14) = (   0.4739122  -0.2517940   0.4739122  )
        15           Mn  tau(  15) = (   0.1034381   0.3255563   0.1034381  )
        16           Mn  tau(  16) = (  -0.1034381   0.8291443   0.1034381  )
        17           Mn  tau(  17) = (   0.1034381   0.8291443  -0.1034381  )
        18           Mn  tau(  18) = (   0.1650529   0.1650529   0.6172683  )
        19           Mn  tau(  19) = (   0.4122974   0.4122974   0.0399180  )
        20           Mn  tau(  20) = (  -0.1650529   0.1650529   0.5374323  )
        21           Mn  tau(  21) = (   0.1650529  -0.1650529   0.5374323  )
        22           Mn  tau(  22) = (   0.6172683   0.1650529   0.1650529  )
        23           Mn  tau(  23) = (   0.0399180   0.4122974   0.4122974  )
        24           Mn  tau(  24) = (   0.5374323  -0.1650529   0.1650529  )
        25           Mn  tau(  25) = (   0.5374323   0.1650529  -0.1650529  )
        26           Mn  tau(  26) = (   0.1650529   0.6172683   0.1650529  )
        27           Mn  tau(  27) = (   0.4122974   0.0399180   0.4122974  )
        28           Mn  tau(  28) = (   0.1650529   0.5374323  -0.1650529  )
        29           Mn  tau(  29) = (  -0.1650529   0.5374323   0.1650529  )

     number of k points=    10  Methfessel-Paxton smearing, width (Ry)=  0.0300
                       cart. coord. in units 2pi/alat
        k(    1) = (   0.0000000   0.0000000   0.0000000), wk =   0.0080000
        k(    2) = (   0.1732051   0.1732051   0.0000000), wk =   0.0960000
        k(    3) = (   0.3464102   0.3464102   0.0000000), wk =   0.0960000
        k(    4) = (   0.3464102   0.1732051   0.1732051), wk =   0.1920000
        k(    5) = (   0.5196152   0.3464102   0.1732051), wk =   0.1920000
        k(    6) = (   0.3464102   0.3464102   0.3464102), wk =   0.0640000
        k(    7) = (   0.0000000   0.0000000   0.3464102), wk =   0.0480000
        k(    8) = (   0.0000000  -0.1732051   0.5196152), wk =   0.1920000
        k(    9) = (  -0.6928203  -0.1732051  -0.1732051), wk =   0.0640000
        k(   10) = (   0.0000000   0.0000000   0.6928203), wk =   0.0480000

     Dense  grid:   685365 G-vectors     FFT dimensions: ( 120, 120, 120)

     Smooth grid:   173479 G-vectors     FFT dimensions: (  75,  75,  75)

     Estimated max dynamical RAM per process >     825.75 MB

     Estimated total dynamical RAM >       4.84 GB
     Generating pointlists ...
     new r_m :   0.1207 (alat units)  1.7104 (a.u.) for type    1

     Check: negative core charge=   -0.000005

     Initial potential from superposition of free atoms

     starting charge  434.98555, renormalised to  435.00000
     Starting wfcs are  290 randomized atomic wfcs

     total cpu time spent up to now is      190.8 secs

     Self-consistent Calculation

     iteration #  1     ecut=    70.00 Ry     beta= 0.70
     Davidson diagonalization with overlap
     ethr =  1.00E-02,  avg # of iterations =  3.0

     total cpu time spent up to now is      803.3 secs

     total energy              =   -6194.97283734 Ry
     Harris-Foulkes estimate   =   -6168.50191341 Ry
     estimated scf accuracy    <      37.42099284 Ry

     total magnetization       =    89.00 Bohr mag/cell
     absolute magnetization    =    93.41 Bohr mag/cell

     iteration #  2     ecut=    70.00 Ry     beta= 0.70
     Davidson diagonalization with overlap
     ethr =  8.60E-03,  avg # of iterations =  3.7

     total cpu time spent up to now is     1314.4 secs

     total energy              =   -6180.83417011 Ry
     Harris-Foulkes estimate   =   -6199.29330162 Ry
     estimated scf accuracy    <      48.66089996 Ry

     total magnetization       =    81.22 Bohr mag/cell
     absolute magnetization    =    84.06 Bohr mag/cell

     iteration #  3     ecut=    70.00 Ry     beta= 0.70
     Davidson diagonalization with overlap
     ethr =  8.60E-03,  avg # of iterations =  5.4

     total cpu time spent up to now is     2045.8 secs

     total energy              =   -6197.64224037 Ry
     Harris-Foulkes estimate   =   -6221.37714272 Ry
     estimated scf accuracy    <     166.57496956 Ry

     total magnetization       =    59.85 Bohr mag/cell
     absolute magnetization    =    62.69 Bohr mag/cell

     iteration #  4     ecut=    70.00 Ry     beta= 0.70
     Davidson diagonalization with overlap
     ethr =  8.60E-03,  avg # of iterations =  3.8

     total cpu time spent up to now is     2619.8 secs

     total energy              =   -6199.18036479 Ry
     Harris-Foulkes estimate   =   -6203.76102648 Ry
     estimated scf accuracy    <      49.33452620 Ry

     total magnetization       =    39.14 Bohr mag/cell
     absolute magnetization    =    46.57 Bohr mag/cell

     iteration #  5     ecut=    70.00 Ry     beta= 0.70
     Davidson diagonalization with overlap
     ethr =  8.60E-03,  avg # of iterations =  1.8

     total cpu time spent up to now is     3083.9 secs

     total energy              =   -6199.94434499 Ry
     Harris-Foulkes estimate   =   -6200.41064611 Ry
     estimated scf accuracy    <      29.53625772 Ry

     total magnetization       =    35.27 Bohr mag/cell
     absolute magnetization    =    46.49 Bohr mag/cell

     iteration #  6     ecut=    70.00 Ry     beta= 0.70
     Davidson diagonalization with overlap
     ethr =  6.79E-03,  avg # of iterations =  1.1

     total cpu time spent up to now is     3535.5 secs

     total energy              =   -6199.40501165 Ry
     Harris-Foulkes estimate   =   -6200.37533487 Ry
     estimated scf accuracy    <      22.45723927 Ry

     total magnetization       =    34.60 Bohr mag/cell
     absolute magnetization    =    45.17 Bohr mag/cell

     iteration #  7     ecut=    70.00 Ry     beta= 0.70
     Davidson diagonalization with overlap
     ethr =  5.16E-03,  avg # of iterations =  3.5

     total cpu time spent up to now is     4043.4 secs

     total energy              =   -6199.44088944 Ry
     Harris-Foulkes estimate   =   -6200.80010791 Ry
     estimated scf accuracy    <      13.32247430 Ry

     total magnetization       =    29.24 Bohr mag/cell
     absolute magnetization    =    44.69 Bohr mag/cell

     iteration #  8     ecut=    70.00 Ry     beta= 0.70
     Davidson diagonalization with overlap
     ethr =  3.06E-03,  avg # of iterations =  4.4

     total cpu time spent up to now is     4710.5 secs

     total energy              =   -6202.06071820 Ry
     Harris-Foulkes estimate   =   -6203.56574971 Ry
     estimated scf accuracy    <      44.14466248 Ry

     total magnetization       =    23.57 Bohr mag/cell
     absolute magnetization    =    27.85 Bohr mag/cell

     iteration #  9     ecut=    70.00 Ry     beta= 0.70
     Davidson diagonalization with overlap
     ethr =  3.06E-03,  avg # of iterations =  1.1

     total cpu time spent up to now is     5165.0 secs

     total energy              =   -6201.77360293 Ry
     Harris-Foulkes estimate   =   -6202.28289488 Ry
     estimated scf accuracy    <      25.10512863 Ry

     total magnetization       =    18.76 Bohr mag/cell
     absolute magnetization    =    27.25 Bohr mag/cell

     iteration # 10     ecut=    70.00 Ry     beta= 0.70
     Davidson diagonalization with overlap
     ethr =  3.06E-03,  avg # of iterations =  1.0

     total cpu time spent up to now is     5617.0 secs

     total energy              =   -6202.07624715 Ry
     Harris-Foulkes estimate   =   -6201.83649237 Ry
     estimated scf accuracy    <      17.99204056 Ry

     total magnetization       =    17.37 Bohr mag/cell
     absolute magnetization    =    27.33 Bohr mag/cell

     iteration # 11     ecut=    70.00 Ry     beta= 0.70
     Davidson diagonalization with overlap
     ethr =  3.06E-03,  avg # of iterations =  1.0

     total cpu time spent up to now is     6074.8 secs

     total energy              =   -6201.85781277 Ry
     Harris-Foulkes estimate   =   -6202.15071244 Ry
     estimated scf accuracy    <      20.49949918 Ry

     total magnetization       =    11.78 Bohr mag/cell
     absolute magnetization    =    24.46 Bohr mag/cell

     iteration # 12     ecut=    70.00 Ry     beta= 0.70
     Davidson diagonalization with overlap
     ethr =  3.06E-03,  avg # of iterations =  1.0

     total cpu time spent up to now is     6559.7 secs

     total energy              =   -6200.05769543 Ry
     Harris-Foulkes estimate   =   -6202.03014119 Ry
     estimated scf accuracy    <      18.80478205 Ry

     total magnetization       =     7.09 Bohr mag/cell
     absolute magnetization    =    21.29 Bohr mag/cell

     iteration # 13     ecut=    70.00 Ry     beta= 0.70
     Davidson diagonalization with overlap
     ethr =  3.06E-03,  avg # of iterations =  5.0

     total cpu time spent up to now is     7102.7 secs

     total energy              =   -6201.27525594 Ry
     Harris-Foulkes estimate   =   -6202.37674210 Ry
     estimated scf accuracy    <      14.87032922 Ry

     total magnetization       =    -0.58 Bohr mag/cell
     absolute magnetization    =    22.60 Bohr mag/cell

     iteration # 14     ecut=    70.00 Ry     beta= 0.70
     Davidson diagonalization with overlap
     ethr =  3.06E-03,  avg # of iterations =  1.0

     total cpu time spent up to now is     7582.3 secs

     total energy              =   -6201.15093823 Ry
     Harris-Foulkes estimate   =   -6201.44207788 Ry
     estimated scf accuracy    <       7.24972875 Ry

     total magnetization       =     4.87 Bohr mag/cell
     absolute magnetization    =    22.92 Bohr mag/cell

     iteration # 15     ecut=    70.00 Ry     beta= 0.70
     Davidson diagonalization with overlap
     ethr =  1.67E-03,  avg # of iterations =  2.9

     total cpu time spent up to now is     8088.6 secs

     total energy              =   -6201.28003414 Ry
     Harris-Foulkes estimate   =   -6201.32258836 Ry
     estimated scf accuracy    <       0.54607210 Ry

     total magnetization       =     3.36 Bohr mag/cell
     absolute magnetization    =    23.60 Bohr mag/cell

     iteration # 16     ecut=    70.00 Ry     beta= 0.70
     Davidson diagonalization with overlap
     ethr =  1.26E-04,  avg # of iterations =  5.6

     total cpu time spent up to now is     8887.2 secs

     total energy              =   -6201.25892573 Ry
     Harris-Foulkes estimate   =   -6201.46913482 Ry
     estimated scf accuracy    <       1.65983807 Ry

     total magnetization       =    -2.20 Bohr mag/cell
     absolute magnetization    =    23.36 Bohr mag/cell

     iteration # 17     ecut=    70.00 Ry     beta= 0.70
     Davidson diagonalization with overlap
     ethr =  1.26E-04,  avg # of iterations =  5.5

     total cpu time spent up to now is     9509.8 secs

     total energy              =   -6201.44744731 Ry
     Harris-Foulkes estimate   =   -6201.54536787 Ry
     estimated scf accuracy    <       4.38766843 Ry

     total magnetization       =    -2.34 Bohr mag/cell
     absolute magnetization    =    22.65 Bohr mag/cell

     iteration # 18     ecut=    70.00 Ry     beta= 0.70
     Davidson diagonalization with overlap
     ethr =  1.26E-04,  avg # of iterations =  1.1

     total cpu time spent up to now is     9989.9 secs

     total energy              =   -6201.41836018 Ry
     Harris-Foulkes estimate   =   -6201.47476608 Ry
     estimated scf accuracy    <       1.80008059 Ry

     total magnetization       =    -4.49 Bohr mag/cell
     absolute magnetization    =    22.98 Bohr mag/cell

     iteration # 19     ecut=    70.00 Ry     beta= 0.70
     Davidson diagonalization with overlap
     ethr =  1.26E-04,  avg # of iterations =  3.0

     total cpu time spent up to now is    10460.5 secs

     total energy              =   -6201.43725247 Ry
     Harris-Foulkes estimate   =   -6201.44460923 Ry
     estimated scf accuracy    <       0.16859120 Ry

     total magnetization       =    -6.12 Bohr mag/cell
     absolute magnetization    =    23.54 Bohr mag/cell

     iteration # 20     ecut=    70.00 Ry     beta= 0.70
     Davidson diagonalization with overlap
     ethr =  3.88E-05,  avg # of iterations =  2.3

     total cpu time spent up to now is    10918.7 secs

     total energy              =   -6201.44416231 Ry
     Harris-Foulkes estimate   =   -6201.44366218 Ry
     estimated scf accuracy    <       0.00613207 Ry

     total magnetization       =    -6.69 Bohr mag/cell
     absolute magnetization    =    23.79 Bohr mag/cell

     iteration # 21     ecut=    70.00 Ry     beta= 0.70
     Davidson diagonalization with overlap
     ethr =  1.41E-06,  avg # of iterations =  6.0

     total cpu time spent up to now is    11746.6 secs

     total energy              =   -6201.44762779 Ry
     Harris-Foulkes estimate   =   -6201.44593339 Ry
     estimated scf accuracy    <       0.00557309 Ry

     total magnetization       =    -6.99 Bohr mag/cell
     absolute magnetization    =    23.89 Bohr mag/cell

     iteration # 22     ecut=    70.00 Ry     beta= 0.70
     Davidson diagonalization with overlap
     ethr =  1.28E-06,  avg # of iterations =  2.8

     total cpu time spent up to now is    12248.1 secs

     total energy              =   -6201.44964439 Ry
     Harris-Foulkes estimate   =   -6201.44994405 Ry
     estimated scf accuracy    <       0.03820357 Ry

     total magnetization       =    -7.89 Bohr mag/cell
     absolute magnetization    =    24.18 Bohr mag/cell

     iteration # 23     ecut=    70.00 Ry     beta= 0.70
     Davidson diagonalization with overlap
     ethr =  1.28E-06,  avg # of iterations =  4.0

     total cpu time spent up to now is    12797.0 secs

     total energy              =   -6201.45235101 Ry
     Harris-Foulkes estimate   =   -6201.45097137 Ry
     estimated scf accuracy    <       0.00755358 Ry

     total magnetization       =    -7.96 Bohr mag/cell
     absolute magnetization    =    24.30 Bohr mag/cell

     iteration # 24     ecut=    70.00 Ry     beta= 0.70
     Davidson diagonalization with overlap
     ethr =  1.28E-06,  avg # of iterations =  3.7

     total cpu time spent up to now is    13275.4 secs

     total energy              =   -6201.45397895 Ry
     Harris-Foulkes estimate   =   -6201.45342568 Ry
     estimated scf accuracy    <       0.00893429 Ry

     total magnetization       =    -8.56 Bohr mag/cell
     absolute magnetization    =    24.56 Bohr mag/cell

     iteration # 25     ecut=    70.00 Ry     beta= 0.70
     Davidson diagonalization with overlap
     ethr =  1.28E-06,  avg # of iterations =  6.5

     total cpu time spent up to now is    13861.6 secs

     total energy              =   -6201.45692418 Ry
     Harris-Foulkes estimate   =   -6201.45648159 Ry
     estimated scf accuracy    <       0.00246239 Ry

     total magnetization       =    -8.16 Bohr mag/cell
     absolute magnetization    =    24.81 Bohr mag/cell

     iteration # 26     ecut=    70.00 Ry     beta= 0.70
     Davidson diagonalization with overlap
     ethr =  5.66E-07,  avg # of iterations =  6.0

     total cpu time spent up to now is    14636.4 secs

     total energy              =   -6201.45935508 Ry
     Harris-Foulkes estimate   =   -6201.46126770 Ry
     estimated scf accuracy    <       0.00321824 Ry

     total magnetization       =    -8.91 Bohr mag/cell
     absolute magnetization    =    25.26 Bohr mag/cell

     iteration # 27     ecut=    70.00 Ry     beta= 0.70
     Davidson diagonalization with overlap
     ethr =  5.66E-07,  avg # of iterations =  5.9

     total cpu time spent up to now is    15411.3 secs

     total energy              =   -6201.46132069 Ry
     Harris-Foulkes estimate   =   -6201.46261356 Ry
     estimated scf accuracy    <       0.01658349 Ry

     total magnetization       =    -9.64 Bohr mag/cell
     absolute magnetization    =    25.46 Bohr mag/cell

     iteration # 28     ecut=    70.00 Ry     beta= 0.70
     Davidson diagonalization with overlap
     ethr =  5.66E-07,  avg # of iterations =  4.7

     total cpu time spent up to now is    15936.5 secs

     total energy              =   -6201.46191978 Ry
     Harris-Foulkes estimate   =   -6201.46215576 Ry
     estimated scf accuracy    <       0.00090166 Ry

     total magnetization       =    -9.42 Bohr mag/cell
     absolute magnetization    =    25.47 Bohr mag/cell

     iteration # 29     ecut=    70.00 Ry     beta= 0.70
     Davidson diagonalization with overlap
     ethr =  2.07E-07,  avg # of iterations =  4.3

     total cpu time spent up to now is    16498.7 secs

     total energy              =   -6201.46215330 Ry
     Harris-Foulkes estimate   =   -6201.46213702 Ry
     estimated scf accuracy    <       0.00011569 Ry

     total magnetization       =    -9.39 Bohr mag/cell
     absolute magnetization    =    25.38 Bohr mag/cell

     iteration # 30     ecut=    70.00 Ry     beta= 0.70
     Davidson diagonalization with overlap
     ethr =  2.66E-08,  avg # of iterations =  4.5

     total cpu time spent up to now is    17063.6 secs

     total energy              =   -6201.46214310 Ry
     Harris-Foulkes estimate   =   -6201.46218736 Ry
     estimated scf accuracy    <       0.00005291 Ry

     total magnetization       =    -9.51 Bohr mag/cell
     absolute magnetization    =    25.38 Bohr mag/cell

     iteration # 31     ecut=    70.00 Ry     beta= 0.70
     Davidson diagonalization with overlap
     ethr =  1.22E-08,  avg # of iterations =  4.5

     total cpu time spent up to now is    17742.3 secs

     total energy              =   -6201.46219895 Ry
     Harris-Foulkes estimate   =   -6201.46219935 Ry
     estimated scf accuracy    <       0.00001008 Ry

     total magnetization       =    -9.56 Bohr mag/cell
     absolute magnetization    =    25.40 Bohr mag/cell

     iteration # 32     ecut=    70.00 Ry     beta= 0.70
     Davidson diagonalization with overlap
     ethr =  2.32E-09,  avg # of iterations =  5.0

     total cpu time spent up to now is    18427.7 secs

     total energy              =   -6201.46220726 Ry
     Harris-Foulkes estimate   =   -6201.46220749 Ry
     estimated scf accuracy    <       0.00000411 Ry

     total magnetization       =    -9.53 Bohr mag/cell
     absolute magnetization    =    25.37 Bohr mag/cell

     iteration # 33     ecut=    70.00 Ry     beta= 0.70
     Davidson diagonalization with overlap
     ethr =  9.44E-10,  avg # of iterations =  1.6

     total cpu time spent up to now is    18878.8 secs

     total energy              =   -6201.46220786 Ry
     Harris-Foulkes estimate   =   -6201.46220760 Ry
     estimated scf accuracy    <       0.00000105 Ry

     total magnetization       =    -9.53 Bohr mag/cell
     absolute magnetization    =    25.37 Bohr mag/cell

     iteration # 34     ecut=    70.00 Ry     beta= 0.70
     Davidson diagonalization with overlap
     ethr =  2.42E-10,  avg # of iterations =  4.2

     Magnetic moment per site:
     atom:    1    charge:   12.5678    magn:   -2.7165    constr:    0.0000
     atom:    2    charge:   12.5880    magn:   -2.4128    constr:    0.0000
     atom:    3    charge:   12.5880    magn:   -2.4128    constr:    0.0000
     atom:    4    charge:   12.5880    magn:   -2.4128    constr:    0.0000
     atom:    5    charge:   12.5880    magn:   -2.4128    constr:    0.0000
     atom:    6    charge:   12.7195    magn:   -0.2911    constr:    0.0000
     atom:    7    charge:   12.7195    magn:   -0.2911    constr:    0.0000
     atom:    8    charge:   12.7195    magn:   -0.2911    constr:    0.0000
     atom:    9    charge:   12.7195    magn:   -0.2911    constr:    0.0000
     atom:   10    charge:   12.7195    magn:   -0.2911    constr:    0.0000
     atom:   11    charge:   12.7195    magn:   -0.2911    constr:    0.0000
     atom:   12    charge:   12.7195    magn:   -0.2911    constr:    0.0000
     atom:   13    charge:   12.7195    magn:   -0.2911    constr:    0.0000
     atom:   14    charge:   12.7195    magn:   -0.2911    constr:    0.0000
     atom:   15    charge:   12.7195    magn:   -0.2911    constr:    0.0000
     atom:   16    charge:   12.7195    magn:   -0.2911    constr:    0.0000
     atom:   17    charge:   12.7195    magn:   -0.2911    constr:    0.0000
     atom:   18    charge:   12.6582    magn:    0.5705    constr:    0.0000
     atom:   19    charge:   12.6582    magn:    0.5705    constr:    0.0000
     atom:   20    charge:   12.6582    magn:    0.5705    constr:    0.0000
     atom:   21    charge:   12.6582    magn:    0.5705    constr:    0.0000
     atom:   22    charge:   12.6582    magn:    0.5705    constr:    0.0000
     atom:   23    charge:   12.6582    magn:    0.5705    constr:    0.0000
     atom:   24    charge:   12.6582    magn:    0.5705    constr:    0.0000
     atom:   25    charge:   12.6582    magn:    0.5705    constr:    0.0000
     atom:   26    charge:   12.6582    magn:    0.5705    constr:    0.0000
     atom:   27    charge:   12.6582    magn:    0.5705    constr:    0.0000
     atom:   28    charge:   12.6582    magn:    0.5705    constr:    0.0000
     atom:   29    charge:   12.6582    magn:    0.5705    constr:    0.0000

     total cpu time spent up to now is    19572.7 secs

     End of self-consistent calculation

 ------ SPIN UP ------------


          k = 0.0000 0.0000 0.0000 ( 21769 PWs)   bands (ev):

   -60.4055 -60.3634 -60.3634 -60.3634 -60.3495 -60.3495 -60.3305 -60.3305
   -60.3305 -60.3280 -60.3280 -60.3280 -59.9148 -59.8907 -59.8907 -59.8907
   -59.8552 -59.8552 -59.7903 -59.7903 -59.7903 -59.7536 -59.7536 -59.7536
   -58.4060 -58.4060 -58.4060 -58.4057 -58.1087 -29.3043 -29.3043 -29.2919
   -29.2919 -29.2919 -29.2677 -29.2516 -29.2516 -29.2516 -29.2391 -29.2391
   -29.2391 -29.2289 -29.2289 -29.1741 -29.1741 -29.1741 -29.1564 -29.1564
   -29.1454 -29.1454 -29.1454 -29.1231 -29.0528 -29.0528 -29.0528 -28.9945
   -28.9945 -28.9945 -28.9481 -28.9481 -28.9481 -28.9480 -28.9480 -28.9480
   -28.9440 -28.9429 -28.9209 -28.9209 -28.9209 -28.8501 -28.8501 -28.6666
   -28.6562 -28.6562 -28.6562 -28.6353 -28.6353 -28.6353 -28.6273 -28.6273
   -28.6273 -28.6224 -28.6224 -28.4804 -28.4804 -28.4804 -28.4590 -28.3725
   -28.3725 -28.3685 -28.3685 -28.3685 -28.3667 -28.3667 -28.3667 -28.3290
   -28.3290 -28.3290 -28.2648 -28.2648 -28.2648 -27.2220 -27.2220 -27.2220
   -27.2209 -27.2209 -27.2209 -27.2206 -27.2206 -27.1347 -27.1347 -27.1347
   -27.1236 -26.8944 -26.8944 -26.8944  10.9726  14.3769  14.3769  14.3769
    14.4385  14.4385  14.4385  14.4611  14.5584  14.5584  14.5584  14.6554
    14.6554  15.0607  15.2690  15.2690  15.2690  15.3610  15.3610  15.5447
    15.5447  15.5447  15.5970  15.9234  15.9234  15.9234  16.0250  16.0250
    16.0250  16.1160  16.2327  16.2327  16.3695  16.3695  16.3695  16.3820
    16.3820  16.3820  16.5093  16.7212  16.7212  16.7212  16.7775  16.7775
    16.8551  16.8551  16.8551  17.0694  17.0694  17.0694  17.0899  17.0899
    17.0899  17.1653  17.1653  17.1995  17.1995  17.1995  17.4572  17.4572
    17.4572  17.5305  17.6709  17.6709  17.6709  17.7508  17.8152  17.8152
    17.8303  17.8303  17.8303  17.8580  17.9285  17.9285  17.9285  18.0648
    18.0648  18.0648  18.1529  18.1529  18.2635  18.2635  18.5546  18.5546
    18.5546  18.8488  18.8488  18.8488  18.8909  19.0292  19.0292  19.0560
    19.0560  19.0560  19.1725  19.1725  19.1725  19.2566  19.2566  19.2566
    19.3534  19.3534  19.6880  19.6880  19.6880  19.7544  19.7544  19.7544
    19.8457  19.8457  19.8614  19.8614  19.8614  19.9947  19.9947  19.9947
    20.2711  20.2711  20.2711  20.3647  20.3647  20.3647  20.3796  20.3796
    20.4565  20.4565  20.4565  20.5084  20.5084  20.5084  20.5138  20.6031
    20.6031  20.6717  20.6717  20.6717  20.8674  20.9496  21.0214  21.0214
    21.0214  21.0652  21.0652  21.0652  21.1866  21.1866

          k = 0.1732 0.1732 0.0000 ( 21623 PWs)   bands (ev):

   -60.4028 -60.3704 -60.3642 -60.3636 -60.3485 -60.3451 -60.3307 -60.3306
   -60.3303 -60.3282 -60.3280 -60.3278 -59.9180 -59.8905 -59.8905 -59.8878
   -59.8555 -59.8547 -59.7903 -59.7900 -59.7894 -59.7544 -59.7541 -59.7539
   -58.4060 -58.4060 -58.4059 -58.4057 -58.1087 -29.3138 -29.3108 -29.2896
   -29.2888 -29.2832 -29.2694 -29.2648 -29.2615 -29.2462 -29.2418 -29.2408
   -29.2271 -29.2217 -29.2193 -29.1932 -29.1806 -29.1629 -29.1545 -29.1464
   -29.1434 -29.1360 -29.1309 -29.1298 -29.0616 -29.0505 -29.0396 -29.0261
   -29.0186 -29.0012 -28.9596 -28.9542 -28.9540 -28.9505 -28.9409 -28.9357
   -28.9354 -28.9260 -28.9232 -28.9158 -28.9053 -28.8521 -28.8432 -28.6765
   -28.6626 -28.6615 -28.6513 -28.6373 -28.6370 -28.6335 -28.6293 -28.6274
   -28.6201 -28.6158 -28.6148 -28.4847 -28.4816 -28.4805 -28.4537 -28.3875
   -28.3791 -28.3765 -28.3726 -28.3687 -28.3633 -28.3564 -28.3552 -28.3296
   -28.3277 -28.3270 -28.2648 -28.2648 -28.2646 -27.2228 -27.2227 -27.2226
   -27.2214 -27.2214 -27.2202 -27.2199 -27.2193 -27.1346 -27.1345 -27.1341
   -27.1242 -26.8946 -26.8944 -26.8944  11.1573  13.5328  14.0742  14.1171
    14.1267  14.1310  14.5189  14.5881  14.7798  14.8221  14.9307  14.9716
    15.0087  15.1022  15.1465  15.2539  15.2628  15.3590  15.3793  15.4118
    15.5212  15.6182  15.7093  15.8406  15.8802  15.8821  16.0972  16.1067
    16.1727  16.2128  16.2519  16.3310  16.3724  16.3869  16.4309  16.4465
    16.4578  16.4867  16.5890  16.6123  16.6969  16.7019  16.7727  16.7933
    16.8832  16.8896  16.9484  16.9949  16.9957  17.0338  17.0443  17.0531
    17.1054  17.1475  17.1800  17.2158  17.2400  17.3027  17.3211  17.3848
    17.3990  17.5532  17.5791  17.6393  17.6670  17.6902  17.7226  17.7546
    17.7769  17.8138  17.8292  17.8765  17.9562  17.9863  17.9953  18.0390
    18.0575  18.1266  18.1665  18.1987  18.3216  18.3733  18.4976  18.5223
    18.5802  18.6557  18.7257  18.8215  18.8361  18.9302  18.9613  18.9915
    19.0643  19.0702  19.1107  19.1469  19.2177  19.2557  19.2686  19.3479
    19.4564  19.4707  19.6221  19.6428  19.7151  19.7629  19.8019  19.8047
    19.8415  19.8823  19.8903  19.9043  19.9562  19.9758  20.0223  20.0258
    20.1408  20.1949  20.2565  20.2614  20.2822  20.2991  20.3447  20.4380
    20.4606  20.5125  20.5336  20.5572  20.5711  20.5728  20.6246  20.6415
    20.6735  20.6989  20.7507  20.8106  20.8284  20.8843  20.9369  20.9603
    20.9935  21.0136  21.0269  21.0942  21.1197  21.1256

          k = 0.3464 0.3464 0.0000 ( 21677 PWs)   bands (ev):

   -60.3957 -60.3815 -60.3653 -60.3640 -60.3468 -60.3407 -60.3312 -60.3310
   -60.3300 -60.3285 -60.3279 -60.3274 -59.9222 -59.8903 -59.8901 -59.8843
   -59.8560 -59.8539 -59.7902 -59.7893 -59.7878 -59.7557 -59.7550 -59.7543
   -58.4060 -58.4060 -58.4059 -58.4058 -58.1087 -29.3239 -29.3122 -29.2898
   -29.2889 -29.2829 -29.2718 -29.2681 -29.2615 -29.2565 -29.2490 -29.2391
   -29.2165 -29.2053 -29.2044 -29.1918 -29.1917 -29.1680 -29.1589 -29.1430
   -29.1299 -29.1289 -29.1158 -29.1153 -29.0711 -29.0704 -29.0482 -29.0421
   -29.0189 -29.0076 -28.9703 -28.9649 -28.9613 -28.9492 -28.9438 -28.9425
   -28.9275 -28.9272 -28.9222 -28.8885 -28.8813 -28.8552 -28.8312 -28.6914
   -28.6737 -28.6688 -28.6472 -28.6397 -28.6386 -28.6310 -28.6286 -28.6277
   -28.6098 -28.6075 -28.6043 -28.4891 -28.4840 -28.4809 -28.4475 -28.4005
   -28.3856 -28.3813 -28.3797 -28.3682 -28.3622 -28.3499 -28.3468 -28.3299
   -28.3266 -28.3237 -28.2648 -28.2648 -28.2642 -27.2238 -27.2235 -27.2234
   -27.2216 -27.2214 -27.2199 -27.2191 -27.2184 -27.1343 -27.1343 -27.1326
   -27.1257 -26.8950 -26.8946 -26.8944  11.6935  12.5257  13.8540  13.8997
    13.9116  13.9204  14.7287  14.7544  14.9066  14.9402  14.9888  15.0275
    15.0669  15.1433  15.2378  15.2561  15.3213  15.3916  15.3958  15.4938
    15.4950  15.6070  15.7192  15.8211  15.9127  15.9301  16.1227  16.1779
    16.1813  16.2754  16.3452  16.3547  16.4166  16.4614  16.4676  16.5373
    16.5504  16.5988  16.6163  16.6355  16.6529  16.7082  16.7830  16.8205
    16.8231  16.8441  16.8727  16.9408  16.9930  17.0355  17.0792  17.1509
    17.1633  17.1909  17.2093  17.2126  17.2967  17.3112  17.3282  17.3765
    17.4341  17.4704  17.5210  17.5632  17.5984  17.6286  17.6987  17.7236
    17.7279  17.7419  17.8222  17.8958  17.9177  17.9845  18.0469  18.1047
    18.1068  18.1492  18.1865  18.2555  18.3638  18.3752  18.4172  18.5322
    18.5434  18.6058  18.6367  18.6435  18.6867  18.7843  18.8188  18.9346
    18.9791  19.0096  19.0691  19.2040  19.2129  19.3105  19.3806  19.4114
    19.4452  19.5376  19.5437  19.5537  19.6853  19.7474  19.7771  19.8031
    19.8479  19.8569  19.9267  19.9294  19.9646  20.0093  20.0996  20.1455
    20.1527  20.2032  20.2373  20.2702  20.3123  20.3525  20.4182  20.4434
    20.4892  20.5185  20.5295  20.5704  20.6163  20.6245  20.7054  20.7386
    20.7536  20.8125  20.8251  20.8478  20.8667  20.8926  20.8968  20.9803
    21.0039  21.0184  21.0252  21.0806  21.0974  21.1588

          k = 0.3464 0.1732 0.1732 ( 21667 PWs)   bands (ev):

   -60.3977 -60.3774 -60.3703 -60.3591 -60.3488 -60.3408 -60.3313 -60.3305
   -60.3303 -60.3285 -60.3277 -60.3276 -59.9215 -59.8903 -59.8895 -59.8856
   -59.8556 -59.8543 -59.7902 -59.7892 -59.7884 -59.7553 -59.7549 -59.7543
   -58.4060 -58.4059 -58.4059 -58.4057 -58.1087 -29.3204 -29.3126 -29.2909
   -29.2862 -29.2837 -29.2737 -29.2730 -29.2610 -29.2584 -29.2382 -29.2322
   -29.2221 -29.2161 -29.2068 -29.1952 -29.1828 -29.1633 -29.1560 -29.1448
   -29.1392 -29.1257 -29.1234 -29.1188 -29.0752 -29.0629 -29.0367 -29.0362
   -29.0212 -29.0137 -28.9681 -28.9678 -28.9555 -28.9535 -28.9451 -28.9355
   -28.9267 -28.9261 -28.9146 -28.9053 -28.8844 -28.8507 -28.8361 -28.6873
   -28.6740 -28.6683 -28.6446 -28.6413 -28.6355 -28.6336 -28.6291 -28.6272
   -28.6110 -28.6081 -28.6076 -28.4879 -28.4832 -28.4817 -28.4484 -28.3962
   -28.3888 -28.3821 -28.3732 -28.3728 -28.3581 -28.3527 -28.3466 -28.3299
   -28.3261 -28.3257 -28.2648 -28.2647 -28.2644 -27.2237 -27.2235 -27.2230
   -27.2218 -27.2213 -27.2198 -27.2191 -27.2186 -27.1343 -27.1339 -27.1333
   -27.1254 -26.8949 -26.8946 -26.8945  11.5178  13.1130  13.1390  13.7798
    14.3002  14.3100  14.6568  14.6857  14.8828  14.9397  14.9530  15.0426
    15.0985  15.1316  15.1995  15.2507  15.2696  15.3435  15.3808  15.4833
    15.5324  15.5488  15.7600  15.8745  15.8775  15.9200  16.1363  16.1530
    16.1864  16.2955  16.3008  16.3764  16.4004  16.4231  16.5026  16.5088
    16.5319  16.5430  16.6218  16.6338  16.6524  16.6919  16.7325  16.7876
    16.8706  16.8772  16.9265  16.9655  16.9694  17.0403  17.0687  17.0715
    17.1501  17.1949  17.2044  17.2443  17.2827  17.2879  17.3432  17.3752
    17.4286  17.4550  17.5311  17.5477  17.6234  17.6337  17.6545  17.7307
    17.7372  17.8299  17.8431  17.9411  17.9428  17.9883  18.0190  18.0642
    18.0669  18.1460  18.1567  18.2844  18.3503  18.4151  18.4465  18.5135
    18.5510  18.5723  18.6441  18.7200  18.7616  18.7942  18.8156  18.8333
    19.0069  19.0677  19.0888  19.1602  19.2679  19.2948  19.3226  19.4441
    19.4802  19.5248  19.5530  19.6039  19.6339  19.6974  19.7697  19.8130
    19.8633  19.9120  19.9179  19.9577  19.9913  20.0120  20.0262  20.1280
    20.1797  20.1973  20.2476  20.2477  20.3166  20.3417  20.3843  20.4233
    20.4933  20.4996  20.5302  20.5671  20.5975  20.6182  20.6789  20.7362
    20.7736  20.7854  20.8055  20.8478  20.8770  20.8904  20.9377  20.9699
    20.9752  21.0216  21.0539  21.0546  21.1442  21.1488

          k = 0.5196 0.3464 0.1732 ( 21671 PWs)   bands (ev):

   -60.3911 -60.3851 -60.3726 -60.3568 -60.3495 -60.3386 -60.3317 -60.3306
   -60.3301 -60.3288 -60.3277 -60.3274 -59.9234 -59.8901 -59.8885 -59.8850
   -59.8555 -59.8542 -59.7898 -59.7891 -59.7877 -59.7559 -59.7552 -59.7547
   -58.4060 -58.4059 -58.4058 -58.4058 -58.1087 -29.3229 -29.3086 -29.2959
   -29.2925 -29.2806 -29.2792 -29.2753 -29.2626 -29.2581 -29.2392 -29.2374
   -29.2065 -29.2054 -29.1950 -29.1921 -29.1898 -29.1746 -29.1556 -29.1530
   -29.1252 -29.1216 -29.1200 -29.1073 -29.0886 -29.0803 -29.0432 -29.0275
   -29.0263 -28.9981 -28.9797 -28.9772 -28.9602 -28.9567 -28.9504 -28.9324
   -28.9291 -28.9286 -28.9086 -28.8865 -28.8809 -28.8470 -28.8327 -28.6932
   -28.6828 -28.6718 -28.6430 -28.6410 -28.6354 -28.6349 -28.6272 -28.6270
   -28.6057 -28.6041 -28.6025 -28.4886 -28.4853 -28.4823 -28.4455 -28.4008
   -28.3921 -28.3886 -28.3753 -28.3723 -28.3561 -28.3508 -28.3414 -28.3294
   -28.3266 -28.3250 -28.2648 -28.2647 -28.2641 -27.2241 -27.2239 -27.2233
   -27.2216 -27.2216 -27.2194 -27.2189 -27.2182 -27.1343 -27.1336 -27.1325
   -27.1264 -26.8950 -26.8947 -26.8945  12.1843  12.2206  12.9820  13.6583
    14.2091  14.5334  14.6433  14.6788  14.9164  14.9614  15.0034  15.0858
    15.1289  15.1321  15.2144  15.2723  15.2903  15.3111  15.4527  15.4964
    15.5837  15.6043  15.7286  15.8568  15.8595  15.9873  16.1294  16.1708
    16.2214  16.2500  16.3035  16.3891  16.4189  16.4314  16.4910  16.5074
    16.5761  16.5885  16.6174  16.6445  16.6570  16.7149  16.7207  16.8210
    16.8268  16.8509  16.8792  16.9703  17.0025  17.0799  17.0888  17.1268
    17.1588  17.1958  17.2290  17.2467  17.3150  17.3229  17.3824  17.4020
    17.4225  17.4450  17.5373  17.5489  17.5665  17.5932  17.6272  17.7335
    17.7384  17.7914  17.8247  17.9384  17.9502  18.0116  18.0292  18.0645
    18.1201  18.1875  18.2244  18.2730  18.2903  18.3860  18.4385  18.4780
    18.5161  18.5403  18.5590  18.5891  18.6628  18.7652  18.7855  18.8173
    18.9898  19.0728  19.1296  19.2277  19.2374  19.2925  19.3587  19.4029
    19.4315  19.5134  19.5242  19.5384  19.6002  19.6158  19.7409  19.8328
    19.8711  19.8854  19.9659  19.9672  20.0029  20.0282  20.0471  20.0999
    20.1650  20.2343  20.2474  20.2838  20.3870  20.4000  20.4572  20.4661
    20.5265  20.5435  20.5489  20.6336  20.6683  20.6946  20.7151  20.7426
    20.7753  20.7776  20.8552  20.8685  20.9078  20.9168  20.9350  20.9929
    21.0080  21.0326  21.0678  21.0783  21.1135  21.1284

          k = 0.3464 0.3464 0.3464 ( 21661 PWs)   bands (ev):

   -60.3909 -60.3807 -60.3807 -60.3517 -60.3447 -60.3447 -60.3310 -60.3310
   -60.3306 -60.3292 -60.3275 -60.3275 -59.9234 -59.8883 -59.8883 -59.8855
   -59.8558 -59.8558 -59.7896 -59.7885 -59.7885 -59.7553 -59.7553 -59.7547
   -58.4059 -58.4059 -58.4059 -58.4058 -58.1087 -29.3082 -29.3082 -29.2887
   -29.2854 -29.2846 -29.2846 -29.2732 -29.2732 -29.2724 -29.2235 -29.2235
   -29.2090 -29.2090 -29.2086 -29.1903 -29.1903 -29.1850 -29.1737 -29.1403
   -29.1200 -29.1200 -29.1069 -29.1069 -29.1006 -29.0907 -29.0405 -29.0405
   -29.0086 -29.0086 -28.9854 -28.9794 -28.9576 -28.9576 -28.9310 -28.9287
   -28.9287 -28.9190 -28.9051 -28.9051 -28.8812 -28.8392 -28.8392 -28.6914
   -28.6803 -28.6803 -28.6390 -28.6390 -28.6383 -28.6330 -28.6277 -28.6277
   -28.6080 -28.6030 -28.6030 -28.4864 -28.4826 -28.4826 -28.4468 -28.3934
   -28.3934 -28.3876 -28.3788 -28.3788 -28.3519 -28.3463 -28.3463 -28.3284
   -28.3270 -28.3270 -28.2649 -28.2646 -28.2646 -27.2238 -27.2238 -27.2237
   -27.2216 -27.2216 -27.2194 -27.2187 -27.2187 -27.1336 -27.1336 -27.1330
   -27.1265 -26.8949 -26.8946 -26.8946  12.0359  12.8177  12.8177  12.8680
    14.6840  14.7446  14.7446  14.8630  14.8859  14.9687  14.9687  15.0713
    15.1586  15.1586  15.1847  15.2143  15.2143  15.3904  15.4263  15.4263
    15.4925  15.4925  15.8291  15.8291  15.8590  16.0194  16.2362  16.2362
    16.2907  16.2907  16.3458  16.3598  16.3998  16.3998  16.4430  16.5096
    16.5096  16.5374  16.6032  16.6134  16.6134  16.6646  16.6871  16.6871
    16.8077  16.8077  16.9999  17.0102  17.0102  17.0291  17.1092  17.1642
    17.1642  17.2328  17.2328  17.2572  17.3148  17.3148  17.3304  17.3426
    17.4054  17.4054  17.4599  17.4599  17.6589  17.6589  17.7034  17.7579
    17.7919  17.7919  17.8568  17.9431  17.9431  17.9733  17.9733  18.0893
    18.1209  18.1209  18.2719  18.3070  18.3070  18.3127  18.4141  18.4141
    18.5239  18.5665  18.5717  18.5717  18.6657  18.6657  18.8769  18.9764
    18.9764  19.0796  19.0796  19.2195  19.3195  19.3195  19.3786  19.4123
    19.4123  19.4954  19.4954  19.5268  19.5368  19.6149  19.6149  19.7050
    19.8359  19.8359  19.8481  20.0012  20.0012  20.0666  20.0666  20.0886
    20.2029  20.3010  20.3010  20.3317  20.4106  20.4106  20.4702  20.5748
    20.5748  20.5774  20.6154  20.6154  20.6650  20.7322  20.7322  20.7807
    20.8024  20.8094  20.8094  20.9007  20.9007  20.9267  20.9813  20.9813
    21.0359  21.0401  21.0673  21.0673  21.1495  21.1495

          k = 0.0000 0.0000 0.3464 ( 21674 PWs)   bands (ev):

   -60.4002 -60.3740 -60.3639 -60.3639 -60.3530 -60.3395 -60.3315 -60.3301
   -60.3301 -60.3279 -60.3279 -60.3279 -59.9202 -59.8903 -59.8903 -59.8870
   -59.8554 -59.8534 -59.7896 -59.7896 -59.7892 -59.7547 -59.7546 -59.7546
   -58.4060 -58.4059 -58.4059 -58.4057 -58.1087 -29.3227 -29.3131 -29.2897
   -29.2897 -29.2820 -29.2762 -29.2762 -29.2672 -29.2395 -29.2331 -29.2331
   -29.2265 -29.2150 -29.2106 -29.2037 -29.1643 -29.1602 -29.1602 -29.1513
   -29.1402 -29.1369 -29.1247 -29.1247 -29.0494 -29.0494 -29.0431 -29.0359
   -29.0359 -28.9978 -28.9862 -28.9550 -28.9550 -28.9512 -28.9417 -28.9387
   -28.9270 -28.9270 -28.9079 -28.9079 -28.9037 -28.8572 -28.8333 -28.6800
   -28.6695 -28.6695 -28.6469 -28.6428 -28.6350 -28.6350 -28.6258 -28.6258
   -28.6133 -28.6118 -28.6101 -28.4868 -28.4836 -28.4836 -28.4491 -28.3953
   -28.3873 -28.3768 -28.3768 -28.3710 -28.3552 -28.3552 -28.3475 -28.3316
   -28.3261 -28.3261 -28.2646 -28.2646 -28.2644 -27.2235 -27.2233 -27.2225
   -27.2225 -27.2211 -27.2195 -27.2195 -27.2188 -27.1341 -27.1341 -27.1341
   -27.1248 -26.8947 -26.8945 -26.8945  11.3388  13.6494  13.6494  13.6547
    13.6820  14.5625  14.6052  14.6052  14.6779  14.9316  15.0347  15.0666
    15.0666  15.0746  15.1507  15.2427  15.2427  15.3059  15.4458  15.4822
    15.6025  15.6230  15.6230  15.8317  15.9329  15.9329  16.0782  16.1313
    16.1313  16.2508  16.2604  16.3927  16.3927  16.4400  16.4697  16.4730
    16.4730  16.5090  16.6221  16.6221  16.6368  16.7602  16.7729  16.8605
    16.8960  16.8960  16.9203  16.9583  16.9583  17.0023  17.0840  17.1346
    17.1797  17.1804  17.1804  17.2517  17.2643  17.3075  17.3075  17.3874
    17.3874  17.4271  17.5714  17.5714  17.5952  17.6079  17.6258  17.7682
    17.7682  17.7871  17.8873  17.9520  17.9634  17.9634  18.0241  18.0920
    18.1172  18.1917  18.2007  18.2007  18.2309  18.4936  18.4936  18.5000
    18.5195  18.6351  18.6709  18.6709  18.7645  18.8723  18.9325  18.9680
    18.9680  19.0175  19.0449  19.2221  19.2386  19.2386  19.3207  19.3796
    19.3796  19.6030  19.6541  19.6541  19.6985  19.6985  19.7562  19.7701
    19.8132  19.9404  19.9433  19.9433  20.0124  20.0147  20.1327  20.1327
    20.1844  20.1844  20.2098  20.2790  20.3387  20.3680  20.3680  20.3680
    20.4443  20.4813  20.4921  20.4921  20.5282  20.5793  20.6898  20.6898
    20.6940  20.7366  20.7366  20.7439  20.7932  20.8929  20.8929  20.9721
    21.0321  21.0321  21.0362  21.0583  21.1243  21.1488

          k = 0.0000-0.1732 0.5196 ( 21711 PWs)   bands (ev):

   -60.3935 -60.3821 -60.3650 -60.3643 -60.3543 -60.3350 -60.3321 -60.3301
   -60.3298 -60.3282 -60.3279 -60.3275 -59.9234 -59.8901 -59.8900 -59.8862
   -59.8541 -59.8525 -59.7895 -59.7890 -59.7879 -59.7560 -59.7555 -59.7551
   -58.4061 -58.4059 -58.4059 -58.4058 -58.1087 -29.3329 -29.3132 -29.2996
   -29.2982 -29.2856 -29.2789 -29.2748 -29.2603 -29.2503 -29.2384 -29.2348
   -29.2067 -29.2039 -29.1965 -29.1931 -29.1717 -29.1600 -29.1591 -29.1483
   -29.1399 -29.1241 -29.1209 -29.1163 -29.0772 -29.0617 -29.0430 -29.0294
   -29.0130 -29.0090 -28.9952 -28.9683 -28.9641 -28.9594 -28.9517 -28.9352
   -28.9295 -28.9291 -28.9044 -28.8902 -28.8868 -28.8486 -28.8290 -28.6915
   -28.6810 -28.6769 -28.6424 -28.6418 -28.6344 -28.6334 -28.6254 -28.6248
   -28.6056 -28.6048 -28.6016 -28.4907 -28.4871 -28.4859 -28.4432 -28.4057
   -28.3993 -28.3821 -28.3765 -28.3715 -28.3512 -28.3506 -28.3394 -28.3318
   -28.3262 -28.3249 -28.2644 -28.2643 -28.2639 -27.2244 -27.2244 -27.2227
   -27.2222 -27.2216 -27.2189 -27.2187 -27.2181 -27.1340 -27.1336 -27.1327
   -27.1262 -26.8950 -26.8947 -26.8946  11.8656  12.6802  13.3923  13.4075
    14.0032  14.4006  14.4952  14.5211  14.9230  14.9558  15.0344  15.0964
    15.1137  15.1892  15.2158  15.2703  15.3207  15.3641  15.4331  15.5310
    15.5851  15.6116  15.7031  15.8529  15.8992  15.9725  16.1130  16.1234
    16.1711  16.2146  16.2734  16.3166  16.3619  16.4233  16.4792  16.5199
    16.5559  16.6215  16.6515  16.6885  16.7196  16.7764  16.7925  16.8014
    16.8652  16.9108  16.9348  16.9623  17.0023  17.0574  17.1302  17.1393
    17.1488  17.1855  17.2313  17.2769  17.3236  17.3452  17.3716  17.3950
    17.4480  17.4677  17.4793  17.5296  17.6001  17.6201  17.6548  17.7108
    17.7423  17.7829  17.8537  17.9216  17.9652  18.0022  18.0365  18.1044
    18.1144  18.1296  18.2234  18.2693  18.3000  18.3473  18.4165  18.4609
    18.5322  18.5502  18.5859  18.6137  18.6500  18.7049  18.8364  18.8843
    18.9681  18.9891  19.0835  19.2128  19.2604  19.3249  19.3364  19.3889
    19.4021  19.4616  19.5698  19.6096  19.6651  19.6674  19.7944  19.8213
    19.9205  19.9330  19.9559  19.9699  20.0320  20.0872  20.1004  20.1265
    20.1618  20.2085  20.2948  20.3112  20.3378  20.3533  20.3793  20.4617
    20.4772  20.4927  20.5215  20.5435  20.5772  20.6481  20.6777  20.7041
    20.7312  20.7673  20.8336  20.8401  20.8649  20.9018  20.9247  20.9658
    21.0092  21.0349  21.0771  21.1176  21.1237  21.1310

          k =-0.6928-0.1732-0.1732 ( 21684 PWs)   bands (ev):

   -60.3873 -60.3873 -60.3686 -60.3592 -60.3592 -60.3327 -60.3325 -60.3299
   -60.3299 -60.3283 -60.3276 -60.3276 -59.9245 -59.8905 -59.8881 -59.8881
   -59.8523 -59.8523 -59.7889 -59.7889 -59.7877 -59.7564 -59.7557 -59.7557
   -58.4061 -58.4058 -58.4058 -58.4058 -58.1087 -29.3382 -29.3093 -29.3093
   -29.3044 -29.2903 -29.2776 -29.2776 -29.2609 -29.2426 -29.2426 -29.2257
   -29.2069 -29.2069 -29.1888 -29.1799 -29.1799 -29.1492 -29.1492 -29.1443
   -29.1387 -29.1338 -29.1338 -29.0951 -29.0951 -29.0721 -29.0196 -29.0189
   -29.0189 -29.0037 -28.9966 -28.9966 -28.9683 -28.9568 -28.9568 -28.9328
   -28.9328 -28.9308 -28.8962 -28.8882 -28.8882 -28.8351 -28.8351 -28.6918
   -28.6918 -28.6803 -28.6386 -28.6386 -28.6365 -28.6319 -28.6241 -28.6241
   -28.6024 -28.6024 -28.5985 -28.4909 -28.4909 -28.4880 -28.4403 -28.4085
   -28.4085 -28.3835 -28.3741 -28.3741 -28.3476 -28.3476 -28.3348 -28.3318
   -28.3268 -28.3268 -28.2641 -28.2641 -28.2636 -27.2249 -27.2249 -27.2227
   -27.2220 -27.2220 -27.2184 -27.2184 -27.2179 -27.1339 -27.1328 -27.1328
   -27.1269 -26.8950 -26.8950 -26.8947  12.5078  12.5078  12.5552  13.8866
    13.8924  13.8924  14.3823  14.8095  14.9777  15.0056  15.0056  15.1094
    15.1899  15.1899  15.2925  15.2925  15.3218  15.3511  15.4538  15.4538
    15.6448  15.6448  15.6715  15.8503  15.8503  16.0811  16.0811  16.0819
    16.1225  16.2427  16.2427  16.3036  16.3036  16.3804  16.4915  16.5105
    16.5105  16.6921  16.6921  16.7051  16.8112  16.8112  16.8169  16.8735
    16.8735  16.9075  16.9242  16.9242  16.9359  17.0851  17.0851  17.1674
    17.1674  17.2217  17.3342  17.3342  17.3627  17.3889  17.3889  17.3953
    17.4636  17.4636  17.5354  17.5354  17.5389  17.6055  17.6055  17.7688
    17.8029  17.8029  17.8344  17.9834  17.9834  18.0312  18.0378  18.0378
    18.0759  18.1269  18.1400  18.2406  18.2406  18.3421  18.3421  18.3849
    18.5229  18.5229  18.5626  18.6239  18.6239  18.7370  18.7370  18.8862
    19.0143  19.0143  19.0453  19.2069  19.2858  19.2858  19.3640  19.3640
    19.3803  19.5228  19.5483  19.5483  19.6063  19.7905  19.7905  19.8593
    19.8668  19.8668  19.9905  19.9986  19.9986  20.0767  20.0767  20.1616
    20.1699  20.2881  20.3217  20.3217  20.3457  20.3457  20.3614  20.4339
    20.4339  20.4485  20.5581  20.5581  20.6299  20.6299  20.7087  20.7501
    20.7637  20.7637  20.8633  20.8633  20.9397  20.9524  20.9624  20.9624
    20.9758  21.0692  21.0692  21.0765  21.1301  21.1301

          k = 0.0000 0.0000 0.6928 ( 21694 PWs)   bands (ev):

   -60.3883 -60.3838 -60.3648 -60.3648 -60.3622 -60.3328 -60.3307 -60.3296
   -60.3296 -60.3278 -60.3278 -60.3278 -59.9253 -59.8897 -59.8897 -59.8888
   -59.8512 -59.8506 -59.7883 -59.7883 -59.7881 -59.7564 -59.7564 -59.7564
   -58.4061 -58.4058 -58.4058 -58.4058 -58.1087 -29.3457 -29.3142 -29.3102
   -29.3102 -29.2965 -29.2750 -29.2750 -29.2710 -29.2397 -29.2208 -29.2202
   -29.2202 -29.2051 -29.1886 -29.1789 -29.1679 -29.1511 -29.1471 -29.1471
   -29.1439 -29.1295 -29.1295 -29.0967 -29.0681 -29.0681 -29.0383 -29.0245
   -29.0116 -29.0116 -29.0050 -28.9948 -28.9589 -28.9589 -28.9573 -28.9341
   -28.9320 -28.9320 -28.8952 -28.8930 -28.8930 -28.8360 -28.8281 -28.6928
   -28.6916 -28.6916 -28.6370 -28.6351 -28.6351 -28.6278 -28.6227 -28.6227
   -28.6014 -28.6007 -28.5972 -28.4932 -28.4922 -28.4922 -28.4376 -28.4156
   -28.4139 -28.3780 -28.3780 -28.3766 -28.3406 -28.3406 -28.3346 -28.3340
   -28.3282 -28.3282 -28.2636 -28.2636 -28.2635 -27.2254 -27.2253 -27.2223
   -27.2223 -27.2220 -27.2180 -27.2180 -27.2179 -27.1330 -27.1329 -27.1329
   -27.1273 -26.8950 -26.8949 -26.8949  12.3625  13.1055  13.1175  13.1175
    13.1469  13.7721  14.6953  14.8448  14.9936  14.9936  15.0675  15.2099
    15.2099  15.2158  15.2824  15.3124  15.3987  15.3987  15.4731  15.4731
    15.5174  15.5611  15.6428  15.8229  15.8675  16.0256  16.0360  16.0360
    16.2039  16.2039  16.2442  16.2442  16.2828  16.3333  16.5280  16.5516
    16.5516  16.6987  16.7011  16.7483  16.7483  16.8269  16.8341  16.8541
    16.8541  16.9161  16.9161  16.9267  17.0854  17.0988  17.0988  17.1623
    17.2598  17.2634  17.3269  17.3269  17.3639  17.4232  17.4248  17.4422
    17.4422  17.4915  17.5438  17.5972  17.6780  17.6813  17.6813  17.6902
    17.8003  17.8003  17.8462  17.9564  17.9711  17.9711  17.9924  18.0000
    18.0686  18.0752  18.1518  18.1767  18.1767  18.2823  18.3389  18.3389
    18.3659  18.3867  18.6510  18.6510  18.7022  18.8309  18.8931  18.8931
    18.9193  18.9601  18.9801  19.2493  19.2493  19.2670  19.3379  19.3379
    19.3687  19.6081  19.6081  19.6663  19.6839  19.7007  19.7803  19.7803
    19.8497  19.8719  19.9043  20.0475  20.0475  20.0969  20.1336  20.2069
    20.2069  20.2377  20.2561  20.2947  20.2947  20.3834  20.3834  20.4282
    20.4370  20.5118  20.5459  20.5459  20.6130  20.6213  20.6213  20.7019
    20.7019  20.7079  20.8842  20.8842  20.9076  20.9458  20.9491  21.0121
    21.0121  21.0493  21.1122  21.1144  21.1540  21.1540

 ------ SPIN DOWN ----------


          k = 0.0000 0.0000 0.0000 ( 21769 PWs)   bands (ev):

   -61.4583 -61.3731 -61.3731 -61.3731 -61.3730 -60.2964 -60.2557 -60.2557
   -60.2557 -60.2217 -60.2217 -60.1564 -60.1564 -60.1564 -60.1258 -60.1258
   -60.1258 -59.6887 -59.6592 -59.6592 -59.6592 -59.6497 -59.6497 -59.6311
   -59.6311 -59.6311 -59.6284 -59.6284 -59.6284 -30.2080 -30.2080 -30.2080
   -30.1341 -30.1072 -30.1072 -30.1072 -30.0964 -30.0964 -30.0936 -30.0936
   -30.0936 -30.0873 -30.0873 -30.0873 -29.3987 -29.2847 -29.2847 -29.2847
   -29.2309 -29.2309 -29.1868 -29.1868 -29.1868 -29.1549 -29.0929 -29.0929
   -29.0929 -29.0654 -29.0654 -29.0654 -29.0528 -29.0528 -28.9547 -28.9547
   -28.9547 -28.9246 -28.9246 -28.8892 -28.8892 -28.8892 -28.8723 -28.8723
   -28.8723 -28.7992 -28.7014 -28.7014 -28.7014 -28.5827 -28.5827 -28.5827
   -28.5500 -28.5500 -28.4794 -28.4794 -28.4794 -28.4328 -28.4328 -28.4328
   -28.4324 -28.4083 -28.4083 -28.3877 -28.3877 -28.3877 -28.3696 -28.3696
   -28.3696 -28.3638 -28.3638 -28.3262 -28.3236 -28.3236 -28.3236 -28.3208
   -28.3208 -28.3208 -28.2821 -28.2621 -28.2621 -28.2621 -28.2551 -28.2551
   -28.2551 -28.2182 -28.2182 -28.2182  10.9107  14.2017  14.2535  14.2535
    14.2535  14.4275  14.4275  14.4275  14.4528  14.4528  14.4528  14.5225
    14.5225  15.0468  15.0468  15.0468  15.0476  15.0476  15.1064  15.3228
    15.3228  15.3228  15.4179  15.7807  15.7807  15.7807  15.8679  15.8679
    15.8679  15.9426  15.9426  15.9426  16.2008  16.2008  16.2008  16.2220
    16.2220  16.2461  16.3902  16.5518  16.5518  16.5518  16.6068  16.6068
    16.6068  16.6277  16.6277  16.7283  16.7283  16.8300  16.8300  16.8300
    16.8659  16.8659  16.8659  16.9992  16.9992  16.9992  17.1085  17.1085
    17.2768  17.2768  17.2768  17.3251  17.3251  17.3251  17.4964  17.4964
    17.4964  17.7035  17.7035  17.7035  17.7116  17.8028  17.8028  17.9718
    17.9754  18.0456  18.0456  18.0456  18.0971  18.0971  18.2750  18.2750
    18.2750  18.3830  18.3830  18.3830  18.4891  18.5632  18.5632  18.6682
    18.6682  18.6682  18.7775  18.7775  18.7775  18.7908  18.7908  18.7908
    19.0323  19.0323  19.1004  19.1004  19.1004  19.2057  19.2057  19.2058
    19.2058  19.2058  19.7298  19.7298  19.7298  19.7864  19.7864  19.7937
    19.7937  19.7937  19.8783  19.8866  19.8866  19.8866  20.1898  20.1898
    20.1898  20.2107  20.2107  20.2107  20.2245  20.2245  20.3582  20.4594
    20.4594  20.4594  20.5261  20.5261  20.5261  20.7028  20.7028  20.7028
    20.7300  20.7511  20.7511  20.8445  20.8445  20.8445

          k = 0.1732 0.1732 0.0000 ( 21623 PWs)   bands (ev):

   -61.4583 -61.3732 -61.3731 -61.3731 -61.3728 -60.2945 -60.2575 -60.2559
   -60.2559 -60.2221 -60.2214 -60.1576 -60.1569 -60.1564 -60.1254 -60.1250
   -60.1246 -59.6869 -59.6646 -59.6600 -59.6591 -59.6483 -59.6455 -59.6317
   -59.6315 -59.6312 -59.6285 -59.6284 -59.6283 -30.2090 -30.2087 -30.2080
   -30.1328 -30.1079 -30.1070 -30.1069 -30.0965 -30.0954 -30.0940 -30.0931
   -30.0931 -30.0880 -30.0877 -30.0873 -29.3952 -29.2909 -29.2861 -29.2859
   -29.2289 -29.2278 -29.1905 -29.1853 -29.1811 -29.1513 -29.0998 -29.0991
   -29.0942 -29.0673 -29.0630 -29.0608 -29.0593 -29.0553 -28.9554 -28.9505
   -28.9469 -28.9288 -28.9217 -28.8943 -28.8890 -28.8876 -28.8699 -28.8684
   -28.8670 -28.8046 -28.7070 -28.7052 -28.6990 -28.5915 -28.5860 -28.5834
   -28.5515 -28.5479 -28.4826 -28.4788 -28.4645 -28.4323 -28.4262 -28.4244
   -28.4230 -28.4134 -28.4092 -28.3886 -28.3861 -28.3835 -28.3722 -28.3708
   -28.3675 -28.3631 -28.3575 -28.3311 -28.3305 -28.3279 -28.3279 -28.3257
   -28.3135 -28.3107 -28.2740 -28.2678 -28.2627 -28.2614 -28.2578 -28.2557
   -28.2539 -28.2303 -28.2218 -28.2192  11.0949  13.4513  13.9639  13.9839
    14.0228  14.1033  14.4021  14.5037  14.6416  14.7333  14.7698  14.8240
    14.8717  14.9465  14.9769  15.0267  15.0889  15.1170  15.1355  15.2560
    15.3299  15.4630  15.5252  15.6445  15.6541  15.7956  15.8699  15.8770
    15.9077  16.0155  16.0516  16.1243  16.1691  16.2426  16.2547  16.2752
    16.2996  16.3460  16.4391  16.5128  16.5277  16.5499  16.5559  16.5741
    16.6109  16.6743  16.6820  16.7113  16.7430  16.8072  16.8153  16.8302
    16.8417  16.8609  16.9392  16.9477  16.9878  16.9891  17.0436  17.1220
    17.1964  17.2064  17.2714  17.2852  17.3222  17.3684  17.4413  17.5051
    17.5752  17.6640  17.6992  17.7441  17.7474  17.8327  17.8827  17.9283
    17.9513  17.9714  18.0466  18.0530  18.0648  18.0673  18.1569  18.1890
    18.2655  18.4005  18.4310  18.4474  18.4935  18.5202  18.5414  18.5732
    18.6295  18.6528  18.6539  18.6763  18.7707  18.8067  18.9156  18.9605
    18.9717  19.0010  19.0397  19.0857  19.1155  19.2270  19.2586  19.2645
    19.3235  19.4018  19.5482  19.5957  19.6658  19.6996  19.7863  19.8056
    19.8369  19.8441  19.9121  19.9654  19.9725  20.0618  20.0988  20.1270
    20.1607  20.2029  20.2390  20.2451  20.2589  20.2894  20.2974  20.4036
    20.4210  20.4689  20.5206  20.5406  20.5940  20.6123  20.6162  20.6556
    20.7173  20.7321  20.7769  20.7826  20.7907  20.7967

          k = 0.3464 0.3464 0.0000 ( 21677 PWs)   bands (ev):

   -61.4582 -61.3732 -61.3731 -61.3731 -61.3727 -60.2910 -60.2610 -60.2562
   -60.2561 -60.2229 -60.2209 -60.1594 -60.1576 -60.1566 -60.1248 -60.1238
   -60.1229 -59.6823 -59.6726 -59.6610 -59.6590 -59.6461 -59.6411 -59.6328
   -59.6324 -59.6313 -59.6287 -59.6284 -59.6281 -30.2105 -30.2099 -30.2079
   -30.1310 -30.1088 -30.1067 -30.1059 -30.0963 -30.0951 -30.0943 -30.0926
   -30.0909 -30.0894 -30.0881 -30.0878 -29.3886 -29.3014 -29.2886 -29.2877
   -29.2253 -29.2222 -29.1955 -29.1825 -29.1712 -29.1489 -29.1072 -29.1055
   -29.0967 -29.0741 -29.0694 -29.0620 -29.0588 -29.0532 -28.9550 -28.9437
   -28.9360 -28.9353 -28.9124 -28.9041 -28.8906 -28.8836 -28.8666 -28.8635
   -28.8593 -28.8155 -28.7162 -28.7116 -28.6939 -28.6015 -28.5891 -28.5843
   -28.5510 -28.5450 -28.4879 -28.4788 -28.4591 -28.4208 -28.4192 -28.4143
   -28.4101 -28.4070 -28.4023 -28.3948 -28.3891 -28.3820 -28.3750 -28.3670
   -28.3650 -28.3550 -28.3452 -28.3437 -28.3390 -28.3348 -28.3333 -28.3269
   -28.3058 -28.2967 -28.2808 -28.2721 -28.2644 -28.2619 -28.2572 -28.2531
   -28.2513 -28.2502 -28.2315 -28.2212  11.6297  12.4582  13.7470  13.7762
    13.8332  13.8770  14.5285  14.7151  14.7330  14.7750  14.8631  14.8922
    14.9576  14.9744  14.9914  15.0255  15.1240  15.2139  15.2470  15.2603
    15.3719  15.4344  15.4703  15.6366  15.7635  15.7878  15.8917  15.9378
    16.0568  16.1360  16.1566  16.1585  16.2233  16.2567  16.2711  16.3399
    16.3496  16.3613  16.3685  16.4571  16.4652  16.5064  16.5180  16.5713
    16.6049  16.6821  16.6967  16.7370  16.7482  16.8356  16.8596  16.8826
    16.9047  16.9237  16.9456  17.0097  17.0147  17.0267  17.0861  17.0893
    17.1193  17.2102  17.2655  17.2875  17.3772  17.4120  17.4165  17.4304
    17.5149  17.5761  17.5982  17.6797  17.7580  17.8272  17.8323  17.8717
    17.9132  17.9268  18.0117  18.0244  18.0432  18.1797  18.1920  18.2126
    18.2556  18.3236  18.3279  18.4273  18.4333  18.4566  18.5621  18.5813
    18.6372  18.6661  18.6818  18.7234  18.7309  18.8001  18.8621  18.8629
    18.9780  18.9828  19.0938  19.1204  19.1441  19.1789  19.3327  19.3625
    19.3702  19.4358  19.4661  19.4872  19.5554  19.6402  19.6972  19.7959
    19.8051  19.9174  19.9647  19.9684  20.0157  20.0622  20.1526  20.1551
    20.1965  20.1966  20.2705  20.3316  20.3333  20.3709  20.3710  20.4331
    20.4440  20.4718  20.5268  20.5277  20.5467  20.6164  20.6844  20.6910
    20.7435  20.7584  20.7686  20.7759  20.8347  20.8513

          k = 0.3464 0.1732 0.1732 ( 21667 PWs)   bands (ev):

   -61.4582 -61.3732 -61.3731 -61.3731 -61.3727 -60.2917 -60.2596 -60.2568
   -60.2561 -60.2225 -60.2212 -60.1587 -60.1578 -60.1566 -60.1248 -60.1239
   -60.1234 -59.6837 -59.6698 -59.6643 -59.6556 -59.6478 -59.6415 -59.6327
   -59.6318 -59.6315 -59.6286 -59.6285 -59.6281 -30.2102 -30.2092 -30.2083
   -30.1313 -30.1083 -30.1071 -30.1062 -30.0963 -30.0951 -30.0944 -30.0922
   -30.0918 -30.0890 -30.0880 -30.0877 -29.3900 -29.2975 -29.2896 -29.2879
   -29.2253 -29.2238 -29.1967 -29.1787 -29.1746 -29.1504 -29.1051 -29.1047
   -29.0964 -29.0699 -29.0697 -29.0604 -29.0576 -29.0574 -28.9512 -28.9494
   -28.9384 -28.9320 -28.9134 -28.9061 -28.8894 -28.8848 -28.8674 -28.8643
   -28.8602 -28.8128 -28.7134 -28.7088 -28.6973 -28.5982 -28.5891 -28.5857
   -28.5528 -28.5410 -28.4973 -28.4744 -28.4490 -28.4313 -28.4212 -28.4155
   -28.4106 -28.4086 -28.4045 -28.3887 -28.3882 -28.3837 -28.3784 -28.3744
   -28.3646 -28.3520 -28.3477 -28.3421 -28.3358 -28.3340 -28.3294 -28.3278
   -28.3070 -28.3024 -28.2815 -28.2655 -28.2627 -28.2620 -28.2567 -28.2540
   -28.2529 -28.2490 -28.2256 -28.2237  11.4546  13.0301  13.0748  13.6940
    14.1603  14.2351  14.4771  14.6566  14.7282  14.7876  14.8204  14.8896
    14.9552  14.9558  14.9941  15.0525  15.0694  15.1816  15.2151  15.2159
    15.3978  15.4024  15.4916  15.6610  15.7192  15.8573  15.8774  15.9582
    15.9884  16.1053  16.1058  16.1380  16.2315  16.2661  16.2814  16.2857
    16.3478  16.4317  16.4370  16.4550  16.4911  16.5061  16.5454  16.5576
    16.6204  16.6385  16.6754  16.7174  16.7621  16.7642  16.8351  16.8434
    16.8742  16.9255  16.9447  16.9548  16.9998  17.0286  17.0663  17.1348
    17.1698  17.2194  17.2288  17.2467  17.3347  17.3437  17.5040  17.5485
    17.5781  17.6048  17.6302  17.6936  17.7505  17.7913  17.8342  17.9006
    17.9159  17.9525  17.9822  18.0078  18.0752  18.1077  18.2033  18.2040
    18.2512  18.3086  18.3572  18.4301  18.4872  18.5123  18.5584  18.5929
    18.6196  18.6218  18.6806  18.6883  18.7289  18.8073  18.8445  18.8864
    18.9868  19.0358  19.0651  19.1130  19.1286  19.2356  19.2977  19.3073
    19.4020  19.4265  19.4757  19.5138  19.5845  19.6484  19.7692  19.7863
    19.8596  19.8657  19.8996  19.9514  20.0207  20.0606  20.0814  20.1696
    20.1782  20.2172  20.2316  20.2723  20.3198  20.3702  20.3870  20.3966
    20.4416  20.4953  20.5063  20.5449  20.6106  20.6554  20.6559  20.6825
    20.7098  20.7565  20.7730  20.8133  20.8381  20.8386

          k = 0.5196 0.3464 0.1732 ( 21671 PWs)   bands (ev):

   -61.4582 -61.3732 -61.3732 -61.3731 -61.3727 -60.2898 -60.2608 -60.2577
   -60.2562 -60.2225 -60.2213 -60.1594 -60.1578 -60.1571 -60.1242 -60.1235
   -60.1227 -59.6794 -59.6751 -59.6659 -59.6537 -59.6479 -59.6393 -59.6334
   -59.6324 -59.6317 -59.6287 -59.6286 -59.6279 -30.2105 -30.2100 -30.2084
   -30.1306 -30.1085 -30.1066 -30.1059 -30.0961 -30.0952 -30.0949 -30.0915
   -30.0906 -30.0894 -30.0886 -30.0883 -29.3864 -29.3010 -29.2927 -29.2890
   -29.2229 -29.2211 -29.2000 -29.1762 -29.1666 -29.1538 -29.1077 -29.1053
   -29.0989 -29.0756 -29.0711 -29.0616 -29.0587 -29.0554 -28.9518 -28.9407
   -28.9360 -28.9319 -28.9190 -28.9079 -28.8860 -28.8806 -28.8714 -28.8600
   -28.8574 -28.8185 -28.7179 -28.7089 -28.6972 -28.6007 -28.5896 -28.5881
   -28.5528 -28.5338 -28.5079 -28.4759 -28.4439 -28.4240 -28.4233 -28.4079
   -28.4045 -28.4009 -28.3978 -28.3932 -28.3895 -28.3841 -28.3755 -28.3690
   -28.3674 -28.3630 -28.3449 -28.3383 -28.3378 -28.3341 -28.3307 -28.3283
   -28.3038 -28.2917 -28.2901 -28.2740 -28.2647 -28.2646 -28.2613 -28.2522
   -28.2519 -28.2421 -28.2349 -28.2260  12.1130  12.1604  12.9106  13.5756
    14.1009  14.3800  14.5375  14.5535  14.7762  14.8384  14.8704  14.9166
    14.9501  14.9576  15.0280  15.0715  15.1149  15.1812  15.2387  15.2469
    15.4049  15.4362  15.4403  15.7033  15.7674  15.8332  15.9658  16.0336
    16.0937  16.1203  16.1320  16.1770  16.1893  16.2158  16.2616  16.2652
    16.3326  16.3834  16.4038  16.4291  16.4749  16.5048  16.5061  16.5870
    16.6122  16.6405  16.6427  16.7315  16.7756  16.7880  16.8313  16.8617
    16.9331  16.9382  16.9975  17.0080  17.0503  17.1051  17.1196  17.1354
    17.1998  17.2322  17.2370  17.3426  17.3681  17.3713  17.4202  17.4670
    17.4711  17.4981  17.5787  17.6086  17.7213  17.8062  17.8358  17.8756
    17.8844  17.9197  17.9289  18.0383  18.0748  18.1261  18.2305  18.2402
    18.2784  18.3303  18.3567  18.4207  18.4265  18.4922  18.5482  18.5681
    18.5973  18.6521  18.6695  18.7285  18.7726  18.8024  18.8565  18.9166
    18.9236  18.9747  19.0350  19.0781  19.1720  19.2168  19.3460  19.3463
    19.3864  19.4244  19.4685  19.4814  19.4936  19.5784  19.7316  19.7742
    19.8228  19.8325  19.9524  19.9584  20.0346  20.0645  20.0884  20.1444
    20.1575  20.2643  20.3010  20.3244  20.3577  20.3952  20.4302  20.4638
    20.4993  20.5043  20.5706  20.6124  20.6308  20.6445  20.6469  20.6873
    20.7188  20.7599  20.7669  20.8004  20.8266  20.8558

          k = 0.3464 0.3464 0.3464 ( 21661 PWs)   bands (ev):

   -61.4582 -61.3732 -61.3731 -61.3731 -61.3727 -60.2897 -60.2602 -60.2580
   -60.2580 -60.2210 -60.2210 -60.1585 -60.1585 -60.1572 -60.1243 -60.1234
   -60.1234 -59.6791 -59.6720 -59.6720 -59.6498 -59.6442 -59.6442 -59.6326
   -59.6326 -59.6321 -59.6288 -59.6288 -59.6278 -30.2103 -30.2090 -30.2090
   -30.1315 -30.1076 -30.1076 -30.1062 -30.0952 -30.0952 -30.0943 -30.0911
   -30.0911 -30.0897 -30.0886 -30.0886 -29.3863 -29.2989 -29.2929 -29.2929
   -29.2201 -29.2201 -29.1949 -29.1718 -29.1718 -29.1570 -29.1074 -29.1074
   -29.1020 -29.0707 -29.0707 -29.0640 -29.0593 -29.0593 -28.9426 -28.9426
   -28.9340 -28.9233 -28.9189 -28.9189 -28.8846 -28.8846 -28.8686 -28.8686
   -28.8599 -28.8133 -28.7121 -28.7121 -28.7015 -28.5950 -28.5950 -28.5893
   -28.5394 -28.5394 -28.5176 -28.4501 -28.4501 -28.4361 -28.4080 -28.4080
   -28.4053 -28.4016 -28.4016 -28.3938 -28.3879 -28.3879 -28.3812 -28.3812
   -28.3703 -28.3693 -28.3367 -28.3367 -28.3317 -28.3310 -28.3310 -28.3287
   -28.2985 -28.2933 -28.2933 -28.2713 -28.2644 -28.2608 -28.2608 -28.2506
   -28.2506 -28.2466 -28.2332 -28.2332  11.9707  12.7241  12.7860  12.7860
    14.4463  14.6172  14.6172  14.7330  14.7925  14.8596  14.8596  14.8958
    14.9717  14.9717  15.0219  15.0483  15.0483  15.1277  15.1277  15.2103
    15.3913  15.3913  15.6266  15.6266  15.7525  15.9445  15.9445  16.0544
    16.1026  16.1241  16.1241  16.1778  16.1852  16.2670  16.2670  16.3025
    16.3839  16.3839  16.4357  16.4357  16.4557  16.4838  16.4838  16.5418
    16.5931  16.5931  16.6665  16.6665  16.6843  16.8069  16.8461  16.8461
    16.9271  16.9271  16.9619  17.0570  17.0570  17.0578  17.1043  17.1043
    17.2373  17.2729  17.2971  17.2971  17.3717  17.3717  17.4615  17.4615
    17.4656  17.5648  17.5649  17.6069  17.6069  17.7533  17.7533  17.8139
    17.8139  17.9382  17.9796  17.9796  18.1012  18.1012  18.1971  18.2607
    18.2607  18.2906  18.3181  18.4198  18.4198  18.5729  18.5791  18.5791
    18.6440  18.6590  18.6590  18.7005  18.7120  18.7120  18.9198  18.9370
    18.9370  19.0128  19.0128  19.0633  19.2086  19.2644  19.2644  19.4139
    19.4324  19.4324  19.4586  19.4916  19.4916  19.6762  19.7112  19.7112
    19.8784  19.8784  19.8909  19.8916  19.9825  20.0450  20.0450  20.0938
    20.0938  20.4009  20.4009  20.4276  20.4276  20.4295  20.4577  20.4949
    20.5763  20.5993  20.5993  20.6331  20.6331  20.6574  20.6574  20.6977
    20.7553  20.7553  20.7675  20.8564  20.8564  20.9211

          k = 0.0000 0.0000 0.3464 ( 21674 PWs)   bands (ev):

   -61.4582 -61.3732 -61.3731 -61.3731 -61.3727 -60.2929 -60.2583 -60.2560
   -60.2560 -60.2234 -60.2213 -60.1577 -60.1574 -60.1574 -60.1243 -60.1242
   -60.1242 -59.6853 -59.6677 -59.6591 -59.6591 -59.6517 -59.6408 -59.6327
   -59.6313 -59.6313 -59.6284 -59.6284 -59.6283 -30.2093 -30.2093 -30.2088
   -30.1313 -30.1079 -30.1068 -30.1068 -30.0972 -30.0947 -30.0947 -30.0933
   -30.0915 -30.0881 -30.0881 -30.0877 -29.3922 -29.2940 -29.2873 -29.2873
   -29.2287 -29.2263 -29.2010 -29.1762 -29.1762 -29.1509 -29.1013 -29.1013
   -29.0928 -29.0736 -29.0687 -29.0585 -29.0585 -29.0533 -28.9543 -28.9543
   -28.9373 -28.9362 -28.9051 -28.9007 -28.9007 -28.8893 -28.8627 -28.8627
   -28.8612 -28.8119 -28.7067 -28.7067 -28.7009 -28.5982 -28.5846 -28.5846
   -28.5584 -28.5401 -28.4879 -28.4879 -28.4467 -28.4337 -28.4217 -28.4181
   -28.4181 -28.4175 -28.4014 -28.3851 -28.3851 -28.3830 -28.3805 -28.3645
   -28.3645 -28.3588 -28.3578 -28.3344 -28.3344 -28.3318 -28.3288 -28.3264
   -28.3114 -28.3114 -28.2669 -28.2663 -28.2663 -28.2623 -28.2562 -28.2562
   -28.2560 -28.2462 -28.2203 -28.2203  11.2760  13.5398  13.5398  13.5591
    13.6695  14.3720  14.4837  14.5850  14.5850  14.8047  14.8791  14.8791
    14.9152  14.9402  14.9782  15.0333  15.0333  15.0761  15.2389  15.2828
    15.4352  15.4352  15.4680  15.6870  15.6870  15.8381  15.8726  15.9083
    15.9083  16.0859  16.0913  16.0913  16.1261  16.2555  16.3226  16.3251
    16.3251  16.3914  16.4317  16.4780  16.5073  16.5073  16.5449  16.5908
    16.6195  16.6195  16.6635  16.7185  16.7209  16.7879  16.7944  16.7944
    16.9197  16.9229  16.9229  16.9655  17.0356  17.0399  17.0399  17.1669
    17.2358  17.2358  17.2415  17.2504  17.3326  17.3326  17.4016  17.5484
    17.5484  17.5729  17.7246  17.7994  17.7994  17.8569  17.8642  17.8642
    17.8859  17.9547  17.9973  18.0623  18.1520  18.1520  18.1620  18.1989
    18.2678  18.3607  18.3714  18.4511  18.4511  18.4888  18.5609  18.5777
    18.6238  18.6238  18.6535  18.7345  18.7345  18.8425  18.9396  18.9515
    18.9515  18.9610  19.0890  19.0890  19.1552  19.1620  19.2711  19.2711
    19.3561  19.3973  19.3992  19.5266  19.6838  19.6838  19.7483  19.7483
    19.8292  19.9072  19.9072  19.9851  20.0034  20.0379  20.0620  20.1508
    20.1508  20.2122  20.2323  20.2752  20.2752  20.3030  20.3504  20.4054
    20.4054  20.5095  20.5095  20.5125  20.5763  20.6142  20.6624  20.6624
    20.7070  20.7464  20.7464  20.7748  20.8121  20.8310

          k = 0.0000-0.1732 0.5196 ( 21711 PWs)   bands (ev):

   -61.4582 -61.3732 -61.3732 -61.3731 -61.3726 -60.2901 -60.2598 -60.2563
   -60.2562 -60.2242 -60.2223 -60.1592 -60.1581 -60.1575 -60.1237 -60.1231
   -60.1226 -59.6810 -59.6733 -59.6601 -59.6590 -59.6517 -59.6366 -59.6338
   -59.6319 -59.6315 -59.6285 -59.6284 -59.6281 -30.2106 -30.2102 -30.2091
   -30.1293 -30.1080 -30.1064 -30.1060 -30.0969 -30.0957 -30.0957 -30.0912
   -30.0905 -30.0890 -30.0886 -30.0881 -29.3867 -29.2992 -29.2902 -29.2895
   -29.2267 -29.2241 -29.2090 -29.1706 -29.1681 -29.1530 -29.1028 -29.1017
   -29.0937 -29.0767 -29.0753 -29.0583 -29.0568 -29.0552 -28.9520 -28.9489
   -28.9412 -28.9329 -28.9148 -28.9128 -28.8901 -28.8785 -28.8585 -28.8557
   -28.8543 -28.8252 -28.7126 -28.7098 -28.6976 -28.6010 -28.5886 -28.5863
   -28.5624 -28.5313 -28.4990 -28.4952 -28.4381 -28.4332 -28.4185 -28.4094
   -28.4064 -28.4029 -28.3969 -28.3924 -28.3883 -28.3778 -28.3713 -28.3662
   -28.3599 -28.3517 -28.3458 -28.3437 -28.3405 -28.3379 -28.3339 -28.3310
   -28.3072 -28.3022 -28.2795 -28.2770 -28.2681 -28.2653 -28.2594 -28.2556
   -28.2539 -28.2435 -28.2270 -28.2225  11.8008  12.6103  13.2832  13.3593
    13.9052  14.2708  14.3865  14.4447  14.7657  14.8422  14.8959  14.9176
    14.9327  14.9927  15.0622  15.0842  15.1530  15.1584  15.2011  15.3413
    15.3483  15.3872  15.5309  15.7367  15.7942  15.8416  15.9176  15.9910
    16.0068  16.0517  16.1027  16.1328  16.1972  16.2340  16.2684  16.3060
    16.3318  16.3629  16.3889  16.4556  16.4826  16.5202  16.5440  16.5528
    16.5730  16.6220  16.6541  16.7157  16.7402  16.7738  16.7971  16.8684
    16.9267  16.9576  16.9664  16.9811  17.0448  17.1153  17.1495  17.1849
    17.2065  17.2283  17.2595  17.2859  17.3504  17.4022  17.4737  17.5189
    17.5669  17.6134  17.6412  17.7145  17.8057  17.8278  17.8557  17.8670
    17.9224  17.9723  18.0201  18.0682  18.0905  18.1066  18.1813  18.2011
    18.2345  18.2890  18.3835  18.4162  18.4523  18.4755  18.4925  18.5917
    18.6473  18.6735  18.7111  18.7198  18.7709  18.7913  18.8373  18.8955
    18.9621  19.0262  19.0409  19.0933  19.1229  19.1441  19.2510  19.2949
    19.3331  19.3894  19.4502  19.4794  19.5590  19.5919  19.7021  19.7676
    19.8084  19.8860  19.9138  19.9546  19.9803  20.0539  20.0582  20.1027
    20.1549  20.1831  20.2231  20.3149  20.3568  20.3762  20.4179  20.4312
    20.4906  20.5064  20.5253  20.5476  20.5856  20.6129  20.6739  20.7135
    20.7295  20.7409  20.7563  20.8118  20.8350  20.8533

          k =-0.6928-0.1732-0.1732 ( 21684 PWs)   bands (ev):

   -61.4582 -61.3732 -61.3732 -61.3732 -61.3726 -60.2890 -60.2583 -60.2583
   -60.2558 -60.2241 -60.2241 -60.1594 -60.1581 -60.1581 -60.1228 -60.1228
   -60.1220 -59.6770 -59.6770 -59.6623 -59.6551 -59.6551 -59.6345 -59.6344
   -59.6319 -59.6319 -59.6284 -59.6284 -59.6281 -30.2108 -30.2108 -30.2097
   -30.1282 -30.1076 -30.1060 -30.1060 -30.0967 -30.0964 -30.0964 -30.0902
   -30.0902 -30.0889 -30.0888 -30.0888 -29.3847 -29.2958 -29.2958 -29.2898
   -29.2257 -29.2257 -29.2144 -29.1683 -29.1603 -29.1603 -29.1006 -29.0958
   -29.0958 -29.0763 -29.0763 -29.0582 -29.0573 -29.0573 -28.9497 -28.9447
   -28.9447 -28.9287 -28.9287 -28.9190 -28.8913 -28.8596 -28.8596 -28.8518
   -28.8518 -28.8331 -28.7148 -28.7027 -28.7027 -28.5987 -28.5894 -28.5894
   -28.5661 -28.5160 -28.5160 -28.5004 -28.4407 -28.4223 -28.4223 -28.4031
   -28.4031 -28.3997 -28.3946 -28.3933 -28.3933 -28.3644 -28.3644 -28.3609
   -28.3609 -28.3577 -28.3507 -28.3449 -28.3384 -28.3384 -28.3334 -28.3334
   -28.3076 -28.2939 -28.2939 -28.2857 -28.2685 -28.2685 -28.2605 -28.2549
   -28.2549 -28.2305 -28.2305 -28.2267  12.4082  12.4785  12.4785  13.7245
    13.8379  13.8379  14.2910  14.6526  14.8169  14.9160  14.9160  14.9213
    14.9610  14.9610  15.1276  15.1327  15.1428  15.1428  15.2415  15.2415
    15.3277  15.4892  15.4892  15.8232  15.8232  15.8525  15.9818  15.9818
    16.0435  16.0531  16.0531  16.0950  16.1678  16.1678  16.2800  16.2800
    16.3287  16.3837  16.3837  16.4827  16.4827  16.5234  16.5367  16.5367
    16.5652  16.5876  16.6393  16.6393  16.7350  16.7350  16.8128  16.8128
    16.9114  16.9928  16.9928  17.0340  17.1034  17.1034  17.1508  17.1940
    17.1940  17.3258  17.3258  17.3841  17.3841  17.3918  17.4966  17.5808
    17.5808  17.6033  17.6479  17.7857  17.7857  17.8371  17.8423  17.8423
    17.9211  18.0085  18.0085  18.0223  18.1172  18.1172  18.1922  18.1922
    18.2020  18.3059  18.3843  18.3843  18.4503  18.5012  18.5012  18.5079
    18.5919  18.6841  18.6841  18.8008  18.8008  18.8300  18.8379  18.9028
    18.9028  18.9455  19.0175  19.0175  19.1420  19.1420  19.3313  19.3313
    19.3365  19.3558  19.4239  19.4239  19.6188  19.6188  19.6467  19.6797
    19.7771  19.7771  19.9150  19.9249  19.9249  20.0720  20.0843  20.0843
    20.0992  20.1192  20.1192  20.3626  20.4232  20.4305  20.4305  20.4775
    20.4775  20.4895  20.5451  20.5995  20.5995  20.6815  20.6815  20.7334
    20.7334  20.7745  20.7921  20.7921  20.8208  20.8323

          k = 0.0000 0.0000 0.6928 ( 21694 PWs)   bands (ev):

   -61.4582 -61.3732 -61.3732 -61.3732 -61.3725 -60.2886 -60.2576 -60.2565
   -60.2565 -60.2261 -60.2252 -60.1588 -60.1587 -60.1587 -60.1220 -60.1220
   -60.1220 -59.6778 -59.6749 -59.6590 -59.6590 -59.6573 -59.6348 -59.6329
   -59.6318 -59.6318 -59.6283 -59.6283 -59.6283 -30.2109 -30.2109 -30.2107
   -30.1270 -30.1064 -30.1060 -30.1060 -30.0973 -30.0969 -30.0969 -30.0902
   -30.0894 -30.0894 -30.0892 -30.0885 -29.3838 -29.2952 -29.2921 -29.2921
   -29.2291 -29.2278 -29.2208 -29.1642 -29.1642 -29.1602 -29.0928 -29.0928
   -29.0893 -29.0772 -29.0764 -29.0590 -29.0590 -29.0579 -28.9473 -28.9473
   -28.9447 -28.9347 -28.9290 -28.9290 -28.8946 -28.8509 -28.8507 -28.8507
   -28.8434 -28.8414 -28.7073 -28.7073 -28.7043 -28.5959 -28.5896 -28.5896
   -28.5739 -28.5190 -28.5082 -28.5082 -28.4496 -28.4187 -28.4151 -28.4068
   -28.4068 -28.4010 -28.3991 -28.3874 -28.3845 -28.3607 -28.3607 -28.3531
   -28.3531 -28.3509 -28.3466 -28.3460 -28.3460 -28.3449 -28.3366 -28.3338
   -28.3068 -28.3068 -28.2959 -28.2768 -28.2763 -28.2763 -28.2571 -28.2571
   -28.2570 -28.2310 -28.2248 -28.2248  12.2933  13.0085  13.0085  13.0323
    13.1423  13.6907  14.5268  14.7938  14.8315  14.9304  14.9304  14.9616
    14.9616  15.0071  15.1109  15.1721  15.1722  15.1722  15.1846  15.2423
    15.2423  15.4676  15.5452  15.8544  15.8948  15.9137  15.9137  16.0102
    16.0102  16.0510  16.0520  16.0920  16.0920  16.1429  16.3228  16.3238
    16.3303  16.3303  16.4407  16.4558  16.4558  16.4582  16.4902  16.4908
    16.5630  16.5630  16.5630  16.6641  16.6641  16.6731  16.7924  16.8294
    16.8788  16.9076  16.9076  17.0806  17.1663  17.1934  17.1934  17.2560
    17.2560  17.2807  17.3809  17.4410  17.4662  17.4662  17.5544  17.7214
    17.7283  17.7283  17.7481  17.7489  17.7761  17.8544  17.8544  17.8936
    17.9374  17.9374  17.9572  17.9922  18.1541  18.1541  18.1580  18.1768
    18.1982  18.2480  18.3464  18.3677  18.3677  18.4555  18.4912  18.4912
    18.6144  18.7259  18.7810  18.7810  18.8032  18.8361  18.8561  18.8595
    18.8595  18.9411  19.0235  19.0235  19.0613  19.2108  19.2408  19.2772
    19.2772  19.3139  19.4977  19.4977  19.5128  19.5580  19.6684  19.6750
    19.7136  19.7136  19.7941  19.9284  19.9284  20.0566  20.0699  20.0699
    20.0814  20.1868  20.2883  20.3147  20.3147  20.3470  20.4868  20.4868
    20.5197  20.5287  20.5776  20.5947  20.5947  20.6314  20.6514  20.6923
    20.6923  20.8235  20.8250  20.8250  20.8592  20.8592

     the Fermi energy is    19.2413 ev

!    total energy              =   -6201.46220886 Ry
     Harris-Foulkes estimate   =   -6201.46220874 Ry
     estimated scf accuracy    <       0.00000055 Ry

     The total energy is the sum of the following terms:

     one-electron contribution =   -2430.29431140 Ry
     hartree contribution      =    1481.26837804 Ry
     xc contribution           =    -808.55424579 Ry
     ewald contribution        =   -4443.88920131 Ry
     smearing contrib. (-TS)   =       0.00717160 Ry

     total magnetization       =    -9.53 Bohr mag/cell
     absolute magnetization    =    25.34 Bohr mag/cell

     convergence has been achieved in  34 iterations

     Writing output data file mn-8.66.save/

     init_run     :    189.23s CPU    190.16s WALL (       1 calls)
     electrons    :  19291.79s CPU  19381.95s WALL (       1 calls)

     Called by init_run:
     wfcinit      :    182.95s CPU    183.69s WALL (       1 calls)
     potinit      :      0.86s CPU      0.90s WALL (       1 calls)
     hinit0       :      0.51s CPU      0.51s WALL (       1 calls)

     Called by electrons:
     c_bands      :  17578.90s CPU  17653.21s WALL (      34 calls)
     sum_band     :   1519.53s CPU   1529.72s WALL (      34 calls)
     v_of_rho     :     25.02s CPU     25.88s WALL (      35 calls)
     newd         :    166.72s CPU    171.55s WALL (      35 calls)
     mix_rho      :      4.16s CPU      4.23s WALL (      34 calls)

     Called by c_bands:
     init_us_2    :     20.41s CPU     20.48s WALL (    1380 calls)
     cegterg      :  17463.57s CPU  17537.13s WALL (     680 calls)

     Called by sum_band:
     sum_band:bec :      2.91s CPU      2.91s WALL (     680 calls)
     addusdens    :    193.85s CPU    198.51s WALL (      34 calls)

     Called by *egterg:
     h_psi        :   6090.52s CPU   6124.09s WALL (    3118 calls)
     s_psi        :   2600.19s CPU   2601.55s WALL (    3118 calls)
     g_psi        :      6.19s CPU      6.20s WALL (    2418 calls)
     cdiaghg      :   1710.62s CPU   1712.60s WALL (    3098 calls)

     Called by h_psi:
     h_psi:pot    :   6082.99s CPU   6109.57s WALL (    3118 calls)
     h_psi:calbec :   2591.01s CPU   2592.60s WALL (    3118 calls)
     vloc_psi     :    894.51s CPU    918.83s WALL (    3118 calls)
     add_vuspsi   :   2597.43s CPU   2598.12s WALL (    3118 calls)

     General routines
     calbec       :   3695.73s CPU   3697.99s WALL (    3798 calls)
     fft          :     17.51s CPU     18.12s WALL (     869 calls)
     ffts         :      0.39s CPU      0.40s WALL (     138 calls)
     fftw         :    990.85s CPU   1017.22s WALL ( 1010718 calls)
     interpolate  :      1.81s CPU      1.85s WALL (      70 calls)

     Parallel routines
     fft_scatt_xy :     96.81s CPU     99.24s WALL ( 1011725 calls)
     fft_scatt_yz :    420.21s CPU    432.32s WALL ( 1011725 calls)

     PWSCF        :      5h24m CPU      5h26m WALL


   This run was terminated on:   1:47:19   9Aug2022            

=------------------------------------------------------------------------------=
   JOB DONE.
=------------------------------------------------------------------------------=
