
     Program PWSCF v.6.4.1 starts on  5Aug2022 at 16:31:28 

     This program is part of the open-source Quantum ESPRESSO suite
     for quantum simulation of materials; please cite
         "P. Giannozzi et al., J. Phys.:Condens. Matter 21 395502 (2009);
         "P. Giannozzi et al., J. Phys.:Condens. Matter 29 465901 (2017);
          URL http://www.quantum-espresso.org", 
     in publications or presentations arising from this work. More details at
     http://www.quantum-espresso.org/quote

     Parallel version (MPI), running on     6 processors

     MPI processes distributed on     1 nodes
     R & G space division:  proc/nbgrp/npool/nimage =       6
     Reading input from mn-8.71.in

     Current dimensions of program PWSCF are:
     Max number of different atomic species (ntypx) = 10
     Max number of k-points (npk) =  40000
     Max angular momentum in pseudopotentials (lmaxx) =  3
               file Mn.pbe-spn-rrkjus_psl.0.3.1.UPF: wavefunction(s)  3D renormalized

     Subspace diagonalization in iterative solution of the eigenvalue problem:
     a serial algorithm will be used

     Message from routine setup:
     DEPRECATED: symmetry with ibrav=0, use correct ibrav instead

     Parallelization info
     --------------------
     sticks:   dense  smooth     PW     G-vecs:    dense   smooth      PW
     Min        1776     708    191               116114    29343    4137
     Max        1777     709    192               116116    29347    4140
     Sum       10659    4251   1151               696689   176071   24835



     bravais-lattice index     =            0
     lattice parameter (alat)  =      14.2544  a.u.
     unit-cell volume          =    2229.5698 (a.u.)^3
     number of atoms/cell      =           29
     number of atomic types    =            1
     number of electrons       =       435.00
     number of Kohn-Sham states=          262
     kinetic-energy cutoff     =      70.0000  Ry
     charge density cutoff     =     700.0000  Ry
     convergence threshold     =      1.0E-06
     mixing beta               =       0.7000
     number of iterations used =            8  plain     mixing
     Exchange-correlation      = PBE ( 1  4  3  4 0 0)

     celldm(1)=  14.254358  celldm(2)=   0.000000  celldm(3)=   0.000000
     celldm(4)=   0.000000  celldm(5)=   0.000000  celldm(6)=   0.000000

     crystal axes: (cart. coord. in units of alat)
               a(1) = (  -0.577350   0.577350   0.577350 )  
               a(2) = (   0.577350  -0.577350   0.577350 )  
               a(3) = (   0.577350   0.577350  -0.577350 )  

     reciprocal axes: (cart. coord. in units 2 pi/alat)
               b(1) = (  0.000000  0.866025  0.866025 )  
               b(2) = (  0.866025  0.000000  0.866025 )  
               b(3) = (  0.866025  0.866025  0.000000 )  


     PseudoPot. # 1 for Mn read from file:
     /home/cristian/Escritorio/Proyecto_Grafeno/pseudopotenciales/Mn.pbe-spn-rrkjus_psl.0.3.1.UPF
     MD5 check sum: e1cac159bdd2ba70c18e85765a5d4279
     Pseudo is Ultrasoft + core correction, Zval = 15.0
     Generated using "atomic" code by A. Dal Corso v.6.2.2
     Using radial grid of 1187 points,  6 beta functions with: 
                l(1) =   0
                l(2) =   0
                l(3) =   1
                l(4) =   1
                l(5) =   2
                l(6) =   2
     Q(r) pseudized with 0 coefficients 


     atomic species   valence    mass     pseudopotential
        Mn            15.00    54.93804     Mn( 1.00)

     Starting magnetic structure 
     atomic species   magnetization
        Mn           0.700

     24 Sym. Ops. (no inversion) found



   Cartesian axes

     site n.     atom                  positions (alat units)
         1           Mn  tau(   1) = (   0.0000000   0.0000000   0.0000000  )
         2           Mn  tau(   2) = (   0.3670447   0.3670447   0.3670447  )
         3           Mn  tau(   3) = (   0.2103056   0.2103056  -0.2103056  )
         4           Mn  tau(   4) = (   0.2103056  -0.2103056   0.2103056  )
         5           Mn  tau(   5) = (  -0.2103056   0.2103056   0.2103056  )
         6           Mn  tau(   6) = (   0.4739122   0.4739122  -0.2517940  )
         7           Mn  tau(   7) = (   0.1034381   0.1034381   0.3255563  )
         8           Mn  tau(   8) = (   0.1034381  -0.1034381   0.8291443  )
         9           Mn  tau(   9) = (  -0.1034381   0.1034381   0.8291443  )
        10           Mn  tau(  10) = (  -0.2517940   0.4739122   0.4739122  )
        11           Mn  tau(  11) = (   0.3255563   0.1034381   0.1034381  )
        12           Mn  tau(  12) = (   0.8291443   0.1034381  -0.1034381  )
        13           Mn  tau(  13) = (   0.8291443  -0.1034381   0.1034381  )
        14           Mn  tau(  14) = (   0.4739122  -0.2517940   0.4739122  )
        15           Mn  tau(  15) = (   0.1034381   0.3255563   0.1034381  )
        16           Mn  tau(  16) = (  -0.1034381   0.8291443   0.1034381  )
        17           Mn  tau(  17) = (   0.1034381   0.8291443  -0.1034381  )
        18           Mn  tau(  18) = (   0.1650529   0.1650529   0.6172683  )
        19           Mn  tau(  19) = (   0.4122974   0.4122974   0.0399180  )
        20           Mn  tau(  20) = (  -0.1650529   0.1650529   0.5374323  )
        21           Mn  tau(  21) = (   0.1650529  -0.1650529   0.5374323  )
        22           Mn  tau(  22) = (   0.6172683   0.1650529   0.1650529  )
        23           Mn  tau(  23) = (   0.0399180   0.4122974   0.4122974  )
        24           Mn  tau(  24) = (   0.5374323  -0.1650529   0.1650529  )
        25           Mn  tau(  25) = (   0.5374323   0.1650529  -0.1650529  )
        26           Mn  tau(  26) = (   0.1650529   0.6172683   0.1650529  )
        27           Mn  tau(  27) = (   0.4122974   0.0399180   0.4122974  )
        28           Mn  tau(  28) = (   0.1650529   0.5374323  -0.1650529  )
        29           Mn  tau(  29) = (  -0.1650529   0.5374323   0.1650529  )

     number of k points=    10  Methfessel-Paxton smearing, width (Ry)=  0.0300
                       cart. coord. in units 2pi/alat
        k(    1) = (   0.0000000   0.0000000   0.0000000), wk =   0.0080000
        k(    2) = (   0.1732051   0.1732051   0.0000000), wk =   0.0960000
        k(    3) = (   0.3464102   0.3464102   0.0000000), wk =   0.0960000
        k(    4) = (   0.3464102   0.1732051   0.1732051), wk =   0.1920000
        k(    5) = (   0.5196152   0.3464102   0.1732051), wk =   0.1920000
        k(    6) = (   0.3464102   0.3464102   0.3464102), wk =   0.0640000
        k(    7) = (   0.0000000   0.0000000   0.3464102), wk =   0.0480000
        k(    8) = (   0.0000000  -0.1732051   0.5196152), wk =   0.1920000
        k(    9) = (  -0.6928203  -0.1732051  -0.1732051), wk =   0.0640000
        k(   10) = (   0.0000000   0.0000000   0.6928203), wk =   0.0480000

     Dense  grid:   696689 G-vectors     FFT dimensions: ( 125, 125, 125)

     Smooth grid:   176071 G-vectors     FFT dimensions: (  75,  75,  75)

     Estimated max dynamical RAM per process >     843.42 MB

     Estimated total dynamical RAM >       4.94 GB
     Generating pointlists ...
     new r_m :   0.1207 (alat units)  1.7203 (a.u.) for type    1

     Check: negative core charge=   -0.000005

     Initial potential from superposition of free atoms

     starting charge  434.98555, renormalised to  435.00000
     Starting wfcs are  290 randomized atomic wfcs

     total cpu time spent up to now is      193.3 secs

     Self-consistent Calculation

     iteration #  1     ecut=    70.00 Ry     beta= 0.70
     Davidson diagonalization with overlap
     ethr =  1.00E-02,  avg # of iterations =  3.0

     total cpu time spent up to now is      792.9 secs

     total energy              =   -6195.09433034 Ry
     Harris-Foulkes estimate   =   -6168.69237106 Ry
     estimated scf accuracy    <      37.24678024 Ry

     total magnetization       =    89.00 Bohr mag/cell
     absolute magnetization    =    93.85 Bohr mag/cell

     iteration #  2     ecut=    70.00 Ry     beta= 0.70
     Davidson diagonalization with overlap
     ethr =  8.56E-03,  avg # of iterations =  3.8

     total cpu time spent up to now is     1297.1 secs

     total energy              =   -6180.97505260 Ry
     Harris-Foulkes estimate   =   -6199.37648657 Ry
     estimated scf accuracy    <      48.31983341 Ry

     total magnetization       =    82.29 Bohr mag/cell
     absolute magnetization    =    85.23 Bohr mag/cell

     iteration #  3     ecut=    70.00 Ry     beta= 0.70
     Davidson diagonalization with overlap
     ethr =  8.56E-03,  avg # of iterations =  5.5

     total cpu time spent up to now is     2014.7 secs

     total energy              =   -6197.83919684 Ry
     Harris-Foulkes estimate   =   -6221.58406498 Ry
     estimated scf accuracy    <     165.95311088 Ry

     total magnetization       =    60.46 Bohr mag/cell
     absolute magnetization    =    63.45 Bohr mag/cell

     iteration #  4     ecut=    70.00 Ry     beta= 0.70
     Davidson diagonalization with overlap
     ethr =  8.56E-03,  avg # of iterations =  3.9

     total cpu time spent up to now is     2574.4 secs

     total energy              =   -6198.84549099 Ry
     Harris-Foulkes estimate   =   -6203.83558872 Ry
     estimated scf accuracy    <      54.63878391 Ry

     total magnetization       =    40.75 Bohr mag/cell
     absolute magnetization    =    48.00 Bohr mag/cell

     iteration #  5     ecut=    70.00 Ry     beta= 0.70
     Davidson diagonalization with overlap
     ethr =  8.56E-03,  avg # of iterations =  2.1

     total cpu time spent up to now is     3030.0 secs

     total energy              =   -6199.65378741 Ry
     Harris-Foulkes estimate   =   -6201.26145059 Ry
     estimated scf accuracy    <      44.94270717 Ry

     total magnetization       =    34.95 Bohr mag/cell
     absolute magnetization    =    45.92 Bohr mag/cell

     iteration #  6     ecut=    70.00 Ry     beta= 0.70
     Davidson diagonalization with overlap
     ethr =  8.56E-03,  avg # of iterations =  1.1

     total cpu time spent up to now is     3471.1 secs

     total energy              =   -6199.52694161 Ry
     Harris-Foulkes estimate   =   -6200.36628642 Ry
     estimated scf accuracy    <      24.25989300 Ry

     total magnetization       =    36.96 Bohr mag/cell
     absolute magnetization    =    47.56 Bohr mag/cell

     iteration #  7     ecut=    70.00 Ry     beta= 0.70
     Davidson diagonalization with overlap
     ethr =  5.58E-03,  avg # of iterations =  1.9

     total cpu time spent up to now is     3926.4 secs

     total energy              =   -6197.49882543 Ry
     Harris-Foulkes estimate   =   -6200.02975372 Ry
     estimated scf accuracy    <      17.56312716 Ry

     total magnetization       =    34.47 Bohr mag/cell
     absolute magnetization    =    46.41 Bohr mag/cell

     iteration #  8     ecut=    70.00 Ry     beta= 0.70
     Davidson diagonalization with overlap
     ethr =  4.04E-03,  avg # of iterations =  4.1

     total cpu time spent up to now is     4639.3 secs

     total energy              =   -6202.47192204 Ry
     Harris-Foulkes estimate   =   -6204.29192310 Ry
     estimated scf accuracy    <      52.14610179 Ry

     total magnetization       =    27.21 Bohr mag/cell
     absolute magnetization    =    30.69 Bohr mag/cell

     iteration #  9     ecut=    70.00 Ry     beta= 0.70
     Davidson diagonalization with overlap
     ethr =  4.04E-03,  avg # of iterations =  1.4

     total cpu time spent up to now is     5123.9 secs

     total energy              =   -6201.99634434 Ry
     Harris-Foulkes estimate   =   -6202.70636712 Ry
     estimated scf accuracy    <      30.55998538 Ry

     total magnetization       =    21.91 Bohr mag/cell
     absolute magnetization    =    29.76 Bohr mag/cell

     iteration # 10     ecut=    70.00 Ry     beta= 0.70
     Davidson diagonalization with overlap
     ethr =  4.04E-03,  avg # of iterations =  1.0

     total cpu time spent up to now is     5600.0 secs

     total energy              =   -6202.20238541 Ry
     Harris-Foulkes estimate   =   -6202.06500809 Ry
     estimated scf accuracy    <      22.77996379 Ry

     total magnetization       =    20.35 Bohr mag/cell
     absolute magnetization    =    29.66 Bohr mag/cell

     iteration # 11     ecut=    70.00 Ry     beta= 0.70
     Davidson diagonalization with overlap
     ethr =  4.04E-03,  avg # of iterations =  1.0

     total cpu time spent up to now is     6079.8 secs

     total energy              =   -6201.91783259 Ry
     Harris-Foulkes estimate   =   -6202.25047160 Ry
     estimated scf accuracy    <      23.44020100 Ry

     total magnetization       =    15.97 Bohr mag/cell
     absolute magnetization    =    27.76 Bohr mag/cell

     iteration # 12     ecut=    70.00 Ry     beta= 0.70
     Davidson diagonalization with overlap
     ethr =  4.04E-03,  avg # of iterations =  1.0

     total cpu time spent up to now is     6566.8 secs

     total energy              =   -6199.60216150 Ry
     Harris-Foulkes estimate   =   -6202.09679715 Ry
     estimated scf accuracy    <      23.99980587 Ry

     total magnetization       =    11.99 Bohr mag/cell
     absolute magnetization    =    24.33 Bohr mag/cell

     iteration # 13     ecut=    70.00 Ry     beta= 0.70
     Davidson diagonalization with overlap
     ethr =  4.04E-03,  avg # of iterations =  4.4

     total cpu time spent up to now is     7075.2 secs

     total energy              =   -6200.75834440 Ry
     Harris-Foulkes estimate   =   -6202.49463502 Ry
     estimated scf accuracy    <      16.16645639 Ry

     total magnetization       =     0.76 Bohr mag/cell
     absolute magnetization    =    24.04 Bohr mag/cell

     iteration # 14     ecut=    70.00 Ry     beta= 0.70
     Davidson diagonalization with overlap
     ethr =  3.72E-03,  avg # of iterations =  1.6

     total cpu time spent up to now is     7524.1 secs

     total energy              =   -6201.18384158 Ry
     Harris-Foulkes estimate   =   -6201.18300807 Ry
     estimated scf accuracy    <       1.49043122 Ry

     total magnetization       =     5.17 Bohr mag/cell
     absolute magnetization    =    26.46 Bohr mag/cell

     iteration # 15     ecut=    70.00 Ry     beta= 0.70
     Davidson diagonalization with overlap
     ethr =  3.43E-04,  avg # of iterations =  4.3

     total cpu time spent up to now is     8109.9 secs

     total energy              =   -6201.32535404 Ry
     Harris-Foulkes estimate   =   -6201.35732460 Ry
     estimated scf accuracy    <       0.30477636 Ry

     total magnetization       =     4.27 Bohr mag/cell
     absolute magnetization    =    25.39 Bohr mag/cell

     iteration # 16     ecut=    70.00 Ry     beta= 0.70
     Davidson diagonalization with overlap
     ethr =  7.01E-05,  avg # of iterations =  4.2

     total cpu time spent up to now is     8648.4 secs

     total energy              =   -6201.43670059 Ry
     Harris-Foulkes estimate   =   -6201.43015405 Ry
     estimated scf accuracy    <       0.39570287 Ry

     total magnetization       =    -3.07 Bohr mag/cell
     absolute magnetization    =    25.93 Bohr mag/cell

     iteration # 17     ecut=    70.00 Ry     beta= 0.70
     Davidson diagonalization with overlap
     ethr =  7.01E-05,  avg # of iterations =  1.6

     total cpu time spent up to now is     9098.2 secs

     total energy              =   -6201.27310036 Ry
     Harris-Foulkes estimate   =   -6201.47918287 Ry
     estimated scf accuracy    <       2.36201000 Ry

     total magnetization       =    -3.74 Bohr mag/cell
     absolute magnetization    =    25.41 Bohr mag/cell

     iteration # 18     ecut=    70.00 Ry     beta= 0.70
     Davidson diagonalization with overlap
     ethr =  7.01E-05,  avg # of iterations =  4.0

     total cpu time spent up to now is     9632.6 secs

     total energy              =   -6201.37474561 Ry
     Harris-Foulkes estimate   =   -6201.48148178 Ry
     estimated scf accuracy    <       1.72486473 Ry

     total magnetization       =    -5.73 Bohr mag/cell
     absolute magnetization    =    26.36 Bohr mag/cell

     iteration # 19     ecut=    70.00 Ry     beta= 0.70
     Davidson diagonalization with overlap
     ethr =  7.01E-05,  avg # of iterations =  3.4

     total cpu time spent up to now is    10109.2 secs

     total energy              =   -6201.44161817 Ry
     Harris-Foulkes estimate   =   -6201.43651640 Ry
     estimated scf accuracy    <       0.04755779 Ry

     total magnetization       =    -7.46 Bohr mag/cell
     absolute magnetization    =    26.88 Bohr mag/cell

     iteration # 20     ecut=    70.00 Ry     beta= 0.70
     Davidson diagonalization with overlap
     ethr =  1.09E-05,  avg # of iterations =  9.2

     total cpu time spent up to now is    10714.2 secs

     total energy              =   -6201.44424602 Ry
     Harris-Foulkes estimate   =   -6201.44691195 Ry
     estimated scf accuracy    <       0.29248842 Ry

     total magnetization       =    -7.43 Bohr mag/cell
     absolute magnetization    =    26.87 Bohr mag/cell

     iteration # 21     ecut=    70.00 Ry     beta= 0.70
     Davidson diagonalization with overlap
     ethr =  1.09E-05,  avg # of iterations =  1.0

     total cpu time spent up to now is    11155.2 secs

     total energy              =   -6201.44701946 Ry
     Harris-Foulkes estimate   =   -6201.44563843 Ry
     estimated scf accuracy    <       0.19717436 Ry

     total magnetization       =    -8.19 Bohr mag/cell
     absolute magnetization    =    27.14 Bohr mag/cell

     iteration # 22     ecut=    70.00 Ry     beta= 0.70
     Davidson diagonalization with overlap
     ethr =  1.09E-05,  avg # of iterations =  1.0

     total cpu time spent up to now is    11597.2 secs

     total energy              =   -6201.44467875 Ry
     Harris-Foulkes estimate   =   -6201.44736906 Ry
     estimated scf accuracy    <       0.19220643 Ry

     total magnetization       =    -8.19 Bohr mag/cell
     absolute magnetization    =    27.17 Bohr mag/cell

     iteration # 23     ecut=    70.00 Ry     beta= 0.70
     Davidson diagonalization with overlap
     ethr =  1.09E-05,  avg # of iterations =  1.0

     total cpu time spent up to now is    12076.3 secs

     total energy              =   -6201.42996535 Ry
     Harris-Foulkes estimate   =   -6201.44553287 Ry
     estimated scf accuracy    <       0.09543392 Ry

     total magnetization       =    -8.53 Bohr mag/cell
     absolute magnetization    =    27.35 Bohr mag/cell

     iteration # 24     ecut=    70.00 Ry     beta= 0.70
     Davidson diagonalization with overlap
     ethr =  1.09E-05,  avg # of iterations =  4.0

     total cpu time spent up to now is    12589.7 secs

     total energy              =   -6201.43385844 Ry
     Harris-Foulkes estimate   =   -6201.43707241 Ry
     estimated scf accuracy    <       0.01071279 Ry

     total magnetization       =    -7.25 Bohr mag/cell
     absolute magnetization    =    26.80 Bohr mag/cell

     iteration # 25     ecut=    70.00 Ry     beta= 0.70
     Davidson diagonalization with overlap
     ethr =  2.46E-06,  avg # of iterations =  8.8

     total cpu time spent up to now is    13146.3 secs

     total energy              =   -6201.43622863 Ry
     Harris-Foulkes estimate   =   -6201.43478686 Ry
     estimated scf accuracy    <       0.00426983 Ry

     total magnetization       =    -7.12 Bohr mag/cell
     absolute magnetization    =    26.60 Bohr mag/cell

     iteration # 26     ecut=    70.00 Ry     beta= 0.70
     Davidson diagonalization with overlap
     ethr =  9.82E-07,  avg # of iterations =  6.2

     total cpu time spent up to now is    13797.1 secs

     total energy              =   -6201.43213637 Ry
     Harris-Foulkes estimate   =   -6201.43857838 Ry
     estimated scf accuracy    <       0.00966049 Ry

     total magnetization       =    -7.15 Bohr mag/cell
     absolute magnetization    =    26.94 Bohr mag/cell

     iteration # 27     ecut=    70.00 Ry     beta= 0.70
     Davidson diagonalization with overlap
     ethr =  9.82E-07,  avg # of iterations =  4.3

     total cpu time spent up to now is    14501.7 secs

     total energy              =   -6201.42262100 Ry
     Harris-Foulkes estimate   =   -6201.43417929 Ry
     estimated scf accuracy    <       0.00977731 Ry

     total magnetization       =    -6.48 Bohr mag/cell
     absolute magnetization    =    26.44 Bohr mag/cell

     iteration # 28     ecut=    70.00 Ry     beta= 0.70
     Davidson diagonalization with overlap
     ethr =  9.82E-07,  avg # of iterations =  6.0

     total cpu time spent up to now is    15419.0 secs

     total energy              =   -6201.39708116 Ry
     Harris-Foulkes estimate   =   -6201.43029662 Ry
     estimated scf accuracy    <       0.01246079 Ry

     total magnetization       =    -6.42 Bohr mag/cell
     absolute magnetization    =    25.48 Bohr mag/cell

     iteration # 29     ecut=    70.00 Ry     beta= 0.70
     Davidson diagonalization with overlap
     ethr =  9.82E-07,  avg # of iterations =  6.3

     total cpu time spent up to now is    16458.4 secs

     total energy              =   -6201.41347710 Ry
     Harris-Foulkes estimate   =   -6201.43317417 Ry
     estimated scf accuracy    <       0.01175457 Ry

     total magnetization       =    -4.44 Bohr mag/cell
     absolute magnetization    =    24.96 Bohr mag/cell

     iteration # 30     ecut=    70.00 Ry     beta= 0.70
     Davidson diagonalization with overlap
     ethr =  9.82E-07,  avg # of iterations =  6.0

     total cpu time spent up to now is    17322.0 secs

     total energy              =   -6201.42822600 Ry
     Harris-Foulkes estimate   =   -6201.42838031 Ry
     estimated scf accuracy    <       0.00213254 Ry

     total magnetization       =    -5.64 Bohr mag/cell
     absolute magnetization    =    24.59 Bohr mag/cell

     iteration # 31     ecut=    70.00 Ry     beta= 0.70
     Davidson diagonalization with overlap
     ethr =  4.90E-07,  avg # of iterations =  1.1

     total cpu time spent up to now is    17857.3 secs

     total energy              =   -6201.42847093 Ry
     Harris-Foulkes estimate   =   -6201.42844542 Ry
     estimated scf accuracy    <       0.00022044 Ry

     total magnetization       =    -5.79 Bohr mag/cell
     absolute magnetization    =    24.49 Bohr mag/cell

     iteration # 32     ecut=    70.00 Ry     beta= 0.70
     Davidson diagonalization with overlap
     ethr =  5.07E-08,  avg # of iterations =  4.2

     total cpu time spent up to now is    18592.9 secs

     total energy              =   -6201.42814136 Ry
     Harris-Foulkes estimate   =   -6201.42854253 Ry
     estimated scf accuracy    <       0.00016776 Ry

     total magnetization       =    -5.90 Bohr mag/cell
     absolute magnetization    =    24.36 Bohr mag/cell

     iteration # 33     ecut=    70.00 Ry     beta= 0.70
     Davidson diagonalization with overlap
     ethr =  3.86E-08,  avg # of iterations =  5.1

     total cpu time spent up to now is    19454.1 secs

     total energy              =   -6201.42868747 Ry
     Harris-Foulkes estimate   =   -6201.42872320 Ry
     estimated scf accuracy    <       0.00021326 Ry

     total magnetization       =    -6.28 Bohr mag/cell
     absolute magnetization    =    24.39 Bohr mag/cell

     iteration # 34     ecut=    70.00 Ry     beta= 0.70
     Davidson diagonalization with overlap
     ethr =  3.86E-08,  avg # of iterations =  3.5

     total cpu time spent up to now is    19990.5 secs

     total energy              =   -6201.42820680 Ry
     Harris-Foulkes estimate   =   -6201.42872806 Ry
     estimated scf accuracy    <       0.00019694 Ry

     total magnetization       =    -6.27 Bohr mag/cell
     absolute magnetization    =    24.21 Bohr mag/cell

     iteration # 35     ecut=    70.00 Ry     beta= 0.70
     Davidson diagonalization with overlap
     ethr =  3.86E-08,  avg # of iterations =  5.0

     total cpu time spent up to now is    20840.4 secs

     total energy              =   -6201.42858129 Ry
     Harris-Foulkes estimate   =   -6201.42876215 Ry
     estimated scf accuracy    <       0.00014975 Ry

     total magnetization       =    -6.11 Bohr mag/cell
     absolute magnetization    =    23.72 Bohr mag/cell

     iteration # 36     ecut=    70.00 Ry     beta= 0.70
     Davidson diagonalization with overlap
     ethr =  3.44E-08,  avg # of iterations =  5.0

     total cpu time spent up to now is    21578.5 secs

     total energy              =   -6201.42872605 Ry
     Harris-Foulkes estimate   =   -6201.42878629 Ry
     estimated scf accuracy    <       0.00025839 Ry

     total magnetization       =    -6.23 Bohr mag/cell
     absolute magnetization    =    23.66 Bohr mag/cell

     iteration # 37     ecut=    70.00 Ry     beta= 0.70
     Davidson diagonalization with overlap
     ethr =  3.44E-08,  avg # of iterations =  4.0

     total cpu time spent up to now is    22240.3 secs

     total energy              =   -6201.42878345 Ry
     Harris-Foulkes estimate   =   -6201.42880049 Ry
     estimated scf accuracy    <       0.00005855 Ry

     total magnetization       =    -6.21 Bohr mag/cell
     absolute magnetization    =    23.46 Bohr mag/cell

     iteration # 38     ecut=    70.00 Ry     beta= 0.70
     Davidson diagonalization with overlap
     ethr =  1.35E-08,  avg # of iterations =  4.0

     total cpu time spent up to now is    23088.2 secs

     total energy              =   -6201.42871852 Ry
     Harris-Foulkes estimate   =   -6201.42883315 Ry
     estimated scf accuracy    <       0.00003392 Ry

     total magnetization       =    -6.19 Bohr mag/cell
     absolute magnetization    =    23.25 Bohr mag/cell

     iteration # 39     ecut=    70.00 Ry     beta= 0.70
     Davidson diagonalization with overlap
     ethr =  7.80E-09,  avg # of iterations =  5.2

     total cpu time spent up to now is    24113.0 secs

     total energy              =   -6201.42885440 Ry
     Harris-Foulkes estimate   =   -6201.42885918 Ry
     estimated scf accuracy    <       0.00000428 Ry

     total magnetization       =    -6.23 Bohr mag/cell
     absolute magnetization    =    22.87 Bohr mag/cell

     iteration # 40     ecut=    70.00 Ry     beta= 0.70
     Davidson diagonalization with overlap
     ethr =  9.84E-10,  avg # of iterations =  4.5

     total cpu time spent up to now is    24966.6 secs

     total energy              =   -6201.42886088 Ry
     Harris-Foulkes estimate   =   -6201.42886128 Ry
     estimated scf accuracy    <       0.00000464 Ry

     total magnetization       =    -6.23 Bohr mag/cell
     absolute magnetization    =    22.78 Bohr mag/cell

     iteration # 41     ecut=    70.00 Ry     beta= 0.70
     Davidson diagonalization with overlap
     ethr =  9.84E-10,  avg # of iterations =  1.4

     Magnetic moment per site:
     atom:    1    charge:   12.5798    magn:   -0.2537    constr:    0.0000
     atom:    2    charge:   12.6038    magn:   -2.4238    constr:    0.0000
     atom:    3    charge:   12.6038    magn:   -2.4238    constr:    0.0000
     atom:    4    charge:   12.6038    magn:   -2.4238    constr:    0.0000
     atom:    5    charge:   12.6038    magn:   -2.4238    constr:    0.0000
     atom:    6    charge:   12.7369    magn:   -0.2711    constr:    0.0000
     atom:    7    charge:   12.7369    magn:   -0.2711    constr:    0.0000
     atom:    8    charge:   12.7369    magn:   -0.2711    constr:    0.0000
     atom:    9    charge:   12.7369    magn:   -0.2711    constr:    0.0000
     atom:   10    charge:   12.7369    magn:   -0.2711    constr:    0.0000
     atom:   11    charge:   12.7369    magn:   -0.2711    constr:    0.0000
     atom:   12    charge:   12.7369    magn:   -0.2711    constr:    0.0000
     atom:   13    charge:   12.7369    magn:   -0.2711    constr:    0.0000
     atom:   14    charge:   12.7369    magn:   -0.2711    constr:    0.0000
     atom:   15    charge:   12.7369    magn:   -0.2711    constr:    0.0000
     atom:   16    charge:   12.7369    magn:   -0.2711    constr:    0.0000
     atom:   17    charge:   12.7369    magn:   -0.2711    constr:    0.0000
     atom:   18    charge:   12.6764    magn:    0.6076    constr:    0.0000
     atom:   19    charge:   12.6764    magn:    0.6076    constr:    0.0000
     atom:   20    charge:   12.6764    magn:    0.6076    constr:    0.0000
     atom:   21    charge:   12.6764    magn:    0.6076    constr:    0.0000
     atom:   22    charge:   12.6764    magn:    0.6076    constr:    0.0000
     atom:   23    charge:   12.6764    magn:    0.6076    constr:    0.0000
     atom:   24    charge:   12.6764    magn:    0.6076    constr:    0.0000
     atom:   25    charge:   12.6764    magn:    0.6076    constr:    0.0000
     atom:   26    charge:   12.6764    magn:    0.6076    constr:    0.0000
     atom:   27    charge:   12.6764    magn:    0.6076    constr:    0.0000
     atom:   28    charge:   12.6764    magn:    0.6076    constr:    0.0000
     atom:   29    charge:   12.6764    magn:    0.6076    constr:    0.0000

     total cpu time spent up to now is    25476.2 secs

     End of self-consistent calculation

 ------ SPIN UP ------------


          k = 0.0000 0.0000 0.0000 ( 21913 PWs)   bands (ev):

   -60.8307 -60.7924 -60.7924 -60.7924 -60.7796 -60.7796 -60.7620 -60.7620
   -60.7620 -60.7596 -60.7596 -60.7596 -60.3249 -60.2978 -60.2978 -60.2978
   -60.2647 -60.2647 -60.2519 -60.2036 -60.2036 -60.2036 -60.1694 -60.1694
   -60.1694 -58.8371 -58.8371 -58.8371 -58.8366 -29.7146 -29.7146 -29.7105
   -29.7105 -29.7105 -29.6773 -29.6773 -29.6773 -29.6655 -29.6556 -29.6556
   -29.6556 -29.6393 -29.6393 -29.5939 -29.5939 -29.5939 -29.5791 -29.5791
   -29.5583 -29.5583 -29.5583 -29.5531 -29.4720 -29.4720 -29.4720 -29.4199
   -29.4199 -29.4199 -29.3751 -29.3751 -29.3751 -29.3674 -29.3506 -29.3494
   -29.3494 -29.3494 -29.3394 -29.3394 -29.3394 -29.2499 -29.2499 -29.0997
   -29.0997 -29.0997 -29.0693 -29.0544 -29.0544 -29.0544 -29.0464 -29.0464
   -29.0464 -29.0309 -29.0309 -28.9337 -28.9337 -28.9337 -28.8972 -28.8972
   -28.8972 -28.8761 -28.7900 -28.7900 -28.7841 -28.7841 -28.7841 -28.7813
   -28.7813 -28.7813 -28.7496 -28.7496 -28.7496 -28.6881 -28.6881 -28.6881
   -27.6369 -27.6369 -27.6369 -27.6358 -27.6358 -27.6358 -27.6356 -27.6356
   -27.5778 -27.5778 -27.5778 -27.5770  10.6472  14.0214  14.0214  14.0214
    14.0907  14.0907  14.0907  14.1015  14.1926  14.1926  14.1926  14.2864
    14.2864  14.7365  14.9278  14.9278  14.9278  15.0004  15.0004  15.1966
    15.1966  15.1966  15.2590  15.5724  15.5724  15.5724  15.6452  15.6452
    15.6452  15.7705  15.8786  15.8786  15.9980  15.9980  15.9980  16.0336
    16.0336  16.0336  16.1589  16.3556  16.3556  16.3556  16.4044  16.4044
    16.4864  16.4864  16.4864  16.6888  16.6888  16.6888  16.7249  16.7249
    16.7249  16.7296  16.7296  16.8210  16.8210  16.8210  17.0737  17.0737
    17.0737  17.1510  17.2887  17.2887  17.2929  17.2929  17.2929  17.3410
    17.4001  17.4001  17.4001  17.4717  17.5186  17.5186  17.5186  17.5923
    17.5923  17.5923  17.7357  17.7357  17.8626  17.8626  18.1582  18.1582
    18.1582  18.3870  18.3870  18.3870  18.4719  18.5639  18.5639  18.5639
    18.6108  18.6108  18.7653  18.7653  18.7653  18.7671  18.7671  18.7671
    18.8789  18.8789  19.0613  19.0613  19.0613  19.3229  19.3229  19.3229
    19.3945  19.3945  19.4284  19.4284  19.4284  19.4296  19.4296  19.4296
    19.4694  19.4694  19.8168  19.8168  19.8168  19.9102  19.9102  19.9102
    20.0050  20.0050  20.0050  20.0648  20.0687  20.0687  20.0687  20.0696
    20.0696  20.2190  20.2190  20.2190  20.3900  20.4992  20.5236  20.5236
    20.5236  20.5622  20.5622  20.5622  20.6147  20.6147

          k = 0.1732 0.1732 0.0000 ( 22029 PWs)   bands (ev):

   -60.8282 -60.7988 -60.7931 -60.7926 -60.7786 -60.7756 -60.7623 -60.7622
   -60.7618 -60.7598 -60.7596 -60.7595 -60.3274 -60.2976 -60.2976 -60.2955
   -60.2650 -60.2643 -60.2520 -60.2036 -60.2033 -60.2028 -60.1701 -60.1699
   -60.1696 -58.8371 -58.8371 -58.8371 -58.8367 -29.7233 -29.7224 -29.7083
   -29.7068 -29.7017 -29.6864 -29.6842 -29.6830 -29.6622 -29.6587 -29.6506
   -29.6428 -29.6414 -29.6344 -29.6090 -29.5998 -29.5817 -29.5686 -29.5678
   -29.5636 -29.5557 -29.5510 -29.5484 -29.4804 -29.4695 -29.4596 -29.4415
   -29.4355 -29.4257 -29.3817 -29.3800 -29.3759 -29.3669 -29.3643 -29.3549
   -29.3502 -29.3496 -29.3353 -29.3220 -29.3107 -29.2521 -29.2448 -29.1018
   -29.1013 -29.0990 -29.0808 -29.0603 -29.0575 -29.0480 -29.0474 -29.0445
   -29.0386 -29.0256 -29.0254 -28.9342 -28.9341 -28.9338 -28.9011 -28.8985
   -28.8974 -28.8715 -28.8032 -28.7960 -28.7916 -28.7851 -28.7833 -28.7805
   -28.7736 -28.7728 -28.7498 -28.7474 -28.7472 -28.6881 -28.6881 -28.6880
   -27.6376 -27.6374 -27.6374 -27.6363 -27.6363 -27.6352 -27.6350 -27.6344
   -27.5785 -27.5777 -27.5776 -27.5767  10.8291  13.1767  13.7116  13.7582
    13.7735  13.7741  14.1689  14.2283  14.4281  14.4685  14.5757  14.6159
    14.6666  14.7635  14.8045  14.9056  14.9189  14.9964  15.0279  15.0568
    15.1745  15.2778  15.3574  15.4784  15.5185  15.5306  15.7335  15.7452
    15.8040  15.8607  15.8974  15.9746  16.0069  16.0242  16.0737  16.0799
    16.0996  16.1235  16.2318  16.2526  16.3331  16.3358  16.3987  16.4063
    16.5163  16.5228  16.5655  16.6157  16.6260  16.6474  16.6519  16.6736
    16.7058  16.7788  16.7846  16.8240  16.8632  16.9146  16.9432  16.9544
    16.9892  17.1058  17.1280  17.2143  17.2381  17.2797  17.3243  17.3377
    17.3529  17.3986  17.4457  17.4746  17.5466  17.5732  17.5903  17.5929
    17.6142  17.7076  17.7530  17.7766  17.9148  17.9606  18.0807  18.1208
    18.1768  18.1811  18.2360  18.3549  18.3924  18.4226  18.5023  18.5678
    18.6144  18.6388  18.6417  18.7205  18.7860  18.8141  18.8263  18.8744
    18.9200  18.9622  19.0583  19.0703  19.0784  19.2305  19.2773  19.3245
    19.3446  19.3817  19.4358  19.4453  19.4691  19.4931  19.5337  19.5551
    19.6105  19.6674  19.7217  19.7595  19.8035  19.8363  19.8880  19.9262
    19.9570  19.9929  20.0051  20.0473  20.0648  20.1102  20.1357  20.1720
    20.1899  20.1920  20.2282  20.3364  20.3613  20.3979  20.4585  20.4645
    20.5034  20.5071  20.5232  20.5384  20.5859  20.6441

          k = 0.3464 0.3464 0.0000 ( 22057 PWs)   bands (ev):

   -60.8218 -60.8089 -60.7941 -60.7929 -60.7771 -60.7714 -60.7628 -60.7625
   -60.7616 -60.7601 -60.7596 -60.7592 -60.3308 -60.2974 -60.2973 -60.2924
   -60.2654 -60.2637 -60.2522 -60.2035 -60.2027 -60.2014 -60.1712 -60.1706
   -60.1700 -58.8371 -58.8371 -58.8370 -58.8368 -29.7313 -29.7242 -29.7072
   -29.7061 -29.7034 -29.6931 -29.6887 -29.6782 -29.6722 -29.6670 -29.6545
   -29.6278 -29.6249 -29.6199 -29.6126 -29.6095 -29.5856 -29.5739 -29.5631
   -29.5474 -29.5467 -29.5378 -29.5341 -29.4919 -29.4792 -29.4621 -29.4575
   -29.4403 -29.4306 -29.3928 -29.3883 -29.3863 -29.3752 -29.3610 -29.3568
   -29.3529 -29.3524 -29.3278 -29.2987 -29.2880 -29.2555 -29.2358 -29.1128
   -29.1041 -29.0975 -29.0828 -29.0727 -29.0606 -29.0483 -29.0479 -29.0426
   -29.0219 -29.0185 -29.0175 -28.9350 -28.9346 -28.9341 -28.9052 -28.9007
   -28.8977 -28.8659 -28.8151 -28.8011 -28.7978 -28.7911 -28.7834 -28.7796
   -28.7696 -28.7663 -28.7482 -28.7443 -28.7438 -28.6882 -28.6881 -28.6877
   -27.6384 -27.6381 -27.6380 -27.6365 -27.6363 -27.6350 -27.6342 -27.6336
   -27.5794 -27.5775 -27.5773 -27.5764  11.3577  12.1794  13.4912  13.5456
    13.5553  13.5643  14.3739  14.4079  14.5601  14.5985  14.6393  14.6933
    14.7313  14.8030  14.8875  14.9004  14.9645  15.0388  15.0466  15.1304
    15.1341  15.2513  15.3545  15.4766  15.5659  15.5844  15.7654  15.8110
    15.8297  15.9237  15.9853  15.9859  16.0577  16.1052  16.1057  16.1772
    16.1833  16.2343  16.2552  16.2779  16.2912  16.3373  16.4095  16.4417
    16.4514  16.4694  16.5041  16.5642  16.6177  16.6629  16.6855  16.7326
    16.7597  16.7802  16.7911  16.8102  16.8460  16.9189  16.9341  16.9981
    17.0419  17.0721  17.0841  17.1294  17.1687  17.2035  17.2465  17.3341
    17.3354  17.3372  17.4264  17.4457  17.5026  17.5776  17.6454  17.7067
    17.7069  17.7419  17.7838  17.8493  17.9309  17.9527  18.0035  18.0978
    18.1118  18.1781  18.1998  18.2167  18.2448  18.3292  18.3976  18.4941
    18.5347  18.5486  18.5834  18.7001  18.7233  18.7895  18.8147  18.9160
    18.9464  19.0170  19.0656  19.1145  19.1548  19.1781  19.2717  19.2994
    19.3271  19.4005  19.4118  19.4730  19.4899  19.5453  19.6285  19.6369
    19.6503  19.7271  19.7651  19.8145  19.8195  19.8918  19.9360  19.9582
    19.9913  20.0186  20.0240  20.0773  20.1022  20.1053  20.1722  20.2114
    20.2492  20.2685  20.3088  20.3220  20.3715  20.3719  20.3779  20.4530
    20.4948  20.5209  20.5465  20.5857  20.6233  20.6283

          k = 0.3464 0.1732 0.1732 ( 22046 PWs)   bands (ev):

   -60.8236 -60.8051 -60.7987 -60.7884 -60.7789 -60.7716 -60.7628 -60.7620
   -60.7619 -60.7601 -60.7594 -60.7593 -60.3302 -60.2974 -60.2968 -60.2936
   -60.2651 -60.2640 -60.2522 -60.2035 -60.2026 -60.2020 -60.1708 -60.1705
   -60.1700 -58.8371 -58.8371 -58.8370 -58.8367 -29.7280 -29.7245 -29.7084
   -29.7046 -29.7024 -29.6940 -29.6918 -29.6804 -29.6747 -29.6545 -29.6511
   -29.6343 -29.6324 -29.6239 -29.6118 -29.6011 -29.5818 -29.5768 -29.5622
   -29.5560 -29.5439 -29.5420 -29.5389 -29.4938 -29.4716 -29.4563 -29.4513
   -29.4435 -29.4354 -29.3925 -29.3855 -29.3798 -29.3781 -29.3604 -29.3588
   -29.3524 -29.3514 -29.3197 -29.3110 -29.2920 -29.2518 -29.2397 -29.1084
   -29.1051 -29.1012 -29.0818 -29.0643 -29.0630 -29.0498 -29.0455 -29.0452
   -29.0246 -29.0196 -29.0191 -28.9347 -28.9347 -28.9341 -28.9041 -28.8999
   -28.8985 -28.8667 -28.8110 -28.8042 -28.7961 -28.7885 -28.7877 -28.7756
   -28.7709 -28.7656 -28.7490 -28.7450 -28.7450 -28.6881 -28.6880 -28.6878
   -27.6383 -27.6381 -27.6377 -27.6367 -27.6363 -27.6349 -27.6343 -27.6338
   -27.5793 -27.5775 -27.5773 -27.5765  11.1844  12.7588  12.7879  13.4228
    13.9459  13.9498  14.3040  14.3362  14.5395  14.5941  14.5974  14.7075
    14.7579  14.7830  14.8558  14.9056  14.9111  14.9886  15.0208  15.1205
    15.1811  15.2040  15.4011  15.5220  15.5263  15.5649  15.7736  15.8015
    15.8309  15.9409  15.9453  16.0148  16.0345  16.0541  16.1420  16.1523
    16.1719  16.1784  16.2585  16.2680  16.2925  16.3287  16.3545  16.4162
    16.4953  16.5095  16.5501  16.5922  16.5951  16.6440  16.6742  16.6867
    16.7409  16.7771  16.8130  16.8380  16.8612  16.8890  16.9403  16.9617
    17.0285  17.0320  17.1401  17.1584  17.1858  17.1996  17.2432  17.3041
    17.3121  17.4255  17.4325  17.5131  17.5268  17.5852  17.6144  17.6505
    17.6616  17.7402  17.7515  17.8755  17.9356  18.0084  18.0203  18.0728
    18.1129  18.1409  18.2011  18.2633  18.3134  18.3579  18.3726  18.4065
    18.5382  18.6014  18.6562  18.6925  18.7790  18.8071  18.8489  18.8535
    18.9388  18.9935  19.0693  19.0983  19.1598  19.1640  19.2359  19.3051
    19.3696  19.4230  19.4353  19.4710  19.4967  19.5439  19.5560  19.6523
    19.7221  19.7396  19.7625  19.7658  19.8391  19.8575  19.8589  19.9356
    19.9723  19.9796  20.0235  20.0340  20.0824  20.1404  20.1813  20.1960
    20.2571  20.2682  20.3197  20.3209  20.3810  20.3839  20.4219  20.4547
    20.4960  20.5186  20.5358  20.5694  20.5996  20.6102

          k = 0.5196 0.3464 0.1732 ( 22042 PWs)   bands (ev):

   -60.8176 -60.8121 -60.8007 -60.7863 -60.7795 -60.7696 -60.7631 -60.7622
   -60.7617 -60.7603 -60.7594 -60.7592 -60.3318 -60.2973 -60.2960 -60.2930
   -60.2650 -60.2639 -60.2522 -60.2031 -60.2025 -60.2014 -60.1714 -60.1708
   -60.1703 -58.8371 -58.8370 -58.8370 -58.8368 -29.7294 -29.7213 -29.7117
   -29.7091 -29.7015 -29.6989 -29.6944 -29.6797 -29.6778 -29.6571 -29.6549
   -29.6209 -29.6204 -29.6126 -29.6096 -29.6090 -29.5978 -29.5747 -29.5638
   -29.5435 -29.5401 -29.5389 -29.5248 -29.5046 -29.4911 -29.4578 -29.4475
   -29.4470 -29.4212 -29.4030 -29.4003 -29.3838 -29.3784 -29.3617 -29.3559
   -29.3544 -29.3543 -29.3152 -29.2960 -29.2880 -29.2493 -29.2375 -29.1156
   -29.1088 -29.1019 -29.0738 -29.0737 -29.0643 -29.0484 -29.0474 -29.0445
   -29.0171 -29.0159 -29.0149 -28.9351 -28.9348 -28.9345 -28.9048 -28.9019
   -28.8989 -28.8641 -28.8149 -28.8060 -28.8034 -28.7903 -28.7881 -28.7739
   -28.7699 -28.7615 -28.7468 -28.7451 -28.7440 -28.6881 -28.6880 -28.6877
   -27.6386 -27.6385 -27.6379 -27.6365 -27.6365 -27.6345 -27.6341 -27.6335
   -27.5798 -27.5774 -27.5770 -27.5765  11.8412  11.8788  12.6309  13.3021
    13.8520  14.1840  14.2864  14.3240  14.5802  14.6179  14.6610  14.7461
    14.7821  14.7828  14.8727  14.9234  14.9443  14.9573  15.0961  15.1442
    15.2091  15.2372  15.3651  15.5094  15.5182  15.6402  15.7772  15.8095
    15.8639  15.9037  15.9481  16.0285  16.0521  16.0775  16.1266  16.1443
    16.2166  16.2247  16.2537  16.2848  16.2939  16.3437  16.3485  16.4448
    16.4470  16.4792  16.4977  16.5874  16.6176  16.6897  16.7002  16.7320
    16.7602  16.7845  16.8204  16.8394  16.8929  16.8938  16.9927  17.0037
    17.0176  17.0570  17.1089  17.1378  17.1574  17.2071  17.2101  17.2582
    17.2990  17.3919  17.4253  17.4896  17.5258  17.5968  17.6283  17.6521
    17.7180  17.7901  17.8178  17.8660  17.8874  17.9574  17.9920  18.0542
    18.1115  18.1154  18.1197  18.1670  18.2439  18.3485  18.3558  18.3849
    18.5441  18.6212  18.6330  18.7217  18.7422  18.7588  18.8391  18.8551
    18.9078  18.9597  19.0225  19.1046  19.1364  19.1562  19.2092  19.2910
    19.3676  19.4061  19.4499  19.5140  19.5396  19.5581  19.5828  19.6388
    19.6674  19.7387  19.7791  19.8341  19.8777  19.9177  19.9350  19.9709
    19.9961  20.0486  20.0631  20.1008  20.1164  20.1357  20.1939  20.2137
    20.2486  20.2949  20.3523  20.3569  20.3912  20.3946  20.4375  20.4466
    20.4792  20.5142  20.5643  20.5965  20.6070  20.6535

          k = 0.3464 0.3464 0.3464 ( 22069 PWs)   bands (ev):

   -60.8175 -60.8081 -60.8081 -60.7816 -60.7751 -60.7751 -60.7625 -60.7625
   -60.7622 -60.7606 -60.7592 -60.7592 -60.3319 -60.2957 -60.2957 -60.2934
   -60.2653 -60.2653 -60.2522 -60.2030 -60.2020 -60.2020 -60.1709 -60.1709
   -60.1703 -58.8371 -58.8371 -58.8370 -58.8368 -29.7185 -29.7185 -29.7065
   -29.7032 -29.7032 -29.6973 -29.6942 -29.6942 -29.6921 -29.6392 -29.6392
   -29.6274 -29.6274 -29.6205 -29.6091 -29.6091 -29.6061 -29.5945 -29.5486
   -29.5391 -29.5391 -29.5264 -29.5264 -29.5107 -29.5060 -29.4567 -29.4567
   -29.4314 -29.4314 -29.4072 -29.4028 -29.3808 -29.3808 -29.3565 -29.3541
   -29.3541 -29.3375 -29.3080 -29.3080 -29.2886 -29.2437 -29.2437 -29.1149
   -29.1106 -29.1106 -29.0717 -29.0634 -29.0634 -29.0485 -29.0485 -29.0482
   -29.0188 -29.0152 -29.0152 -28.9350 -28.9350 -28.9346 -28.9029 -28.8994
   -28.8994 -28.8653 -28.8074 -28.8074 -28.7999 -28.7950 -28.7950 -28.7710
   -28.7658 -28.7658 -28.7474 -28.7448 -28.7448 -28.6881 -28.6879 -28.6879
   -27.6383 -27.6383 -27.6382 -27.6365 -27.6365 -27.6346 -27.6340 -27.6340
   -27.5798 -27.5771 -27.5771 -27.5766  11.6955  12.4668  12.4668  12.5212
    14.3415  14.3977  14.3977  14.5080  14.5435  14.6202  14.6202  14.7402
    14.8060  14.8060  14.8440  14.8635  14.8635  15.0244  15.0615  15.0615
    15.1277  15.1277  15.4767  15.4767  15.5205  15.6732  15.8795  15.8795
    15.9387  15.9387  15.9938  16.0177  16.0363  16.0363  16.0877  16.1446
    16.1446  16.1679  16.2390  16.2390  16.2478  16.3053  16.3253  16.3253
    16.4275  16.4275  16.5902  16.6012  16.6012  16.6595  16.7182  16.7680
    16.7680  16.8376  16.8386  16.8386  16.9156  16.9210  16.9210  16.9571
    17.0161  17.0161  17.0553  17.0553  17.2438  17.2438  17.2768  17.3258
    17.3258  17.3709  17.4516  17.4874  17.4874  17.5550  17.5550  17.6869
    17.7071  17.7071  17.8766  17.8935  17.8935  17.9031  17.9984  17.9984
    18.0883  18.1617  18.1617  18.1677  18.2384  18.2384  18.4430  18.5156
    18.5156  18.6217  18.6217  18.7660  18.7673  18.7673  18.8594  18.8594
    18.8945  18.9563  18.9884  18.9884  19.0989  19.1783  19.1783  19.2825
    19.2833  19.3374  19.3374  19.5070  19.5070  19.6111  19.6111  19.6174
    19.6927  19.8070  19.8070  19.8856  19.8987  19.8987  19.9957  19.9972
    19.9972  20.0699  20.0699  20.1305  20.1857  20.1857  20.2237  20.2283
    20.3244  20.3245  20.3245  20.3768  20.3768  20.4283  20.4613  20.4613
    20.4761  20.5856  20.5916  20.5916  20.6215  20.6419

          k = 0.0000 0.0000 0.3464 ( 22010 PWs)   bands (ev):

   -60.8259 -60.8021 -60.7928 -60.7928 -60.7828 -60.7704 -60.7630 -60.7617
   -60.7617 -60.7596 -60.7596 -60.7596 -60.3292 -60.2974 -60.2974 -60.2948
   -60.2649 -60.2632 -60.2521 -60.2030 -60.2030 -60.2026 -60.1703 -60.1703
   -60.1703 -58.8371 -58.8371 -58.8371 -58.8367 -29.7289 -29.7257 -29.7084
   -29.7084 -29.6993 -29.6956 -29.6956 -29.6800 -29.6585 -29.6545 -29.6545
   -29.6377 -29.6368 -29.6257 -29.6153 -29.5802 -29.5767 -29.5767 -29.5675
   -29.5669 -29.5527 -29.5456 -29.5456 -29.4678 -29.4678 -29.4647 -29.4500
   -29.4500 -29.4225 -29.3888 -29.3809 -29.3809 -29.3779 -29.3635 -29.3633
   -29.3519 -29.3519 -29.3141 -29.3141 -29.3079 -29.2563 -29.2369 -29.1022
   -29.1014 -29.1014 -29.0830 -29.0643 -29.0643 -29.0518 -29.0435 -29.0435
   -29.0278 -29.0224 -29.0210 -28.9345 -28.9345 -28.9338 -28.9029 -28.9003
   -28.9003 -28.8672 -28.8103 -28.8019 -28.7926 -28.7926 -28.7869 -28.7708
   -28.7708 -28.7669 -28.7502 -28.7461 -28.7461 -28.6880 -28.6880 -28.6878
   -27.6381 -27.6380 -27.6373 -27.6373 -27.6360 -27.6346 -27.6346 -27.6340
   -27.5792 -27.5774 -27.5774 -27.5766  11.0080  13.2923  13.2943  13.2943
    13.3277  14.2088  14.2545  14.2545  14.3224  14.5830  14.7012  14.7120
    14.7120  14.7296  14.8135  14.8975  14.8975  14.9374  15.0967  15.1218
    15.2478  15.2801  15.2801  15.4819  15.5688  15.5688  15.7076  15.7787
    15.7787  15.8992  15.9000  16.0238  16.0238  16.0779  16.1160  16.1181
    16.1181  16.1470  16.2530  16.2530  16.2754  16.3882  16.3997  16.4917
    16.5229  16.5229  16.5361  16.5756  16.5896  16.5896  16.6861  16.7553
    16.7715  16.8006  16.8006  16.8712  16.8866  16.9190  16.9190  16.9658
    16.9658  17.0044  17.0921  17.1596  17.1678  17.1678  17.2020  17.3833
    17.3833  17.4012  17.4426  17.5471  17.5638  17.5638  17.6347  17.6733
    17.7156  17.7554  17.7554  17.7755  17.8373  18.0274  18.0274  18.0945
    18.1100  18.1893  18.2252  18.2252  18.3470  18.4179  18.4438  18.5458
    18.5458  18.5869  18.6260  18.7161  18.7806  18.7806  18.8584  18.8584
    18.8896  18.9265  19.1316  19.1316  19.1340  19.2416  19.2416  19.2587
    19.3384  19.4526  19.4576  19.4876  19.4876  19.5179  19.6196  19.6196
    19.7154  19.7329  19.7329  19.7857  19.8129  19.8784  19.8784  19.9024
    19.9211  19.9503  20.0161  20.0161  20.0727  20.1135  20.1219  20.1943
    20.1943  20.1986  20.2461  20.2461  20.2919  20.4203  20.4203  20.4309
    20.4914  20.4914  20.5201  20.5537  20.5766  20.6110

          k = 0.0000-0.1732 0.5196 ( 22071 PWs)   bands (ev):

   -60.8198 -60.8094 -60.7938 -60.7931 -60.7840 -60.7663 -60.7636 -60.7617
   -60.7615 -60.7598 -60.7595 -60.7593 -60.3318 -60.2973 -60.2972 -60.2940
   -60.2638 -60.2625 -60.2522 -60.2029 -60.2024 -60.2016 -60.1714 -60.1710
   -60.1707 -58.8371 -58.8370 -58.8370 -58.8368 -29.7368 -29.7263 -29.7155
   -29.7141 -29.7022 -29.6999 -29.6967 -29.6783 -29.6681 -29.6571 -29.6552
   -29.6245 -29.6219 -29.6126 -29.6097 -29.5902 -29.5830 -29.5700 -29.5645
   -29.5571 -29.5452 -29.5424 -29.5322 -29.4913 -29.4750 -29.4590 -29.4481
   -29.4355 -29.4320 -29.4033 -29.3887 -29.3850 -29.3846 -29.3777 -29.3597
   -29.3547 -29.3545 -29.3108 -29.2998 -29.2936 -29.2498 -29.2337 -29.1121
   -29.1052 -29.1010 -29.0802 -29.0718 -29.0674 -29.0495 -29.0447 -29.0429
   -29.0170 -29.0163 -29.0133 -28.9349 -28.9347 -28.9343 -28.9066 -28.9035
   -28.9022 -28.8618 -28.8195 -28.8129 -28.7982 -28.7929 -28.7879 -28.7678
   -28.7676 -28.7595 -28.7485 -28.7450 -28.7445 -28.6878 -28.6878 -28.6875
   -27.6390 -27.6389 -27.6375 -27.6370 -27.6365 -27.6341 -27.6339 -27.6334
   -27.5800 -27.5772 -27.5771 -27.5765  11.5275  12.3322  13.0398  13.0506
    13.6458  14.0498  14.1359  14.1667  14.5839  14.6153  14.6970  14.7544
    14.7641  14.8476  14.8627  14.9193  14.9720  15.0162  15.0824  15.1839
    15.2283  15.2590  15.3346  15.4992  15.5489  15.6113  15.7491  15.7693
    15.8200  15.8610  15.9103  15.9607  15.9954  16.0678  16.1223  16.1704
    16.1966  16.2653  16.2871  16.3135  16.3467  16.4006  16.4114  16.4275
    16.4848  16.5429  16.5632  16.5867  16.6124  16.6678  16.7166  16.7475
    16.7682  16.7891  16.8128  16.8729  16.9048  16.9202  16.9491  16.9679
    17.0189  17.0631  17.0783  17.1130  17.1695  17.2178  17.2361  17.2993
    17.3456  17.3898  17.4430  17.5263  17.5458  17.5900  17.6335  17.6952
    17.7159  17.7308  17.8184  17.8689  17.8897  17.9309  17.9470  18.0029
    18.1009  18.1248  18.1603  18.1876  18.2221  18.2494  18.4059  18.4630
    18.5297  18.5596  18.6440  18.7139  18.7343  18.7733  18.8292  18.8642
    18.9204  18.9484  19.0662  19.1366  19.1507  19.2092  19.2669  19.3604
    19.3753  19.4450  19.4722  19.4941  19.5182  19.5327  19.6266  19.6456
    19.6892  19.7470  19.7951  19.8192  19.8874  19.8953  19.8978  19.9361
    19.9677  19.9963  20.0065  20.0374  20.0543  20.0668  20.1367  20.1769
    20.2552  20.2678  20.2953  20.3316  20.3406  20.3767  20.4260  20.4403
    20.4958  20.5195  20.5479  20.5798  20.6131  20.6429

          k =-0.6928-0.1732-0.1732 ( 22065 PWs)   bands (ev):

   -60.8141 -60.8141 -60.7970 -60.7884 -60.7884 -60.7642 -60.7639 -60.7615
   -60.7615 -60.7599 -60.7593 -60.7593 -60.3327 -60.2977 -60.2956 -60.2956
   -60.2623 -60.2623 -60.2523 -60.2023 -60.2023 -60.2014 -60.1718 -60.1712
   -60.1712 -58.8371 -58.8370 -58.8370 -58.8369 -29.7404 -29.7235 -29.7235
   -29.7195 -29.7056 -29.6994 -29.6994 -29.6828 -29.6608 -29.6608 -29.6447
   -29.6245 -29.6245 -29.6073 -29.5989 -29.5989 -29.5690 -29.5690 -29.5572
   -29.5541 -29.5535 -29.5535 -29.5083 -29.5083 -29.4847 -29.4404 -29.4402
   -29.4402 -29.4198 -29.4198 -29.4029 -29.3923 -29.3816 -29.3816 -29.3575
   -29.3575 -29.3561 -29.3052 -29.2961 -29.2961 -29.2386 -29.2386 -29.1124
   -29.1124 -29.1016 -29.0746 -29.0714 -29.0714 -29.0468 -29.0447 -29.0447
   -29.0142 -29.0142 -29.0090 -28.9349 -28.9347 -28.9347 -28.9068 -28.9068
   -28.9042 -28.8592 -28.8216 -28.8216 -28.7998 -28.7911 -28.7911 -28.7646
   -28.7646 -28.7554 -28.7469 -28.7458 -28.7458 -28.6877 -28.6877 -28.6873
   -27.6394 -27.6394 -27.6374 -27.6368 -27.6368 -27.6337 -27.6337 -27.6332
   -27.5803 -27.5771 -27.5767 -27.5767  12.1606  12.1606  12.2113  13.5327
    13.5327  13.5352  14.0280  14.4730  14.6453  14.6598  14.6598  14.7699
    14.8303  14.8303  14.9496  14.9496  14.9824  14.9979  15.1079  15.1079
    15.2801  15.2801  15.3114  15.5046  15.5046  15.7191  15.7191  15.7308
    15.7597  15.8790  15.8790  15.9484  15.9484  16.0304  16.1369  16.1532
    16.1532  16.3309  16.3309  16.3424  16.4179  16.4179  16.4538  16.5069
    16.5069  16.5154  16.5449  16.5449  16.5738  16.7008  16.7008  16.7720
    16.7720  16.7792  16.8648  16.8648  16.9802  16.9951  16.9951  17.0074
    17.0356  17.0356  17.0853  17.0853  17.1456  17.2062  17.2062  17.3599
    17.4059  17.4059  17.4468  17.5569  17.5569  17.6314  17.6388  17.6388
    17.6819  17.7265  17.7315  17.8387  17.8387  17.9344  17.9344  17.9960
    18.0813  18.0847  18.0847  18.1631  18.1631  18.3088  18.3088  18.4545
    18.5661  18.5765  18.5765  18.7519  18.7772  18.7772  18.7907  18.8750
    18.8750  19.0304  19.0898  19.0898  19.1796  19.2307  19.2307  19.3843
    19.4033  19.4033  19.4802  19.4802  19.5520  19.5811  19.5811  19.6105
    19.7370  19.7488  19.7488  19.8462  19.8692  19.8755  19.8755  19.9409
    19.9409  19.9790  20.0124  20.0124  20.0870  20.0870  20.2058  20.2248
    20.2248  20.2613  20.2871  20.2871  20.3686  20.4227  20.4227  20.4983
    20.5076  20.5076  20.5196  20.6191  20.6596  20.6596

          k = 0.0000 0.0000 0.6928 ( 22030 PWs)   bands (ev):

   -60.8151 -60.8110 -60.7935 -60.7935 -60.7912 -60.7642 -60.7623 -60.7612
   -60.7612 -60.7595 -60.7595 -60.7595 -60.3333 -60.2970 -60.2970 -60.2962
   -60.2614 -60.2609 -60.2523 -60.2018 -60.2018 -60.2017 -60.1718 -60.1718
   -60.1718 -58.8371 -58.8370 -58.8370 -58.8369 -29.7464 -29.7279 -29.7247
   -29.7247 -29.7102 -29.6978 -29.6978 -29.6934 -29.6551 -29.6415 -29.6415
   -29.6364 -29.6246 -29.6068 -29.5977 -29.5896 -29.5647 -29.5626 -29.5626
   -29.5622 -29.5516 -29.5516 -29.5093 -29.4815 -29.4815 -29.4477 -29.4340
   -29.4335 -29.4335 -29.4291 -29.4151 -29.3841 -29.3841 -29.3827 -29.3590
   -29.3571 -29.3571 -29.3014 -29.3009 -29.3009 -29.2391 -29.2327 -29.1117
   -29.1110 -29.1110 -29.0723 -29.0690 -29.0690 -29.0469 -29.0442 -29.0442
   -29.0131 -29.0125 -29.0071 -28.9347 -28.9347 -28.9346 -28.9089 -28.9080
   -28.9080 -28.8567 -28.8281 -28.8264 -28.7952 -28.7952 -28.7939 -28.7575
   -28.7575 -28.7546 -28.7497 -28.7467 -28.7467 -28.6873 -28.6873 -28.6873
   -27.6398 -27.6398 -27.6371 -27.6371 -27.6369 -27.6333 -27.6333 -27.6332
   -27.5807 -27.5768 -27.5768 -27.5766  12.0182  12.7470  12.7683  12.7683
    12.7956  13.4163  14.3610  14.5111  14.6441  14.6441  14.7266  14.8549
    14.8549  14.8689  14.9217  14.9735  15.0550  15.0550  15.1227  15.1227
    15.1735  15.2087  15.2717  15.4749  15.5150  15.6748  15.6835  15.6835
    15.8276  15.8276  15.8957  15.9019  15.9019  15.9893  16.1688  16.1971
    16.1971  16.3381  16.3416  16.3791  16.3791  16.4485  16.4662  16.4823
    16.4823  16.5190  16.5430  16.5430  16.7092  16.7158  16.7158  16.7286
    16.8415  16.8599  16.8782  16.8782  16.9108  16.9149  16.9987  17.0399
    17.0399  17.0667  17.1450  17.2026  17.2621  17.2982  17.2982  17.3033
    17.4078  17.4078  17.4461  17.5504  17.5730  17.5730  17.5976  17.6001
    17.6617  17.6809  17.7516  17.7694  17.7694  17.8973  17.9385  17.9385
    17.9560  17.9809  18.1543  18.1543  18.2145  18.3307  18.4334  18.4334
    18.4927  18.5498  18.5635  18.7500  18.7500  18.8107  18.8356  18.8356
    18.8434  19.0892  19.1596  19.1596  19.2317  19.2644  19.2824  19.2824
    19.4038  19.4386  19.4757  19.5329  19.5371  19.5702  19.5702  19.6601
    19.6631  19.6730  19.6730  19.8374  19.8374  19.8795  19.8962  19.8962
    19.9520  20.0082  20.0289  20.0289  20.0986  20.0986  20.1120  20.1351
    20.2246  20.2297  20.2297  20.2448  20.4198  20.4198  20.4750  20.5243
    20.5281  20.5419  20.5419  20.6074  20.6546  20.6753

 ------ SPIN DOWN ----------


          k = 0.0000 0.0000 0.0000 ( 21913 PWs)   bands (ev):

   -61.8071 -61.8065 -61.8065 -61.8065 -60.6744 -60.6337 -60.6337 -60.6337
   -60.6019 -60.6019 -60.5788 -60.5404 -60.5404 -60.5404 -60.5115 -60.5115
   -60.5115 -60.0738 -60.0461 -60.0461 -60.0461 -60.0372 -60.0372 -60.0198
   -60.0198 -60.0198 -60.0173 -60.0173 -60.0173 -30.5540 -30.5517 -30.5517
   -30.5517 -30.5268 -30.5268 -30.5246 -30.5246 -30.5246 -30.5212 -30.5212
   -30.5212 -29.7571 -29.6489 -29.6489 -29.6489 -29.5965 -29.5965 -29.5766
   -29.5766 -29.5766 -29.5192 -29.4660 -29.4660 -29.4660 -29.4372 -29.4372
   -29.4372 -29.4244 -29.4244 -29.3271 -29.3271 -29.3271 -29.3008 -29.3008
   -29.2760 -29.2760 -29.2760 -29.2675 -29.2675 -29.2675 -29.2521 -29.2521
   -29.2521 -29.1863 -29.0922 -29.0922 -29.0922 -28.9811 -28.9811 -28.9811
   -28.9286 -28.9286 -28.8627 -28.8627 -28.8627 -28.8191 -28.8160 -28.8160
   -28.8160 -28.7892 -28.7892 -28.7712 -28.7712 -28.7712 -28.7569 -28.7569
   -28.7561 -28.7561 -28.7561 -28.7142 -28.7142 -28.7142 -28.7138 -28.7138
   -28.7138 -28.7119 -28.6745 -28.6545 -28.6545 -28.6545 -28.6523 -28.6523
   -28.6523 -28.6148 -28.6148 -28.6148  10.6079  13.9382  13.9382  13.9382
    14.0092  14.0766  14.0766  14.0766  14.1205  14.1205  14.1205  14.1994
    14.1994  14.7252  14.7252  14.7252  14.7814  14.7814  14.8099  15.0759
    15.0759  15.0759  15.1070  15.4375  15.4375  15.4375  15.6300  15.6300
    15.6300  15.6575  15.6575  15.6575  15.8567  15.8567  15.8567  15.9076
    15.9076  15.9221  16.0626  16.2019  16.2019  16.2019  16.2649  16.2649
    16.2649  16.3418  16.3418  16.5178  16.5178  16.5178  16.5278  16.5278
    16.5623  16.5623  16.5623  16.6824  16.6824  16.6824  16.7719  16.7719
    16.9249  16.9249  16.9249  16.9638  16.9638  16.9638  17.3099  17.3099
    17.3099  17.3404  17.3404  17.3404  17.3540  17.6122  17.6134  17.6434
    17.6434  17.6827  17.6827  17.6827  17.7241  17.7241  17.8784  17.8784
    17.8784  18.0987  18.0987  18.0987  18.1050  18.2069  18.2069  18.2839
    18.2839  18.2839  18.4017  18.4017  18.4017  18.5806  18.5806  18.5806
    18.6912  18.6912  18.7899  18.7899  18.7899  18.7947  18.7947  18.7947
    19.0072  19.0072  19.3886  19.3886  19.3886  19.3955  19.3955  19.4183
    19.4183  19.4183  19.4686  19.4830  19.4830  19.4830  19.7924  19.7924
    19.7924  19.8227  19.8227  19.8709  19.8709  19.8709  19.9403  20.0392
    20.0392  20.0392  20.1595  20.1595  20.1595  20.2733  20.2733  20.2733
    20.3028  20.3325  20.3325  20.4120  20.4120  20.4120

          k = 0.1732 0.1732 0.0000 ( 22029 PWs)   bands (ev):

   -61.8070 -61.8065 -61.8065 -61.8065 -60.6727 -60.6354 -60.6339 -60.6339
   -60.6023 -60.6016 -60.5787 -60.5414 -60.5409 -60.5405 -60.5112 -60.5108
   -60.5105 -60.0721 -60.0512 -60.0469 -60.0461 -60.0359 -60.0333 -60.0204
   -60.0202 -60.0199 -60.0174 -60.0173 -60.0172 -30.5541 -30.5521 -30.5516
   -30.5512 -30.5270 -30.5264 -30.5249 -30.5242 -30.5241 -30.5216 -30.5214
   -30.5212 -29.7538 -29.6545 -29.6506 -29.6500 -29.5946 -29.5936 -29.5750
   -29.5730 -29.5715 -29.5258 -29.4717 -29.4714 -29.4658 -29.4388 -29.4351
   -29.4327 -29.4306 -29.4266 -29.3277 -29.3239 -29.3201 -29.3039 -29.2977
   -29.2759 -29.2757 -29.2750 -29.2717 -29.2669 -29.2667 -29.2506 -29.2483
   -29.2481 -29.1912 -29.0971 -29.0955 -29.0898 -28.9865 -28.9832 -28.9815
   -28.9336 -28.9278 -28.8658 -28.8623 -28.8479 -28.8162 -28.8125 -28.8084
   -28.8066 -28.7948 -28.7910 -28.7723 -28.7712 -28.7693 -28.7611 -28.7599
   -28.7543 -28.7519 -28.7461 -28.7215 -28.7200 -28.7190 -28.7179 -28.7131
   -28.7066 -28.7042 -28.6671 -28.6600 -28.6552 -28.6552 -28.6543 -28.6515
   -28.6510 -28.6263 -28.6181 -28.6158  10.7896  13.1257  13.6351  13.6499
    13.7468  13.7579  14.1096  14.1619  14.3420  14.4127  14.4766  14.5206
    14.5850  14.6397  14.6687  14.7442  14.7701  14.8314  14.8389  14.9576
    15.0660  15.1815  15.2225  15.3298  15.3620  15.4568  15.6378  15.6434
    15.6765  15.7011  15.7390  15.8135  15.8298  15.9111  15.9298  15.9605
    15.9659  16.0255  16.0968  16.1663  16.2084  16.2338  16.2369  16.2569
    16.2950  16.3497  16.3835  16.4398  16.4623  16.4864  16.4963  16.5106
    16.5355  16.5996  16.6246  16.6569  16.6688  16.6764  16.7333  16.7838
    16.8745  16.8921  16.9315  16.9529  16.9852  17.0341  17.1696  17.1877
    17.2646  17.3092  17.3934  17.4602  17.4620  17.5014  17.5506  17.5892
    17.6286  17.6799  17.6838  17.7101  17.7269  17.7381  17.8196  17.8314
    17.8879  18.0537  18.0791  18.1216  18.1442  18.1512  18.1752  18.2306
    18.2591  18.3149  18.4182  18.4206  18.4672  18.5512  18.5705  18.5899
    18.6514  18.6675  18.7169  18.7719  18.8233  18.8463  18.8707  18.8948
    19.0478  19.1721  19.1964  19.2459  19.2654  19.3339  19.3957  19.4368
    19.4530  19.4867  19.5623  19.5677  19.5856  19.6664  19.6976  19.7339
    19.7971  19.8180  19.8352  19.8766  19.8828  19.8893  19.8908  19.9881
    20.0018  20.0632  20.1252  20.1408  20.1816  20.2054  20.2235  20.2493
    20.2939  20.3092  20.3558  20.3565  20.3694  20.3835

          k = 0.3464 0.3464 0.0000 ( 22057 PWs)   bands (ev):

   -61.8069 -61.8066 -61.8066 -61.8065 -60.6697 -60.6384 -60.6341 -60.6341
   -60.6030 -60.6012 -60.5786 -60.5431 -60.5415 -60.5406 -60.5107 -60.5098
   -60.5090 -60.0678 -60.0587 -60.0478 -60.0460 -60.0338 -60.0292 -60.0215
   -60.0211 -60.0201 -60.0176 -60.0173 -60.0170 -30.5540 -30.5531 -30.5514
   -30.5507 -30.5269 -30.5260 -30.5255 -30.5240 -30.5232 -30.5224 -30.5216
   -30.5215 -29.7476 -29.6640 -29.6533 -29.6515 -29.5912 -29.5881 -29.5722
   -29.5675 -29.5589 -29.5410 -29.4778 -29.4776 -29.4667 -29.4435 -29.4405
   -29.4334 -29.4304 -29.4259 -29.3269 -29.3193 -29.3103 -29.3097 -29.2888
   -29.2816 -29.2753 -29.2749 -29.2719 -29.2682 -29.2629 -29.2473 -29.2453
   -29.2418 -29.2009 -29.1052 -29.1011 -29.0848 -28.9936 -28.9857 -28.9820
   -28.9363 -28.9258 -28.8712 -28.8623 -28.8412 -28.8045 -28.8012 -28.7993
   -28.7957 -28.7913 -28.7880 -28.7809 -28.7760 -28.7715 -28.7611 -28.7542
   -28.7524 -28.7432 -28.7346 -28.7327 -28.7288 -28.7229 -28.7215 -28.7144
   -28.6995 -28.6903 -28.6728 -28.6644 -28.6594 -28.6577 -28.6513 -28.6501
   -28.6468 -28.6449 -28.6271 -28.6180  11.3176  12.1359  13.4136  13.4387
    13.5299  13.5533  14.2510  14.3816  14.4154  14.5031  14.5843  14.6007
    14.6526  14.6908  14.7140  14.7466  14.8163  14.9068  14.9456  14.9661
    15.0627  15.1285  15.1792  15.3333  15.4489  15.4734  15.6204  15.6549
    15.8164  15.8200  15.8428  15.8468  15.9178  15.9587  15.9781  16.0155
    16.0298  16.0605  16.0636  16.1399  16.1457  16.1779  16.2056  16.2744
    16.2970  16.3801  16.3967  16.4203  16.4375  16.4976  16.5566  16.5735
    16.5878  16.5937  16.6360  16.6621  16.6964  16.7048  16.7816  16.8398
    16.8478  16.8980  16.9146  16.9367  17.0366  17.0741  17.0748  17.1587
    17.1840  17.2357  17.2456  17.3129  17.4139  17.4572  17.4864  17.5389
    17.5509  17.6258  17.7095  17.7233  17.8159  17.8280  17.8428  17.8502
    17.9000  17.9588  18.0566  18.0672  18.1319  18.1537  18.2322  18.2575
    18.2589  18.2745  18.3212  18.3805  18.3824  18.5388  18.5831  18.5853
    18.6049  18.6918  18.7240  18.7956  18.9282  18.9426  18.9488  18.9909
    19.0160  19.0532  19.1268  19.1706  19.1943  19.2487  19.3666  19.4178
    19.4480  19.5505  19.5736  19.5954  19.6091  19.6731  19.7432  19.7524
    19.7849  19.8542  19.9031  19.9275  19.9287  19.9704  19.9790  20.0146
    20.0376  20.0539  20.1233  20.1397  20.1458  20.1999  20.2656  20.2970
    20.3158  20.3363  20.3554  20.3671  20.4171  20.4197

          k = 0.3464 0.1732 0.1732 ( 22046 PWs)   bands (ev):

   -61.8069 -61.8066 -61.8066 -61.8065 -60.6704 -60.6372 -60.6347 -60.6341
   -60.6026 -60.6015 -60.5786 -60.5424 -60.5416 -60.5406 -60.5107 -60.5099
   -60.5095 -60.0691 -60.0561 -60.0509 -60.0428 -60.0355 -60.0296 -60.0213
   -60.0206 -60.0203 -60.0175 -60.0174 -60.0170 -30.5541 -30.5523 -30.5522
   -30.5505 -30.5270 -30.5261 -30.5253 -30.5242 -30.5233 -30.5223 -30.5217
   -30.5213 -29.7489 -29.6605 -29.6534 -29.6522 -29.5913 -29.5898 -29.5730
   -29.5666 -29.5646 -29.5367 -29.4767 -29.4758 -29.4670 -29.4410 -29.4395
   -29.4320 -29.4300 -29.4292 -29.3238 -29.3230 -29.3128 -29.3069 -29.2908
   -29.2820 -29.2756 -29.2756 -29.2726 -29.2677 -29.2637 -29.2477 -29.2459
   -29.2423 -29.1985 -29.1027 -29.0986 -29.0880 -28.9912 -28.9853 -28.9832
   -28.9374 -28.9224 -28.8803 -28.8572 -28.8327 -28.8147 -28.8042 -28.8011
   -28.7953 -28.7937 -28.7881 -28.7756 -28.7741 -28.7709 -28.7656 -28.7620
   -28.7514 -28.7403 -28.7361 -28.7301 -28.7269 -28.7232 -28.7190 -28.7149
   -28.7003 -28.6961 -28.6735 -28.6600 -28.6559 -28.6557 -28.6520 -28.6507
   -28.6480 -28.6445 -28.6218 -28.6202  11.1445  12.7209  12.7307  13.3654
    13.8717  13.8982  14.1911  14.3236  14.4259  14.4924  14.5151  14.5954
    14.6622  14.6760  14.7052  14.7593  14.7873  14.8734  14.9088  14.9292
    15.0779  15.1064  15.2032  15.3619  15.4177  15.5412  15.5974  15.7101
    15.7303  15.7793  15.8049  15.8051  15.9317  15.9556  15.9658  15.9794
    16.0323  16.0996  16.1266  16.1483  16.1576  16.2033  16.2293  16.2625
    16.2859  16.3193  16.4055  16.4201  16.4412  16.4669  16.5180  16.5470
    16.5504  16.5884  16.6226  16.6763  16.6798  16.7115  16.7590  16.8281
    16.8452  16.8954  16.9125  16.9234  17.0016  17.0388  17.1745  17.1883
    17.2272  17.2693  17.3128  17.3525  17.4020  17.4671  17.5064  17.5663
    17.5848  17.6176  17.6568  17.7097  17.7507  17.8020  17.8415  17.8517
    17.9137  17.9695  18.0393  18.0903  18.1331  18.1769  18.2181  18.2333
    18.2949  18.3210  18.3604  18.3803  18.4228  18.4694  18.5859  18.5869
    18.6429  18.6842  18.7123  18.7646  18.8881  18.8947  18.9168  18.9838
    19.0696  19.0853  19.1535  19.1654  19.2403  19.2736  19.4054  19.4115
    19.4760  19.5134  19.5513  19.5763  19.6267  19.6648  19.6971  19.7643
    19.7996  19.8148  19.8571  19.8623  19.9354  19.9616  19.9809  19.9874
    20.0377  20.0880  20.1049  20.1336  20.1937  20.2419  20.2484  20.2756
    20.3070  20.3367  20.3594  20.3857  20.4096  20.4208

          k = 0.5196 0.3464 0.1732 ( 22042 PWs)   bands (ev):

   -61.8068 -61.8066 -61.8066 -61.8065 -60.6687 -60.6382 -60.6355 -60.6342
   -60.6026 -60.6016 -60.5785 -60.5431 -60.5417 -60.5410 -60.5102 -60.5096
   -60.5088 -60.0650 -60.0611 -60.0524 -60.0410 -60.0356 -60.0275 -60.0220
   -60.0210 -60.0204 -60.0176 -60.0175 -60.0169 -30.5535 -30.5533 -30.5523
   -30.5502 -30.5267 -30.5259 -30.5259 -30.5236 -30.5229 -30.5229 -30.5217
   -30.5216 -29.7455 -29.6637 -29.6563 -29.6533 -29.5890 -29.5871 -29.5719
   -29.5623 -29.5542 -29.5504 -29.4790 -29.4761 -29.4692 -29.4448 -29.4416
   -29.4328 -29.4309 -29.4277 -29.3238 -29.3160 -29.3112 -29.3064 -29.2938
   -29.2868 -29.2749 -29.2733 -29.2730 -29.2643 -29.2598 -29.2514 -29.2422
   -29.2402 -29.2036 -29.1067 -29.0985 -29.0878 -28.9930 -28.9861 -28.9846
   -28.9385 -28.9158 -28.8906 -28.8582 -28.8271 -28.8078 -28.8040 -28.7929
   -28.7926 -28.7867 -28.7862 -28.7784 -28.7770 -28.7715 -28.7614 -28.7562
   -28.7546 -28.7486 -28.7360 -28.7286 -28.7266 -28.7220 -28.7193 -28.7159
   -28.6967 -28.6836 -28.6834 -28.6680 -28.6602 -28.6573 -28.6553 -28.6495
   -28.6475 -28.6373 -28.6305 -28.6226  11.8145  11.8221  12.5836  13.2465
    13.7899  14.0954  14.2043  14.2469  14.4740  14.5599  14.6123  14.6224
    14.6378  14.6684  14.7292  14.7809  14.8060  14.8863  14.9419  14.9636
    15.0936  15.1253  15.1601  15.3887  15.4520  15.5455  15.6487  15.7539
    15.7701  15.8085  15.8192  15.8836  15.9023  15.9211  15.9521  15.9552
    16.0206  16.0682  16.1184  16.1203  16.1513  16.1907  16.2383  16.2773
    16.2955  16.3302  16.4081  16.4215  16.4503  16.4911  16.5039  16.5524
    16.5923  16.6256  16.6758  16.7274  16.7406  16.7707  16.8121  16.8454
    16.8612  16.8979  16.9051  16.9942  17.0245  17.0430  17.0715  17.1134
    17.1197  17.1511  17.2393  17.3101  17.4086  17.4597  17.4693  17.5221
    17.5414  17.5798  17.5878  17.7745  17.8178  17.8370  17.8855  17.9009
    17.9071  17.9987  18.0057  18.0777  18.1065  18.1604  18.2247  18.2316
    18.2869  18.3118  18.3146  18.4124  18.4419  18.4468  18.5310  18.5729
    18.6429  18.6465  18.7024  18.7836  18.9196  18.9249  18.9707  18.9896
    19.0300  19.0865  19.0959  19.1215  19.1922  19.2388  19.3356  19.4291
    19.4627  19.4685  19.5635  19.5830  19.6447  19.6837  19.6921  19.7574
    19.7835  19.8736  19.9239  19.9252  19.9559  19.9913  20.0199  20.0446
    20.0907  20.1101  20.1712  20.1988  20.2206  20.2209  20.2396  20.2804
    20.3065  20.3409  20.3441  20.3917  20.3987  20.4288

          k = 0.3464 0.3464 0.3464 ( 22069 PWs)   bands (ev):

   -61.8068 -61.8066 -61.8066 -61.8066 -60.6686 -60.6377 -60.6357 -60.6357
   -60.6014 -60.6014 -60.5785 -60.5423 -60.5423 -60.5411 -60.5102 -60.5095
   -60.5095 -60.0648 -60.0581 -60.0581 -60.0374 -60.0321 -60.0321 -60.0213
   -60.0213 -60.0208 -60.0177 -60.0177 -60.0168 -30.5533 -30.5521 -30.5521
   -30.5516 -30.5260 -30.5260 -30.5252 -30.5235 -30.5235 -30.5230 -30.5220
   -30.5220 -29.7454 -29.6617 -29.6567 -29.6567 -29.5863 -29.5863 -29.5638
   -29.5638 -29.5595 -29.5492 -29.4789 -29.4789 -29.4731 -29.4402 -29.4402
   -29.4356 -29.4313 -29.4313 -29.3155 -29.3155 -29.3110 -29.2977 -29.2974
   -29.2974 -29.2736 -29.2736 -29.2719 -29.2634 -29.2634 -29.2495 -29.2495
   -29.2420 -29.1989 -29.1013 -29.1013 -29.0916 -28.9891 -28.9891 -28.9855
   -28.9237 -28.9237 -28.9010 -28.8334 -28.8334 -28.8192 -28.7935 -28.7921
   -28.7921 -28.7866 -28.7866 -28.7776 -28.7764 -28.7764 -28.7676 -28.7676
   -28.7567 -28.7554 -28.7271 -28.7271 -28.7232 -28.7193 -28.7193 -28.7158
   -28.6902 -28.6866 -28.6866 -28.6658 -28.6597 -28.6544 -28.6544 -28.6466
   -28.6466 -28.6414 -28.6290 -28.6290  11.6552  12.4323  12.4431  12.4431
    14.2105  14.3285  14.3285  14.4447  14.4550  14.5338  14.5338  14.5910
    14.6712  14.6712  14.7374  14.7778  14.7778  14.8388  14.8388  14.9057
    15.0571  15.0571  15.3207  15.3207  15.4379  15.6947  15.6947  15.7149
    15.7851  15.7851  15.8301  15.8450  15.8940  15.9548  15.9548  15.9873
    16.0541  16.0541  16.1185  16.1185  16.1872  16.1872  16.1993  16.2079
    16.3208  16.3208  16.3451  16.3937  16.3937  16.4834  16.5583  16.5583
    16.6128  16.6416  16.6416  16.7307  16.7307  16.7515  16.7986  16.7986
    16.8802  16.9281  16.9451  16.9451  17.0286  17.0286  17.1279  17.1279
    17.1575  17.1873  17.2760  17.2760  17.2768  17.3961  17.3961  17.4628
    17.4628  17.5737  17.6540  17.6540  17.8569  17.8589  17.8589  17.9283
    17.9433  17.9758  17.9758  18.0878  18.0878  18.2334  18.2369  18.2369
    18.2616  18.3242  18.3417  18.3417  18.4001  18.4001  18.5897  18.5897
    18.6488  18.6644  18.7263  18.7263  18.9344  18.9344  19.0014  19.0114
    19.0508  19.0508  19.1328  19.1403  19.1403  19.2737  19.3994  19.3994
    19.4847  19.4977  19.4977  19.5027  19.6003  19.6637  19.6637  19.7924
    19.7924  19.9790  19.9790  20.0100  20.0235  20.0235  20.0346  20.0827
    20.1757  20.1823  20.1823  20.2181  20.2181  20.2437  20.2437  20.2724
    20.3302  20.3302  20.3388  20.4321  20.4321  20.4910

          k = 0.0000 0.0000 0.3464 ( 22010 PWs)   bands (ev):

   -61.8070 -61.8066 -61.8066 -61.8065 -60.6714 -60.6360 -60.6340 -60.6340
   -60.6034 -60.6016 -60.5786 -60.5415 -60.5413 -60.5413 -60.5103 -60.5102
   -60.5102 -60.0706 -60.0541 -60.0460 -60.0460 -60.0391 -60.0289 -60.0213
   -60.0201 -60.0201 -60.0173 -60.0173 -60.0173 -30.5542 -30.5525 -30.5525
   -30.5500 -30.5275 -30.5255 -30.5255 -30.5253 -30.5228 -30.5218 -30.5218
   -30.5209 -29.7510 -29.6577 -29.6513 -29.6513 -29.5944 -29.5924 -29.5762
   -29.5682 -29.5682 -29.5316 -29.4725 -29.4725 -29.4641 -29.4445 -29.4385
   -29.4310 -29.4310 -29.4249 -29.3268 -29.3268 -29.3124 -29.3100 -29.2838
   -29.2779 -29.2779 -29.2749 -29.2749 -29.2729 -29.2682 -29.2446 -29.2446
   -29.2419 -29.1978 -29.0968 -29.0968 -29.0915 -28.9911 -28.9825 -28.9825
   -28.9427 -28.9192 -28.8707 -28.8707 -28.8309 -28.8159 -28.8069 -28.8023
   -28.8023 -28.8016 -28.7853 -28.7717 -28.7706 -28.7694 -28.7694 -28.7517
   -28.7517 -28.7461 -28.7457 -28.7239 -28.7239 -28.7206 -28.7186 -28.7158
   -28.7046 -28.7046 -28.6591 -28.6587 -28.6587 -28.6566 -28.6530 -28.6529
   -28.6529 -28.6410 -28.6170 -28.6170  10.9683  13.1992  13.1992  13.2850
    13.3205  14.0724  14.2060  14.2479  14.2479  14.4856  14.6025  14.6100
    14.6100  14.6835  14.6840  14.7065  14.7065  14.7690  14.9663  15.0248
    15.1284  15.1284  15.1828  15.3890  15.3890  15.4961  15.6266  15.6608
    15.6608  15.7534  15.7752  15.7752  15.8090  15.9386  16.0034  16.0039
    16.0039  16.0803  16.1348  16.1792  16.1792  16.1877  16.2016  16.2782
    16.2782  16.3202  16.3234  16.4360  16.4739  16.4739  16.4968  16.5207
    16.5982  16.5982  16.6067  16.6586  16.6761  16.7272  16.7272  16.8714
    16.8912  16.9366  16.9366  16.9477  16.9863  16.9863  17.0882  17.2005
    17.2005  17.2585  17.3930  17.4713  17.4713  17.4808  17.5770  17.5770
    17.5783  17.6541  17.6738  17.7249  17.7788  17.7788  17.8137  17.8212
    17.9670  17.9748  18.0395  18.0928  18.0928  18.1605  18.2334  18.2352
    18.3235  18.3235  18.4155  18.4155  18.4440  18.5613  18.5747  18.5747
    18.5775  18.6916  18.7818  18.7818  18.8499  18.8654  18.9009  18.9009
    18.9886  19.0628  19.1118  19.1665  19.3023  19.3023  19.4243  19.4334
    19.4334  19.5317  19.5317  19.5758  19.5945  19.6637  19.7180  19.7601
    19.7601  19.8117  19.8238  19.8792  19.8792  19.8890  19.9545  19.9900
    19.9900  20.0933  20.0933  20.1320  20.1616  20.2005  20.2617  20.2617
    20.3188  20.3188  20.3203  20.3493  20.3875  20.4125

          k = 0.0000-0.1732 0.5196 ( 22071 PWs)   bands (ev):

   -61.8068 -61.8066 -61.8066 -61.8065 -60.6689 -60.6373 -60.6342 -60.6342
   -60.6042 -60.6025 -60.5785 -60.5429 -60.5419 -60.5414 -60.5097 -60.5092
   -60.5087 -60.0666 -60.0594 -60.0470 -60.0460 -60.0391 -60.0250 -60.0224
   -60.0206 -60.0202 -60.0174 -60.0173 -60.0171 -30.5540 -30.5533 -30.5528
   -30.5491 -30.5274 -30.5264 -30.5263 -30.5238 -30.5226 -30.5224 -30.5215
   -30.5210 -29.7459 -29.6621 -29.6542 -29.6532 -29.5925 -29.5901 -29.5770
   -29.5629 -29.5593 -29.5453 -29.4731 -29.4726 -29.4640 -29.4465 -29.4452
   -29.4306 -29.4288 -29.4275 -29.3242 -29.3223 -29.3148 -29.3075 -29.2903
   -29.2889 -29.2754 -29.2750 -29.2742 -29.2679 -29.2572 -29.2407 -29.2387
   -29.2364 -29.2099 -29.1020 -29.0994 -29.0883 -28.9933 -28.9857 -28.9839
   -28.9481 -28.9114 -28.8807 -28.8773 -28.8200 -28.8144 -28.8038 -28.7942
   -28.7924 -28.7893 -28.7837 -28.7809 -28.7779 -28.7629 -28.7575 -28.7542
   -28.7471 -28.7405 -28.7336 -28.7314 -28.7295 -28.7259 -28.7228 -28.7189
   -28.7005 -28.6952 -28.6715 -28.6698 -28.6607 -28.6585 -28.6554 -28.6517
   -28.6511 -28.6390 -28.6235 -28.6193  11.4868  12.2870  12.9412  13.0500
    13.5837  13.9503  14.0842  14.1101  14.4745  14.5384  14.6090  14.6493
    14.6673  14.7042  14.7467  14.7882  14.8315  14.8720  14.8975  15.0387
    15.1045  15.1059  15.2542  15.4337  15.4831  15.5265  15.6025  15.6944
    15.7086  15.7420  15.7833  15.8084  15.8856  15.9178  16.0107  16.0159
    16.0384  16.0663  16.0927  16.1498  16.1724  16.2062  16.2105  16.2286
    16.2534  16.2897  16.3818  16.4437  16.4479  16.4814  16.5041  16.5376
    16.6249  16.6352  16.6725  16.7024  16.7314  16.7653  16.8208  16.8436
    16.8871  16.8949  16.9218  16.9565  17.0246  17.0449  17.1169  17.1643
    17.2336  17.2692  17.2949  17.3772  17.4492  17.4800  17.5021  17.5884
    17.6158  17.6449  17.7179  17.7251  17.7600  17.7928  17.8096  17.8434
    17.9058  17.9247  18.0366  18.0738  18.1171  18.1486  18.2103  18.2671
    18.3316  18.3457  18.3667  18.4072  18.4281  18.5313  18.5541  18.5664
    18.6106  18.6681  18.7247  18.7739  18.8387  18.8784  18.9157  18.9600
    18.9876  19.0233  19.1149  19.1768  19.1853  19.2465  19.3623  19.3843
    19.4452  19.5027  19.5171  19.5561  19.5778  19.6564  19.6712  19.7071
    19.7800  19.7887  19.8251  19.9252  19.9494  19.9810  20.0144  20.0226
    20.0847  20.1059  20.1210  20.1487  20.1851  20.2149  20.2634  20.3023
    20.3149  20.3245  20.3309  20.3978  20.4134  20.4246

          k =-0.6928-0.1732-0.1732 ( 22065 PWs)   bands (ev):

   -61.8068 -61.8066 -61.8066 -61.8065 -60.6681 -60.6360 -60.6360 -60.6338
   -60.6041 -60.6041 -60.5785 -60.5431 -60.5419 -60.5419 -60.5090 -60.5090
   -60.5083 -60.0628 -60.0628 -60.0490 -60.0423 -60.0423 -60.0230 -60.0229
   -60.0206 -60.0206 -60.0174 -60.0174 -60.0170 -30.5536 -30.5535 -30.5535
   -30.5486 -30.5272 -30.5269 -30.5269 -30.5229 -30.5228 -30.5228 -30.5210
   -30.5210 -29.7440 -29.6589 -29.6589 -29.6537 -29.5915 -29.5915 -29.5789
   -29.5572 -29.5559 -29.5559 -29.4711 -29.4661 -29.4661 -29.4463 -29.4463
   -29.4305 -29.4294 -29.4294 -29.3218 -29.3183 -29.3183 -29.3029 -29.3029
   -29.2944 -29.2753 -29.2745 -29.2745 -29.2683 -29.2410 -29.2410 -29.2349
   -29.2349 -29.2173 -29.1040 -29.0931 -29.0931 -28.9915 -28.9864 -28.9864
   -28.9521 -28.8970 -28.8970 -28.8812 -28.8197 -28.8064 -28.8064 -28.7901
   -28.7901 -28.7845 -28.7844 -28.7814 -28.7814 -28.7522 -28.7522 -28.7474
   -28.7474 -28.7429 -28.7425 -28.7326 -28.7262 -28.7262 -28.7216 -28.7216
   -28.6994 -28.6869 -28.6869 -28.6776 -28.6606 -28.6606 -28.6568 -28.6519
   -28.6519 -28.6269 -28.6269 -28.6234  12.1235  12.1375  12.1375  13.4407
    13.4926  13.4926  13.9661  14.3620  14.5206  14.6238  14.6270  14.6270
    14.6968  14.6968  14.7937  14.8434  14.8434  14.8491  14.9290  14.9290
    15.0602  15.2519  15.2519  15.5042  15.5042  15.5397  15.6535  15.6535
    15.6963  15.7318  15.7318  15.8097  15.8615  15.8615  16.0087  16.0087
    16.0553  16.1055  16.1055  16.1411  16.1411  16.1828  16.2053  16.2053
    16.2473  16.3500  16.3500  16.3538  16.4582  16.4582  16.5486  16.5486
    16.5795  16.6743  16.6743  16.6847  16.8007  16.8187  16.8187  16.8624
    16.8624  16.9716  16.9716  17.0206  17.0271  17.0271  17.1429  17.2291
    17.2334  17.2334  17.3247  17.4426  17.4426  17.4739  17.5392  17.5640
    17.5640  17.6583  17.6583  17.7164  17.7960  17.7960  17.8386  17.8386
    17.8944  17.9344  18.0314  18.0314  18.0762  18.1990  18.2524  18.2524
    18.2761  18.3586  18.3586  18.4354  18.4483  18.4902  18.4902  18.5854
    18.5854  18.6972  18.6972  18.7371  18.8666  18.8666  18.9513  18.9966
    19.0328  19.0328  19.0666  19.0666  19.2474  19.2474  19.2787  19.2930
    19.4401  19.4401  19.5169  19.5375  19.5375  19.6610  19.6993  19.6993
    19.7062  19.7247  19.7247  19.9551  20.0011  20.0262  20.0262  20.0648
    20.0819  20.0819  20.1815  20.1983  20.1983  20.2743  20.2743  20.3084
    20.3084  20.3520  20.3754  20.3754  20.3884  20.4133

          k = 0.0000 0.0000 0.6928 ( 22030 PWs)   bands (ev):

   -61.8067 -61.8066 -61.8066 -61.8066 -60.6677 -60.6354 -60.6344 -60.6344
   -60.6059 -60.6050 -60.5785 -60.5426 -60.5425 -60.5425 -60.5083 -60.5082
   -60.5082 -60.0636 -60.0609 -60.0459 -60.0459 -60.0444 -60.0233 -60.0216
   -60.0205 -60.0205 -60.0172 -60.0172 -60.0172 -30.5539 -30.5537 -30.5537
   -30.5479 -30.5277 -30.5273 -30.5273 -30.5231 -30.5226 -30.5226 -30.5208
   -30.5206 -29.7430 -29.6584 -29.6556 -29.6556 -29.5947 -29.5934 -29.5817
   -29.5593 -29.5593 -29.5541 -29.4636 -29.4636 -29.4602 -29.4471 -29.4460
   -29.4314 -29.4314 -29.4299 -29.3199 -29.3199 -29.3172 -29.3089 -29.3033
   -29.3033 -29.2747 -29.2747 -29.2747 -29.2704 -29.2345 -29.2345 -29.2329
   -29.2270 -29.2250 -29.0973 -29.0973 -29.0947 -28.9903 -28.9868 -28.9868
   -28.9585 -28.8989 -28.8891 -28.8891 -28.8278 -28.8034 -28.8015 -28.7913
   -28.7913 -28.7887 -28.7876 -28.7758 -28.7734 -28.7502 -28.7502 -28.7416
   -28.7397 -28.7397 -28.7337 -28.7337 -28.7337 -28.7301 -28.7241 -28.7208
   -28.6994 -28.6994 -28.6880 -28.6688 -28.6683 -28.6683 -28.6538 -28.6538
   -28.6538 -28.6277 -28.6218 -28.6218  11.9748  12.6661  12.6661  12.7626
    12.7949  13.3611  14.2202  14.5063  14.5351  14.6034  14.6034  14.7208
    14.7208  14.7338  14.8216  14.8532  14.8532  14.8617  14.8987  14.9400
    14.9400  15.2657  15.3387  15.5529  15.5646  15.5837  15.5837  15.6681
    15.6681  15.7228  15.7315  15.7799  15.7799  15.8465  16.0288  16.0717
    16.0788  16.1006  16.1006  16.1110  16.1156  16.1156  16.1384  16.1691
    16.2458  16.2458  16.3424  16.3758  16.4100  16.4100  16.5370  16.5374
    16.5822  16.5822  16.5996  16.8192  16.8271  16.8489  16.8489  16.9064
    16.9064  17.0017  17.0236  17.0845  17.1071  17.1071  17.1965  17.3495
    17.3628  17.3628  17.3845  17.4099  17.4143  17.4868  17.4868  17.5249
    17.6106  17.6351  17.6351  17.6566  17.7934  17.8255  17.8525  17.8525
    17.8790  17.9339  17.9799  17.9970  17.9970  18.1802  18.2701  18.2701
    18.3123  18.3564  18.3952  18.3952  18.4589  18.4589  18.5046  18.5233
    18.5944  18.7134  18.7818  18.7818  18.8812  18.9098  18.9293  18.9293
    18.9524  18.9608  19.1287  19.1287  19.1549  19.1789  19.2635  19.2853
    19.3164  19.3164  19.4647  19.5293  19.5293  19.6490  19.6599  19.6599
    19.6912  19.7856  19.8765  19.9258  19.9543  19.9543  20.0795  20.0795
    20.1080  20.1150  20.1719  20.1719  20.1976  20.2513  20.2654  20.2849
    20.2849  20.3906  20.4004  20.4004  20.4353  20.4353

     the Fermi energy is    18.8348 ev

!    total energy              =   -6201.42886135 Ry
     Harris-Foulkes estimate   =   -6201.42886134 Ry
     estimated scf accuracy    <       0.00000034 Ry

     The total energy is the sum of the following terms:

     one-electron contribution =   -2469.43603804 Ry
     hartree contribution      =    1494.26061187 Ry
     xc contribution           =    -807.87640299 Ry
     ewald contribution        =   -4418.37893035 Ry
     smearing contrib. (-TS)   =       0.00189816 Ry

     total magnetization       =    -6.23 Bohr mag/cell
     absolute magnetization    =    22.77 Bohr mag/cell

     convergence has been achieved in  41 iterations

     Writing output data file mn-8.71.save/

     init_run     :    191.11s CPU    192.62s WALL (       1 calls)
     electrons    :  25163.64s CPU  25283.05s WALL (       1 calls)

     Called by init_run:
     wfcinit      :    183.70s CPU    184.23s WALL (       1 calls)
     potinit      :      1.10s CPU      1.19s WALL (       1 calls)
     hinit0       :      0.48s CPU      0.53s WALL (       1 calls)

     Called by electrons:
     c_bands      :  22933.46s CPU  23032.06s WALL (      41 calls)
     sum_band     :   1978.21s CPU   1991.67s WALL (      41 calls)
     v_of_rho     :     35.23s CPU     36.61s WALL (      42 calls)
     newd         :    212.82s CPU    219.43s WALL (      42 calls)
     mix_rho      :      6.27s CPU      6.40s WALL (      41 calls)

     Called by c_bands:
     init_us_2    :     26.84s CPU     26.98s WALL (    1660 calls)
     cegterg      :  22805.79s CPU  22903.45s WALL (     820 calls)

     Called by sum_band:
     sum_band:bec :      3.61s CPU      3.62s WALL (     820 calls)
     addusdens    :    248.37s CPU    254.27s WALL (      41 calls)

     Called by *egterg:
     h_psi        :   8010.51s CPU   8055.80s WALL (    3835 calls)
     s_psi        :   3438.09s CPU   3440.07s WALL (    3835 calls)
     g_psi        :      7.83s CPU      7.84s WALL (    2995 calls)
     cdiaghg      :   2253.49s CPU   2256.10s WALL (    3815 calls)

     Called by h_psi:
     h_psi:pot    :   8000.77s CPU   8037.49s WALL (    3835 calls)
     h_psi:calbec :   3406.52s CPU   3409.06s WALL (    3835 calls)
     vloc_psi     :   1158.28s CPU   1191.41s WALL (    3835 calls)
     add_vuspsi   :   3435.93s CPU   3437.00s WALL (    3835 calls)

     General routines
     calbec       :   4849.76s CPU   4853.39s WALL (    4655 calls)
     fft          :     26.44s CPU     27.47s WALL (    1044 calls)
     ffts         :      0.50s CPU      0.53s WALL (     166 calls)
     fftw         :   1278.38s CPU   1314.11s WALL ( 1228680 calls)
     interpolate  :      2.80s CPU      2.87s WALL (      84 calls)

     Parallel routines
     fft_scatt_xy :    126.07s CPU    129.33s WALL ( 1229890 calls)
     fft_scatt_yz :    554.08s CPU    571.24s WALL ( 1229890 calls)

     PWSCF        :      7h 2m CPU      7h 4m WALL


   This run was terminated on:  23:36: 6   5Aug2022            

=------------------------------------------------------------------------------=
   JOB DONE.
=------------------------------------------------------------------------------=
