
     Program PWSCF v.6.4.1 starts on  7Aug2022 at  5:39: 6 

     This program is part of the open-source Quantum ESPRESSO suite
     for quantum simulation of materials; please cite
         "P. Giannozzi et al., J. Phys.:Condens. Matter 21 395502 (2009);
         "P. Giannozzi et al., J. Phys.:Condens. Matter 29 465901 (2017);
          URL http://www.quantum-espresso.org", 
     in publications or presentations arising from this work. More details at
     http://www.quantum-espresso.org/quote

     Parallel version (MPI), running on     6 processors

     MPI processes distributed on     1 nodes
     R & G space division:  proc/nbgrp/npool/nimage =       6
     Reading input from mn-8.96.in

     Current dimensions of program PWSCF are:
     Max number of different atomic species (ntypx) = 10
     Max number of k-points (npk) =  40000
     Max angular momentum in pseudopotentials (lmaxx) =  3
               file Mn.pbe-spn-rrkjus_psl.0.3.1.UPF: wavefunction(s)  3D renormalized

     Subspace diagonalization in iterative solution of the eigenvalue problem:
     a serial algorithm will be used

     Message from routine setup:
     DEPRECATED: symmetry with ibrav=0, use correct ibrav instead

     Parallelization info
     --------------------
     sticks:   dense  smooth     PW     G-vecs:    dense   smooth      PW
     Min        1882     751    203               126565    31948    4475
     Max        1883     752    204               126567    31950    4476
     Sum       11295    4511   1219               759395   191697   26851



     bravais-lattice index     =            0
     lattice parameter (alat)  =      14.6635  a.u.
     unit-cell volume          =    2427.1166 (a.u.)^3
     number of atoms/cell      =           29
     number of atomic types    =            1
     number of electrons       =       435.00
     number of Kohn-Sham states=          262
     kinetic-energy cutoff     =      70.0000  Ry
     charge density cutoff     =     700.0000  Ry
     convergence threshold     =      1.0E-05
     mixing beta               =       0.7000
     number of iterations used =            8  plain     mixing
     Exchange-correlation      = PBE ( 1  4  3  4 0 0)

     celldm(1)=  14.663496  celldm(2)=   0.000000  celldm(3)=   0.000000
     celldm(4)=   0.000000  celldm(5)=   0.000000  celldm(6)=   0.000000

     crystal axes: (cart. coord. in units of alat)
               a(1) = (  -0.577350   0.577350   0.577350 )  
               a(2) = (   0.577350  -0.577350   0.577350 )  
               a(3) = (   0.577350   0.577350  -0.577350 )  

     reciprocal axes: (cart. coord. in units 2 pi/alat)
               b(1) = (  0.000000  0.866025  0.866025 )  
               b(2) = (  0.866025  0.000000  0.866025 )  
               b(3) = (  0.866025  0.866025  0.000000 )  


     PseudoPot. # 1 for Mn read from file:
     /home/cristian/Escritorio/Proyecto_Grafeno/pseudopotenciales/Mn.pbe-spn-rrkjus_psl.0.3.1.UPF
     MD5 check sum: e1cac159bdd2ba70c18e85765a5d4279
     Pseudo is Ultrasoft + core correction, Zval = 15.0
     Generated using "atomic" code by A. Dal Corso v.6.2.2
     Using radial grid of 1187 points,  6 beta functions with: 
                l(1) =   0
                l(2) =   0
                l(3) =   1
                l(4) =   1
                l(5) =   2
                l(6) =   2
     Q(r) pseudized with 0 coefficients 


     atomic species   valence    mass     pseudopotential
        Mn            15.00    54.93804     Mn( 1.00)

     Starting magnetic structure 
     atomic species   magnetization
        Mn           0.700

     24 Sym. Ops. (no inversion) found



   Cartesian axes

     site n.     atom                  positions (alat units)
         1           Mn  tau(   1) = (   0.0000000   0.0000000   0.0000000  )
         2           Mn  tau(   2) = (   0.3670447   0.3670447   0.3670447  )
         3           Mn  tau(   3) = (   0.2103056   0.2103056  -0.2103056  )
         4           Mn  tau(   4) = (   0.2103056  -0.2103056   0.2103056  )
         5           Mn  tau(   5) = (  -0.2103056   0.2103056   0.2103056  )
         6           Mn  tau(   6) = (   0.4739122   0.4739122  -0.2517940  )
         7           Mn  tau(   7) = (   0.1034381   0.1034381   0.3255563  )
         8           Mn  tau(   8) = (   0.1034381  -0.1034381   0.8291443  )
         9           Mn  tau(   9) = (  -0.1034381   0.1034381   0.8291443  )
        10           Mn  tau(  10) = (  -0.2517940   0.4739122   0.4739122  )
        11           Mn  tau(  11) = (   0.3255563   0.1034381   0.1034381  )
        12           Mn  tau(  12) = (   0.8291443   0.1034381  -0.1034381  )
        13           Mn  tau(  13) = (   0.8291443  -0.1034381   0.1034381  )
        14           Mn  tau(  14) = (   0.4739122  -0.2517940   0.4739122  )
        15           Mn  tau(  15) = (   0.1034381   0.3255563   0.1034381  )
        16           Mn  tau(  16) = (  -0.1034381   0.8291443   0.1034381  )
        17           Mn  tau(  17) = (   0.1034381   0.8291443  -0.1034381  )
        18           Mn  tau(  18) = (   0.1650529   0.1650529   0.6172683  )
        19           Mn  tau(  19) = (   0.4122974   0.4122974   0.0399180  )
        20           Mn  tau(  20) = (  -0.1650529   0.1650529   0.5374323  )
        21           Mn  tau(  21) = (   0.1650529  -0.1650529   0.5374323  )
        22           Mn  tau(  22) = (   0.6172683   0.1650529   0.1650529  )
        23           Mn  tau(  23) = (   0.0399180   0.4122974   0.4122974  )
        24           Mn  tau(  24) = (   0.5374323  -0.1650529   0.1650529  )
        25           Mn  tau(  25) = (   0.5374323   0.1650529  -0.1650529  )
        26           Mn  tau(  26) = (   0.1650529   0.6172683   0.1650529  )
        27           Mn  tau(  27) = (   0.4122974   0.0399180   0.4122974  )
        28           Mn  tau(  28) = (   0.1650529   0.5374323  -0.1650529  )
        29           Mn  tau(  29) = (  -0.1650529   0.5374323   0.1650529  )

     number of k points=    10  Methfessel-Paxton smearing, width (Ry)=  0.0300
                       cart. coord. in units 2pi/alat
        k(    1) = (   0.0000000   0.0000000   0.0000000), wk =   0.0080000
        k(    2) = (   0.1732051   0.1732051   0.0000000), wk =   0.0960000
        k(    3) = (   0.3464102   0.3464102   0.0000000), wk =   0.0960000
        k(    4) = (   0.3464102   0.1732051   0.1732051), wk =   0.1920000
        k(    5) = (   0.5196152   0.3464102   0.1732051), wk =   0.1920000
        k(    6) = (   0.3464102   0.3464102   0.3464102), wk =   0.0640000
        k(    7) = (   0.0000000   0.0000000   0.3464102), wk =   0.0480000
        k(    8) = (   0.0000000  -0.1732051   0.5196152), wk =   0.1920000
        k(    9) = (  -0.6928203  -0.1732051  -0.1732051), wk =   0.0640000
        k(   10) = (   0.0000000   0.0000000   0.6928203), wk =   0.0480000

     Dense  grid:   759395 G-vectors     FFT dimensions: ( 125, 125, 125)

     Smooth grid:   191697 G-vectors     FFT dimensions: (  80,  80,  80)

     Estimated max dynamical RAM per process >     915.35 MB

     Estimated total dynamical RAM >       5.36 GB
     Generating pointlists ...
     new r_m :   0.1207 (alat units)  1.7696 (a.u.) for type    1

     Check: negative core charge=   -0.000005

     Initial potential from superposition of free atoms

     starting charge  434.98555, renormalised to  435.00000
     Starting wfcs are  290 randomized atomic wfcs

     total cpu time spent up to now is      207.9 secs

     Self-consistent Calculation

     iteration #  1     ecut=    70.00 Ry     beta= 0.70
     Davidson diagonalization with overlap
     ethr =  1.00E-02,  avg # of iterations =  3.1

     total cpu time spent up to now is      863.0 secs

     total energy              =   -6195.50331278 Ry
     Harris-Foulkes estimate   =   -6169.45104248 Ry
     estimated scf accuracy    <      36.33665549 Ry

     total magnetization       =    89.00 Bohr mag/cell
     absolute magnetization    =    96.38 Bohr mag/cell

     iteration #  2     ecut=    70.00 Ry     beta= 0.70
     Davidson diagonalization with overlap
     ethr =  8.35E-03,  avg # of iterations =  3.8

     total cpu time spent up to now is     1412.1 secs

     total energy              =   -6181.40364139 Ry
     Harris-Foulkes estimate   =   -6199.76258809 Ry
     estimated scf accuracy    <      47.79811343 Ry

     total magnetization       =    87.19 Bohr mag/cell
     absolute magnetization    =    90.66 Bohr mag/cell

     iteration #  3     ecut=    70.00 Ry     beta= 0.70
     Davidson diagonalization with overlap
     ethr =  8.35E-03,  avg # of iterations =  6.0

     total cpu time spent up to now is     2191.1 secs

     total energy              =   -6198.64301301 Ry
     Harris-Foulkes estimate   =   -6222.18163071 Ry
     estimated scf accuracy    <     164.27301291 Ry

     total magnetization       =    63.21 Bohr mag/cell
     absolute magnetization    =    66.98 Bohr mag/cell

     iteration #  4     ecut=    70.00 Ry     beta= 0.70
     Davidson diagonalization with overlap
     ethr =  8.35E-03,  avg # of iterations =  4.0

     total cpu time spent up to now is     2795.8 secs

     total energy              =   -6197.54491134 Ry
     Harris-Foulkes estimate   =   -6204.77490073 Ry
     estimated scf accuracy    <      85.21134887 Ry

     total magnetization       =    43.63 Bohr mag/cell
     absolute magnetization    =    49.84 Bohr mag/cell

     iteration #  5     ecut=    70.00 Ry     beta= 0.70
     Davidson diagonalization with overlap
     ethr =  8.35E-03,  avg # of iterations =  2.1

     total cpu time spent up to now is     3305.3 secs

     total energy              =   -6198.89123810 Ry
     Harris-Foulkes estimate   =   -6203.35078430 Ry
     estimated scf accuracy    <      74.54445647 Ry

     total magnetization       =    38.18 Bohr mag/cell
     absolute magnetization    =    48.31 Bohr mag/cell

     iteration #  6     ecut=    70.00 Ry     beta= 0.70
     Davidson diagonalization with overlap
     ethr =  8.35E-03,  avg # of iterations =  1.2

     total cpu time spent up to now is     3793.5 secs

     total energy              =   -6199.09220744 Ry
     Harris-Foulkes estimate   =   -6200.21785185 Ry
     estimated scf accuracy    <      29.74496597 Ry

     total magnetization       =    45.27 Bohr mag/cell
     absolute magnetization    =    55.51 Bohr mag/cell

     iteration #  7     ecut=    70.00 Ry     beta= 0.70
     Davidson diagonalization with overlap
     ethr =  6.84E-03,  avg # of iterations =  2.5

     total cpu time spent up to now is     4300.0 secs

     total energy              =   -6196.78434843 Ry
     Harris-Foulkes estimate   =   -6199.74746480 Ry
     estimated scf accuracy    <      17.69481025 Ry

     total magnetization       =    43.75 Bohr mag/cell
     absolute magnetization    =    56.48 Bohr mag/cell

     iteration #  8     ecut=    70.00 Ry     beta= 0.70
     Davidson diagonalization with overlap
     ethr =  4.07E-03,  avg # of iterations =  4.0

     total cpu time spent up to now is     5107.9 secs

     total energy              =   -6202.35922846 Ry
     Harris-Foulkes estimate   =   -6205.13623457 Ry
     estimated scf accuracy    <      73.80603057 Ry

     total magnetization       =    40.91 Bohr mag/cell
     absolute magnetization    =    42.87 Bohr mag/cell

     iteration #  9     ecut=    70.00 Ry     beta= 0.70
     Davidson diagonalization with overlap
     ethr =  4.07E-03,  avg # of iterations =  2.0

     total cpu time spent up to now is     5607.1 secs

     total energy              =   -6200.46501785 Ry
     Harris-Foulkes estimate   =   -6202.69546959 Ry
     estimated scf accuracy    <      46.41478561 Ry

     total magnetization       =    34.34 Bohr mag/cell
     absolute magnetization    =    38.17 Bohr mag/cell

     iteration # 10     ecut=    70.00 Ry     beta= 0.70
     Davidson diagonalization with overlap
     ethr =  4.07E-03,  avg # of iterations =  1.1

     total cpu time spent up to now is     6094.0 secs

     total energy              =   -6201.55419699 Ry
     Harris-Foulkes estimate   =   -6201.01462513 Ry
     estimated scf accuracy    <       9.90152797 Ry

     total magnetization       =    30.19 Bohr mag/cell
     absolute magnetization    =    40.72 Bohr mag/cell

     iteration # 11     ecut=    70.00 Ry     beta= 0.70
     Davidson diagonalization with overlap
     ethr =  2.28E-03,  avg # of iterations =  1.0

     total cpu time spent up to now is     6580.2 secs

     total energy              =   -6201.40157084 Ry
     Harris-Foulkes estimate   =   -6201.85615652 Ry
     estimated scf accuracy    <      31.06385414 Ry

     total magnetization       =    30.89 Bohr mag/cell
     absolute magnetization    =    37.42 Bohr mag/cell

     iteration # 12     ecut=    70.00 Ry     beta= 0.70
     Davidson diagonalization with overlap
     ethr =  2.28E-03,  avg # of iterations =  1.0

     total cpu time spent up to now is     7065.8 secs

     total energy              =   -6199.58207574 Ry
     Harris-Foulkes estimate   =   -6201.46886193 Ry
     estimated scf accuracy    <      23.86762117 Ry

     total magnetization       =    30.29 Bohr mag/cell
     absolute magnetization    =    37.66 Bohr mag/cell

     iteration # 13     ecut=    70.00 Ry     beta= 0.70
     Davidson diagonalization with overlap
     ethr =  2.28E-03,  avg # of iterations =  4.6

     total cpu time spent up to now is     7599.7 secs

     total energy              =   -6201.78520985 Ry
     Harris-Foulkes estimate   =   -6201.78829395 Ry
     estimated scf accuracy    <      14.97956239 Ry

     total magnetization       =    20.97 Bohr mag/cell
     absolute magnetization    =    39.04 Bohr mag/cell

     iteration # 14     ecut=    70.00 Ry     beta= 0.70
     Davidson diagonalization with overlap
     ethr =  2.28E-03,  avg # of iterations =  1.2

     total cpu time spent up to now is     8087.8 secs

     total energy              =   -6201.79952142 Ry
     Harris-Foulkes estimate   =   -6201.84447993 Ry
     estimated scf accuracy    <      16.00474360 Ry

     total magnetization       =    17.36 Bohr mag/cell
     absolute magnetization    =    37.44 Bohr mag/cell

     iteration # 15     ecut=    70.00 Ry     beta= 0.70
     Davidson diagonalization with overlap
     ethr =  2.28E-03,  avg # of iterations =  1.0

     total cpu time spent up to now is     8574.1 secs

     total energy              =   -6201.70914813 Ry
     Harris-Foulkes estimate   =   -6201.84897383 Ry
     estimated scf accuracy    <      14.88698305 Ry

     total magnetization       =    12.33 Bohr mag/cell
     absolute magnetization    =    33.89 Bohr mag/cell

     iteration # 16     ecut=    70.00 Ry     beta= 0.70
     Davidson diagonalization with overlap
     ethr =  2.28E-03,  avg # of iterations =  1.0

     total cpu time spent up to now is     9060.4 secs

     total energy              =   -6201.36119829 Ry
     Harris-Foulkes estimate   =   -6201.74204238 Ry
     estimated scf accuracy    <      14.44739103 Ry

     total magnetization       =    10.74 Bohr mag/cell
     absolute magnetization    =    32.95 Bohr mag/cell

     iteration # 17     ecut=    70.00 Ry     beta= 0.70
     Davidson diagonalization with overlap
     ethr =  2.28E-03,  avg # of iterations =  1.0

     total cpu time spent up to now is     9545.6 secs

     total energy              =   -6200.91465337 Ry
     Harris-Foulkes estimate   =   -6201.41455955 Ry
     estimated scf accuracy    <       9.82299989 Ry

     total magnetization       =     6.66 Bohr mag/cell
     absolute magnetization    =    32.14 Bohr mag/cell

     iteration # 18     ecut=    70.00 Ry     beta= 0.70
     Davidson diagonalization with overlap
     ethr =  2.26E-03,  avg # of iterations =  1.4

     total cpu time spent up to now is    10035.2 secs

     total energy              =   -6201.08180699 Ry
     Harris-Foulkes estimate   =   -6201.10039678 Ry
     estimated scf accuracy    <       0.68678458 Ry

     total magnetization       =     2.69 Bohr mag/cell
     absolute magnetization    =    33.61 Bohr mag/cell

     iteration # 19     ecut=    70.00 Ry     beta= 0.70
     Davidson diagonalization with overlap
     ethr =  1.58E-04,  avg # of iterations =  5.8

     total cpu time spent up to now is    10775.2 secs

     total energy              =   -6201.18238855 Ry
     Harris-Foulkes estimate   =   -6201.28983853 Ry
     estimated scf accuracy    <       3.17639538 Ry

     total magnetization       =     2.04 Bohr mag/cell
     absolute magnetization    =    33.18 Bohr mag/cell

     iteration # 20     ecut=    70.00 Ry     beta= 0.70
     Davidson diagonalization with overlap
     ethr =  1.58E-04,  avg # of iterations =  1.0

     total cpu time spent up to now is    11264.9 secs

     total energy              =   -6201.24097210 Ry
     Harris-Foulkes estimate   =   -6201.21166361 Ry
     estimated scf accuracy    <       0.53759397 Ry

     total magnetization       =     3.30 Bohr mag/cell
     absolute magnetization    =    33.05 Bohr mag/cell

     iteration # 21     ecut=    70.00 Ry     beta= 0.70
     Davidson diagonalization with overlap
     ethr =  1.24E-04,  avg # of iterations =  1.0

     total cpu time spent up to now is    11751.3 secs

     total energy              =   -6201.19568519 Ry
     Harris-Foulkes estimate   =   -6201.25582986 Ry
     estimated scf accuracy    <       2.09891335 Ry

     total magnetization       =     2.55 Bohr mag/cell
     absolute magnetization    =    32.79 Bohr mag/cell

     iteration # 22     ecut=    70.00 Ry     beta= 0.70
     Davidson diagonalization with overlap
     ethr =  1.24E-04,  avg # of iterations =  1.1

     total cpu time spent up to now is    12238.8 secs

     total energy              =   -6201.23877489 Ry
     Harris-Foulkes estimate   =   -6201.22634610 Ry
     estimated scf accuracy    <       0.39863412 Ry

     total magnetization       =     1.57 Bohr mag/cell
     absolute magnetization    =    34.62 Bohr mag/cell

     iteration # 23     ecut=    70.00 Ry     beta= 0.70
     Davidson diagonalization with overlap
     ethr =  9.16E-05,  avg # of iterations =  1.9

     total cpu time spent up to now is    12735.0 secs

     total energy              =   -6201.27664852 Ry
     Harris-Foulkes estimate   =   -6201.32102232 Ry
     estimated scf accuracy    <       2.54218412 Ry

     total magnetization       =    -4.91 Bohr mag/cell
     absolute magnetization    =    37.31 Bohr mag/cell

     iteration # 24     ecut=    70.00 Ry     beta= 0.70
     Davidson diagonalization with overlap
     ethr =  9.16E-05,  avg # of iterations =  1.0

     total cpu time spent up to now is    13222.4 secs

     total energy              =   -6201.21203806 Ry
     Harris-Foulkes estimate   =   -6201.28673997 Ry
     estimated scf accuracy    <       1.28152226 Ry

     total magnetization       =    -5.26 Bohr mag/cell
     absolute magnetization    =    38.09 Bohr mag/cell

     iteration # 25     ecut=    70.00 Ry     beta= 0.70
     Davidson diagonalization with overlap
     ethr =  9.16E-05,  avg # of iterations =  2.4

     total cpu time spent up to now is    13728.3 secs

     total energy              =   -6201.26300028 Ry
     Harris-Foulkes estimate   =   -6201.27012804 Ry
     estimated scf accuracy    <       0.33503841 Ry

     total magnetization       =    -5.36 Bohr mag/cell
     absolute magnetization    =    39.47 Bohr mag/cell

     iteration # 26     ecut=    70.00 Ry     beta= 0.70
     Davidson diagonalization with overlap
     ethr =  7.70E-05,  avg # of iterations =  1.4

     total cpu time spent up to now is    14218.8 secs

     total energy              =   -6201.26774536 Ry
     Harris-Foulkes estimate   =   -6201.26752074 Ry
     estimated scf accuracy    <       0.04578955 Ry

     total magnetization       =    -5.72 Bohr mag/cell
     absolute magnetization    =    40.01 Bohr mag/cell

     iteration # 27     ecut=    70.00 Ry     beta= 0.70
     Davidson diagonalization with overlap
     ethr =  1.05E-05,  avg # of iterations =  9.8

     total cpu time spent up to now is    14881.1 secs

     total energy              =   -6201.26683846 Ry
     Harris-Foulkes estimate   =   -6201.27142754 Ry
     estimated scf accuracy    <       0.02377815 Ry

     total magnetization       =    -5.99 Bohr mag/cell
     absolute magnetization    =    41.11 Bohr mag/cell

     iteration # 28     ecut=    70.00 Ry     beta= 0.70
     Davidson diagonalization with overlap
     ethr =  5.47E-06,  avg # of iterations =  5.2

     total cpu time spent up to now is    15432.5 secs

     total energy              =   -6201.27223353 Ry
     Harris-Foulkes estimate   =   -6201.27116907 Ry
     estimated scf accuracy    <       0.06215479 Ry

     total magnetization       =    -5.88 Bohr mag/cell
     absolute magnetization    =    40.24 Bohr mag/cell

     iteration # 29     ecut=    70.00 Ry     beta= 0.70
     Davidson diagonalization with overlap
     ethr =  5.47E-06,  avg # of iterations =  1.0

     total cpu time spent up to now is    15920.1 secs

     total energy              =   -6201.26609680 Ry
     Harris-Foulkes estimate   =   -6201.27311105 Ry
     estimated scf accuracy    <       0.06567477 Ry

     total magnetization       =    -6.26 Bohr mag/cell
     absolute magnetization    =    40.80 Bohr mag/cell

     iteration # 30     ecut=    70.00 Ry     beta= 0.70
     Davidson diagonalization with overlap
     ethr =  5.47E-06,  avg # of iterations =  1.0

     total cpu time spent up to now is    16408.9 secs

     total energy              =   -6201.26866198 Ry
     Harris-Foulkes estimate   =   -6201.26809444 Ry
     estimated scf accuracy    <       0.02841426 Ry

     total magnetization       =    -5.49 Bohr mag/cell
     absolute magnetization    =    39.58 Bohr mag/cell

     iteration # 31     ecut=    70.00 Ry     beta= 0.70
     Davidson diagonalization with overlap
     ethr =  5.47E-06,  avg # of iterations =  1.0

     total cpu time spent up to now is    16896.2 secs

     total energy              =   -6201.27058886 Ry
     Harris-Foulkes estimate   =   -6201.26928865 Ry
     estimated scf accuracy    <       0.02622884 Ry

     total magnetization       =    -5.13 Bohr mag/cell
     absolute magnetization    =    40.16 Bohr mag/cell

     iteration # 32     ecut=    70.00 Ry     beta= 0.70
     Davidson diagonalization with overlap
     ethr =  5.47E-06,  avg # of iterations =  1.0

     total cpu time spent up to now is    17382.6 secs

     total energy              =   -6201.26994788 Ry
     Harris-Foulkes estimate   =   -6201.27102417 Ry
     estimated scf accuracy    <       0.03249092 Ry

     total magnetization       =    -5.61 Bohr mag/cell
     absolute magnetization    =    40.60 Bohr mag/cell

     iteration # 33     ecut=    70.00 Ry     beta= 0.70
     Davidson diagonalization with overlap
     ethr =  5.47E-06,  avg # of iterations =  1.0

     total cpu time spent up to now is    17868.3 secs

     total energy              =   -6201.26588339 Ry
     Harris-Foulkes estimate   =   -6201.27023302 Ry
     estimated scf accuracy    <       0.01415446 Ry

     total magnetization       =    -5.76 Bohr mag/cell
     absolute magnetization    =    40.32 Bohr mag/cell

     iteration # 34     ecut=    70.00 Ry     beta= 0.70
     Davidson diagonalization with overlap
     ethr =  3.25E-06,  avg # of iterations =  3.3

     total cpu time spent up to now is    18388.4 secs

     total energy              =   -6201.26537364 Ry
     Harris-Foulkes estimate   =   -6201.26787390 Ry
     estimated scf accuracy    <       0.02417724 Ry

     total magnetization       =    -5.94 Bohr mag/cell
     absolute magnetization    =    38.99 Bohr mag/cell

     iteration # 35     ecut=    70.00 Ry     beta= 0.70
     Davidson diagonalization with overlap
     ethr =  3.25E-06,  avg # of iterations =  2.8

     total cpu time spent up to now is    18898.3 secs

     total energy              =   -6201.26712541 Ry
     Harris-Foulkes estimate   =   -6201.26624537 Ry
     estimated scf accuracy    <       0.01532312 Ry

     total magnetization       =    -6.00 Bohr mag/cell
     absolute magnetization    =    38.24 Bohr mag/cell

     iteration # 36     ecut=    70.00 Ry     beta= 0.70
     Davidson diagonalization with overlap
     ethr =  3.25E-06,  avg # of iterations =  4.0

     total cpu time spent up to now is    19521.2 secs

     total energy              =   -6201.27340462 Ry
     Harris-Foulkes estimate   =   -6201.27625046 Ry
     estimated scf accuracy    <       0.02506018 Ry

     total magnetization       =    -6.32 Bohr mag/cell
     absolute magnetization    =    41.57 Bohr mag/cell

     iteration # 37     ecut=    70.00 Ry     beta= 0.70
     Davidson diagonalization with overlap
     ethr =  3.25E-06,  avg # of iterations =  2.8

     total cpu time spent up to now is    20028.7 secs

     total energy              =   -6201.27076911 Ry
     Harris-Foulkes estimate   =   -6201.27482705 Ry
     estimated scf accuracy    <       0.02035784 Ry

     total magnetization       =    -5.72 Bohr mag/cell
     absolute magnetization    =    40.98 Bohr mag/cell

     iteration # 38     ecut=    70.00 Ry     beta= 0.70
     Davidson diagonalization with overlap
     ethr =  3.25E-06,  avg # of iterations =  1.3

     total cpu time spent up to now is    20517.6 secs

     total energy              =   -6201.26977384 Ry
     Harris-Foulkes estimate   =   -6201.27244715 Ry
     estimated scf accuracy    <       0.01730757 Ry

     total magnetization       =    -6.57 Bohr mag/cell
     absolute magnetization    =    40.44 Bohr mag/cell

     iteration # 39     ecut=    70.00 Ry     beta= 0.70
     Davidson diagonalization with overlap
     ethr =  3.25E-06,  avg # of iterations =  1.6

     total cpu time spent up to now is    21011.1 secs

     total energy              =   -6201.27265422 Ry
     Harris-Foulkes estimate   =   -6201.27045888 Ry
     estimated scf accuracy    <       0.01525171 Ry

     total magnetization       =    -6.50 Bohr mag/cell
     absolute magnetization    =    39.60 Bohr mag/cell

     iteration # 40     ecut=    70.00 Ry     beta= 0.70
     Davidson diagonalization with overlap
     ethr =  3.25E-06,  avg # of iterations =  1.9

     total cpu time spent up to now is    21507.8 secs

     total energy              =   -6201.27768105 Ry
     Harris-Foulkes estimate   =   -6201.27640754 Ry
     estimated scf accuracy    <       0.01516834 Ry

     total magnetization       =    -6.33 Bohr mag/cell
     absolute magnetization    =    41.67 Bohr mag/cell

     iteration # 41     ecut=    70.00 Ry     beta= 0.70
     Davidson diagonalization with overlap
     ethr =  3.25E-06,  avg # of iterations =  1.0

     total cpu time spent up to now is    21995.9 secs

     total energy              =   -6201.26465310 Ry
     Harris-Foulkes estimate   =   -6201.27803327 Ry
     estimated scf accuracy    <       0.01778021 Ry

     total magnetization       =    -6.21 Bohr mag/cell
     absolute magnetization    =    41.72 Bohr mag/cell

     iteration # 42     ecut=    70.00 Ry     beta= 0.70
     Davidson diagonalization with overlap
     ethr =  3.25E-06,  avg # of iterations =  4.0

     total cpu time spent up to now is    22566.2 secs

     total energy              =   -6201.24172103 Ry
     Harris-Foulkes estimate   =   -6201.27140714 Ry
     estimated scf accuracy    <       0.01836047 Ry

     total magnetization       =    -6.50 Bohr mag/cell
     absolute magnetization    =    41.40 Bohr mag/cell

     iteration # 43     ecut=    70.00 Ry     beta= 0.70
     Davidson diagonalization with overlap
     ethr =  3.25E-06,  avg # of iterations =  5.7

     total cpu time spent up to now is    23382.7 secs

     total energy              =   -6201.26128139 Ry
     Harris-Foulkes estimate   =   -6201.26194968 Ry
     estimated scf accuracy    <       0.01457073 Ry

     total magnetization       =    -6.36 Bohr mag/cell
     absolute magnetization    =    37.41 Bohr mag/cell

     iteration # 44     ecut=    70.00 Ry     beta= 0.70
     Davidson diagonalization with overlap
     ethr =  3.25E-06,  avg # of iterations =  2.5

     total cpu time spent up to now is    23910.7 secs

     total energy              =   -6201.26383180 Ry
     Harris-Foulkes estimate   =   -6201.26495061 Ry
     estimated scf accuracy    <       0.02904482 Ry

     total magnetization       =    -5.86 Bohr mag/cell
     absolute magnetization    =    38.56 Bohr mag/cell

     iteration # 45     ecut=    70.00 Ry     beta= 0.70
     Davidson diagonalization with overlap
     ethr =  3.25E-06,  avg # of iterations =  3.1

     total cpu time spent up to now is    24451.7 secs

     total energy              =   -6201.26357276 Ry
     Harris-Foulkes estimate   =   -6201.26657827 Ry
     estimated scf accuracy    <       0.01112299 Ry

     total magnetization       =    -5.75 Bohr mag/cell
     absolute magnetization    =    39.83 Bohr mag/cell

     iteration # 46     ecut=    70.00 Ry     beta= 0.70
     Davidson diagonalization with overlap
     ethr =  2.56E-06,  avg # of iterations =  6.0

     total cpu time spent up to now is    25153.9 secs

     total energy              =   -6201.26751533 Ry
     Harris-Foulkes estimate   =   -6201.26910159 Ry
     estimated scf accuracy    <       0.00145037 Ry

     total magnetization       =    -5.27 Bohr mag/cell
     absolute magnetization    =    42.17 Bohr mag/cell

     iteration # 47     ecut=    70.00 Ry     beta= 0.70
     Davidson diagonalization with overlap
     ethr =  3.33E-07,  avg # of iterations =  3.9

     total cpu time spent up to now is    25791.6 secs

     total energy              =   -6201.26765387 Ry
     Harris-Foulkes estimate   =   -6201.26849701 Ry
     estimated scf accuracy    <       0.01365606 Ry

     total magnetization       =    -5.45 Bohr mag/cell
     absolute magnetization    =    41.47 Bohr mag/cell

     iteration # 48     ecut=    70.00 Ry     beta= 0.70
     Davidson diagonalization with overlap
     ethr =  3.33E-07,  avg # of iterations =  3.4

     total cpu time spent up to now is    26323.3 secs

     total energy              =   -6201.26821394 Ry
     Harris-Foulkes estimate   =   -6201.26804220 Ry
     estimated scf accuracy    <       0.00133071 Ry

     total magnetization       =    -5.35 Bohr mag/cell
     absolute magnetization    =    41.38 Bohr mag/cell

     iteration # 49     ecut=    70.00 Ry     beta= 0.70
     Davidson diagonalization with overlap
     ethr =  3.06E-07,  avg # of iterations =  3.8

     total cpu time spent up to now is    26994.8 secs

     total energy              =   -6201.26719333 Ry
     Harris-Foulkes estimate   =   -6201.26909336 Ry
     estimated scf accuracy    <       0.00234568 Ry

     total magnetization       =    -4.99 Bohr mag/cell
     absolute magnetization    =    42.16 Bohr mag/cell

     iteration # 50     ecut=    70.00 Ry     beta= 0.70
     Davidson diagonalization with overlap
     ethr =  3.06E-07,  avg # of iterations =  5.3

     total cpu time spent up to now is    27947.9 secs

     total energy              =   -6201.26104551 Ry
     Harris-Foulkes estimate   =   -6201.27104335 Ry
     estimated scf accuracy    <       0.00094751 Ry

     total magnetization       =    -4.42 Bohr mag/cell
     absolute magnetization    =    44.20 Bohr mag/cell

     iteration # 51     ecut=    70.00 Ry     beta= 0.70
     Davidson diagonalization with overlap
     ethr =  2.18E-07,  avg # of iterations =  5.2

     total cpu time spent up to now is    29157.6 secs

     total energy              =   -6201.27292680 Ry
     Harris-Foulkes estimate   =   -6201.27292839 Ry
     estimated scf accuracy    <       0.00018874 Ry

     total magnetization       =    -3.49 Bohr mag/cell
     absolute magnetization    =    47.83 Bohr mag/cell

     iteration # 52     ecut=    70.00 Ry     beta= 0.70
     Davidson diagonalization with overlap
     ethr =  4.34E-08,  avg # of iterations =  3.6

     total cpu time spent up to now is    29790.9 secs

     total energy              =   -6201.27283327 Ry
     Harris-Foulkes estimate   =   -6201.27297954 Ry
     estimated scf accuracy    <       0.00010048 Ry

     total magnetization       =    -3.49 Bohr mag/cell
     absolute magnetization    =    47.74 Bohr mag/cell

     iteration # 53     ecut=    70.00 Ry     beta= 0.70
     Davidson diagonalization with overlap
     ethr =  2.31E-08,  avg # of iterations =  4.5

     total cpu time spent up to now is    30611.2 secs

     total energy              =   -6201.27301916 Ry
     Harris-Foulkes estimate   =   -6201.27304882 Ry
     estimated scf accuracy    <       0.00006356 Ry

     total magnetization       =    -3.35 Bohr mag/cell
     absolute magnetization    =    48.22 Bohr mag/cell

     iteration # 54     ecut=    70.00 Ry     beta= 0.70
     Davidson diagonalization with overlap
     ethr =  1.46E-08,  avg # of iterations =  4.1

     total cpu time spent up to now is    31320.1 secs

     total energy              =   -6201.27306624 Ry
     Harris-Foulkes estimate   =   -6201.27306797 Ry
     estimated scf accuracy    <       0.00004178 Ry

     total magnetization       =    -3.35 Bohr mag/cell
     absolute magnetization    =    48.42 Bohr mag/cell

     iteration # 55     ecut=    70.00 Ry     beta= 0.70
     Davidson diagonalization with overlap
     ethr =  9.60E-09,  avg # of iterations =  1.6

     total cpu time spent up to now is    31814.5 secs

     total energy              =   -6201.27305343 Ry
     Harris-Foulkes estimate   =   -6201.27307142 Ry
     estimated scf accuracy    <       0.00004525 Ry

     total magnetization       =    -3.37 Bohr mag/cell
     absolute magnetization    =    48.40 Bohr mag/cell

     iteration # 56     ecut=    70.00 Ry     beta= 0.70
     Davidson diagonalization with overlap
     ethr =  9.60E-09,  avg # of iterations =  4.0

     Magnetic moment per site:
     atom:    1    charge:   12.6781    magn:    0.2018    constr:    0.0000
     atom:    2    charge:   12.7019    magn:   -3.0301    constr:    0.0000
     atom:    3    charge:   12.7019    magn:   -3.0301    constr:    0.0000
     atom:    4    charge:   12.7019    magn:   -3.0301    constr:    0.0000
     atom:    5    charge:   12.7019    magn:   -3.0301    constr:    0.0000
     atom:    6    charge:   12.8398    magn:   -0.9555    constr:    0.0000
     atom:    7    charge:   12.8398    magn:   -0.9555    constr:    0.0000
     atom:    8    charge:   12.8398    magn:   -0.9555    constr:    0.0000
     atom:    9    charge:   12.8398    magn:   -0.9555    constr:    0.0000
     atom:   10    charge:   12.8398    magn:   -0.9555    constr:    0.0000
     atom:   11    charge:   12.8398    magn:   -0.9555    constr:    0.0000
     atom:   12    charge:   12.8398    magn:   -0.9555    constr:    0.0000
     atom:   13    charge:   12.8398    magn:   -0.9555    constr:    0.0000
     atom:   14    charge:   12.8398    magn:   -0.9555    constr:    0.0000
     atom:   15    charge:   12.8398    magn:   -0.9555    constr:    0.0000
     atom:   16    charge:   12.8398    magn:   -0.9555    constr:    0.0000
     atom:   17    charge:   12.8398    magn:   -0.9555    constr:    0.0000
     atom:   18    charge:   12.7765    magn:    1.7038    constr:    0.0000
     atom:   19    charge:   12.7765    magn:    1.7038    constr:    0.0000
     atom:   20    charge:   12.7765    magn:    1.7038    constr:    0.0000
     atom:   21    charge:   12.7765    magn:    1.7038    constr:    0.0000
     atom:   22    charge:   12.7765    magn:    1.7038    constr:    0.0000
     atom:   23    charge:   12.7765    magn:    1.7038    constr:    0.0000
     atom:   24    charge:   12.7765    magn:    1.7038    constr:    0.0000
     atom:   25    charge:   12.7765    magn:    1.7038    constr:    0.0000
     atom:   26    charge:   12.7765    magn:    1.7038    constr:    0.0000
     atom:   27    charge:   12.7765    magn:    1.7038    constr:    0.0000
     atom:   28    charge:   12.7765    magn:    1.7038    constr:    0.0000
     atom:   29    charge:   12.7765    magn:    1.7038    constr:    0.0000

     total cpu time spent up to now is    32459.3 secs

     End of self-consistent calculation

 ------ SPIN UP ------------


          k = 0.0000 0.0000 0.0000 ( 24103 PWs)   bands (ev):

   -63.1064 -63.0839 -63.0839 -63.0839 -63.0759 -63.0759 -63.0641 -63.0641
   -63.0641 -63.0622 -63.0622 -63.0622 -62.2374 -61.5148 -61.4928 -61.4928
   -61.4928 -61.4691 -61.4691 -61.4227 -61.4227 -61.4227 -61.3987 -61.3987
   -61.3987 -60.1798 -60.1798 -60.1798 -60.1796 -31.9303 -31.9303 -31.9303
   -31.9233 -31.9233 -31.9233 -31.9216 -31.9216 -31.8936 -31.8936 -31.8936
   -31.8581 -31.8581 -31.8556 -31.8291 -31.8220 -31.8220 -31.8220 -31.8219
   -31.8219 -31.7978 -31.7978 -31.7978 -31.7364 -31.7364 -31.7364 -31.7217
   -31.7217 -31.7217 -31.6469 -31.6469 -31.6469 -31.6352 -31.6227 -31.6227
   -31.6227 -30.9594 -30.9594 -30.9594 -30.6118 -30.5399 -30.5399 -30.5399
   -30.4778 -30.4778 -30.2876 -30.2841 -30.2841 -30.2841 -30.2596 -30.2596
   -30.2596 -30.2398 -30.2398 -30.2398 -30.2224 -30.2224 -30.1022 -30.1022
   -30.1022 -30.0738 -30.0725 -30.0725 -30.0725 -30.0667 -30.0667 -30.0617
   -30.0617 -30.0617 -30.0594 -30.0594 -30.0594 -30.0030 -30.0030 -30.0030
   -28.9934 -28.9934 -28.9934 -28.9923 -28.9923 -28.9917 -28.9917 -28.9917
   -28.9357 -28.9357 -28.9357 -28.9350   9.2152  12.3789  12.3789  12.3789
    12.5586  12.5676  12.5676  12.5676  12.6131  12.6131  12.6131  12.6718
    12.6718  13.3357  13.4073  13.4073  13.4073  13.4775  13.4775  13.6727
    13.6727  13.6727  13.8826  13.9057  13.9057  13.9057  14.0324  14.2373
    14.2373  14.2385  14.2385  14.2385  14.5000  14.5000  14.5000  14.5942
    14.5942  14.5942  14.5967  14.5967  14.5967  14.7163  14.7163  14.8024
    14.9685  14.9685  14.9685  15.0781  15.0781  15.0781  15.0949  15.0949
    15.0949  15.1077  15.2402  15.2402  15.2402  15.2933  15.2933  15.2933
    15.3463  15.3463  15.5147  15.5147  15.5371  15.5806  15.5806  15.5806
    15.6052  15.6052  15.6052  15.7144  15.7922  15.7922  15.7922  15.8487
    15.8487  15.9322  15.9322  15.9322  16.2255  16.2255  16.3475  16.3475
    16.3475  16.4202  16.4202  16.4202  16.6219  16.6219  16.6219  16.7329
    16.9043  16.9043  16.9966  16.9966  16.9966  17.1604  17.1604  17.2825
    17.2825  17.2825  17.3032  17.3032  17.3032  17.3092  17.3092  17.3092
    17.4638  17.4638  17.4638  17.5161  17.5161  17.5524  17.5524  17.5524
    17.7520  17.7520  17.8092  17.8092  17.8092  18.2211  18.2211  18.2211
    18.2346  18.2346  18.2346  18.2692  18.2692  18.4088  18.4088  18.4088
    18.5191  18.5229  18.5229  18.5229  18.5779  18.7798  18.7798  18.7798
    18.7968  18.7968  18.7968  18.9543  19.0284  19.0284

          k = 0.1732 0.1732 0.0000 ( 24020 PWs)   bands (ev):

   -63.1050 -63.0878 -63.0843 -63.0839 -63.0752 -63.0732 -63.0643 -63.0642
   -63.0640 -63.0623 -63.0622 -63.0622 -62.2374 -61.5152 -61.4928 -61.4928
   -61.4925 -61.4691 -61.4690 -61.4227 -61.4227 -61.4226 -61.3989 -61.3988
   -61.3988 -60.1798 -60.1798 -60.1798 -60.1796 -31.9330 -31.9322 -31.9310
   -31.9278 -31.9248 -31.9241 -31.9213 -31.9170 -31.8957 -31.8948 -31.8867
   -31.8575 -31.8568 -31.8567 -31.8412 -31.8325 -31.8311 -31.8165 -31.8100
   -31.8067 -31.7988 -31.7966 -31.7954 -31.7397 -31.7353 -31.7235 -31.7226
   -31.7222 -31.7208 -31.6493 -31.6479 -31.6458 -31.6340 -31.6310 -31.6236
   -31.6236 -30.9595 -30.9594 -30.9594 -30.6134 -30.5396 -30.5394 -30.5379
   -30.4787 -30.4778 -30.2899 -30.2852 -30.2840 -30.2812 -30.2602 -30.2592
   -30.2590 -30.2401 -30.2399 -30.2397 -30.2216 -30.2213 -30.1029 -30.1025
   -30.1020 -30.0754 -30.0751 -30.0730 -30.0729 -30.0684 -30.0681 -30.0612
   -30.0610 -30.0598 -30.0589 -30.0580 -30.0574 -30.0028 -30.0028 -30.0027
   -28.9935 -28.9935 -28.9935 -28.9927 -28.9926 -28.9916 -28.9915 -28.9913
   -28.9361 -28.9357 -28.9356 -28.9349   9.3845  11.6037  12.1026  12.1730
    12.1815  12.2392  12.5791  12.6823  12.8789  12.9034  12.9871  13.0121
    13.1046  13.3037  13.3451  13.3513  13.4368  13.4851  13.5149  13.6006
    13.6437  13.7227  13.8326  13.8530  13.8964  13.9243  14.1512  14.1968
    14.2605  14.2807  14.3156  14.4619  14.4863  14.4890  14.5218  14.5501
    14.5740  14.5743  14.6230  14.6629  14.6645  14.7658  14.7695  14.8346
    14.9268  14.9339  14.9538  14.9595  15.0394  15.0618  15.0729  15.0951
    15.1249  15.1269  15.1374  15.2089  15.2358  15.2429  15.3227  15.3459
    15.3476  15.3920  15.4118  15.4346  15.4757  15.5321  15.6012  15.6426
    15.6575  15.6727  15.7090  15.7252  15.7672  15.7985  15.8693  15.8705
    15.9143  15.9527  16.0019  16.0389  16.1729  16.1987  16.2413  16.2518
    16.2974  16.4032  16.4146  16.4238  16.5734  16.5840  16.6458  16.7019
    16.7846  16.7947  16.9534  16.9925  17.0344  17.0551  17.1290  17.2352
    17.2396  17.2589  17.2895  17.3336  17.3430  17.3818  17.3984  17.4119
    17.4463  17.4660  17.5000  17.5370  17.5547  17.5567  17.5902  17.6295
    17.7926  17.8193  17.8376  17.8914  17.9354  18.1009  18.1293  18.1633
    18.1849  18.2467  18.2969  18.3361  18.3423  18.3959  18.4069  18.5113
    18.5156  18.5334  18.5506  18.5666  18.6088  18.6754  18.7121  18.7329
    18.7825  18.8181  18.8383  18.9574  18.9983  19.0007

          k = 0.3464 0.3464 0.0000 ( 24012 PWs)   bands (ev):

   -63.1014 -63.0938 -63.0849 -63.0840 -63.0741 -63.0705 -63.0648 -63.0646
   -63.0640 -63.0623 -63.0622 -63.0622 -62.2374 -61.5158 -61.4928 -61.4928
   -61.4919 -61.4692 -61.4689 -61.4227 -61.4226 -61.4223 -61.3991 -61.3990
   -61.3988 -60.1798 -60.1798 -60.1798 -60.1796 -31.9357 -31.9355 -31.9330
   -31.9323 -31.9258 -31.9241 -31.9218 -31.9126 -31.8989 -31.8964 -31.8736
   -31.8625 -31.8570 -31.8545 -31.8497 -31.8403 -31.8362 -31.8082 -31.8021
   -31.8012 -31.8002 -31.7939 -31.7889 -31.7458 -31.7334 -31.7243 -31.7233
   -31.7212 -31.6926 -31.6535 -31.6529 -31.6500 -31.6438 -31.6308 -31.6263
   -31.6255 -30.9596 -30.9595 -30.9594 -30.6160 -30.5390 -30.5384 -30.5349
   -30.4801 -30.4778 -30.2924 -30.2869 -30.2840 -30.2782 -30.2611 -30.2582
   -30.2581 -30.2405 -30.2399 -30.2396 -30.2203 -30.2196 -30.1041 -30.1029
   -30.1018 -30.0791 -30.0790 -30.0735 -30.0717 -30.0694 -30.0689 -30.0633
   -30.0609 -30.0579 -30.0577 -30.0559 -30.0542 -30.0026 -30.0024 -30.0022
   -28.9938 -28.9937 -28.9936 -28.9929 -28.9929 -28.9914 -28.9911 -28.9909
   -28.9365 -28.9356 -28.9353 -28.9348   9.8776  10.6543  11.8921  11.9676
    11.9742  12.0353  12.8207  12.8664  13.0418  13.0811  13.0965  13.1542
    13.2294  13.2628  13.3365  13.4109  13.4700  13.5095  13.5422  13.5593
    13.5995  13.7057  13.7938  13.9089  13.9502  13.9582  14.0968  14.2028
    14.2283  14.3224  14.4117  14.4394  14.4628  14.5121  14.5452  14.6061
    14.6198  14.6311  14.6918  14.7328  14.7446  14.7841  14.8218  14.8381
    14.8848  14.9001  14.9130  14.9335  14.9833  14.9876  15.0781  15.1066
    15.1359  15.1630  15.1765  15.1970  15.2244  15.2891  15.3024  15.3460
    15.3969  15.4042  15.4587  15.4742  15.5087  15.5366  15.5593  15.5920
    15.6543  15.6975  15.7133  15.7296  15.7932  15.8689  15.8720  15.8947
    15.9456  15.9683  16.0088  16.0602  16.1313  16.2178  16.2257  16.2769
    16.3605  16.3766  16.3966  16.4040  16.4185  16.4975  16.4982  16.6076
    16.6182  16.7564  16.8383  16.9589  17.0244  17.0674  17.1181  17.1459
    17.1574  17.2101  17.2317  17.2911  17.3481  17.3917  17.4369  17.4920
    17.5024  17.5150  17.5747  17.6236  17.6448  17.6458  17.6744  17.7615
    17.7957  17.8821  17.9477  17.9734  18.0061  18.0817  18.0843  18.1931
    18.2459  18.2653  18.2777  18.3192  18.3485  18.3832  18.4340  18.5186
    18.5653  18.5890  18.5896  18.6128  18.6255  18.6739  18.7254  18.7460
    18.8091  18.8507  18.8856  18.9625  18.9684  19.0169

          k = 0.3464 0.1732 0.1732 ( 24002 PWs)   bands (ev):

   -63.1024 -63.0916 -63.0876 -63.0813 -63.0752 -63.0706 -63.0648 -63.0643
   -63.0641 -63.0623 -63.0622 -63.0622 -62.2374 -61.5157 -61.4928 -61.4927
   -61.4922 -61.4692 -61.4690 -61.4227 -61.4225 -61.4224 -61.3990 -61.3989
   -61.3988 -60.1798 -60.1798 -60.1798 -60.1796 -31.9354 -31.9341 -31.9317
   -31.9300 -31.9284 -31.9246 -31.9219 -31.9131 -31.9029 -31.8883 -31.8798
   -31.8597 -31.8595 -31.8548 -31.8501 -31.8384 -31.8288 -31.8148 -31.8023
   -31.8015 -31.7988 -31.7972 -31.7883 -31.7530 -31.7239 -31.7236 -31.7227
   -31.7194 -31.7057 -31.6540 -31.6472 -31.6462 -31.6452 -31.6319 -31.6254
   -31.6253 -30.9595 -30.9595 -30.9594 -30.6155 -30.5388 -30.5385 -30.5359
   -30.4795 -30.4781 -30.2915 -30.2868 -30.2849 -30.2781 -30.2604 -30.2592
   -30.2580 -30.2402 -30.2402 -30.2397 -30.2204 -30.2200 -30.1037 -30.1027
   -30.1021 -30.0781 -30.0778 -30.0744 -30.0719 -30.0700 -30.0692 -30.0612
   -30.0601 -30.0589 -30.0581 -30.0561 -30.0554 -30.0026 -30.0024 -30.0023
   -28.9938 -28.9937 -28.9935 -28.9930 -28.9928 -28.9914 -28.9912 -28.9910
   -28.9365 -28.9355 -28.9354 -28.9348   9.7160  11.1856  11.2540  11.8535
    12.3495  12.3975  12.7537  12.7863  13.0128  13.0210  13.0744  13.1501
    13.2273  13.2555  13.3591  13.3677  13.4070  13.4954  13.5557  13.5693
    13.6345  13.6406  13.8694  13.8734  13.9472  13.9595  14.1558  14.2140
    14.2747  14.2802  14.3373  14.4528  14.4602  14.4985  14.5030  14.5686
    14.6036  14.6471  14.6934  14.7161  14.7408  14.7851  14.8046  14.8808
    14.8859  14.8923  14.9364  14.9635  14.9694  15.0098  15.0781  15.1191
    15.1213  15.1484  15.1530  15.2130  15.2278  15.2587  15.2611  15.3292
    15.3780  15.4331  15.4556  15.4578  15.5043  15.5383  15.5493  15.5833
    15.6366  15.6787  15.7256  15.8036  15.8155  15.8602  15.8662  15.9286
    15.9299  15.9699  16.0064  16.0558  16.0908  16.1858  16.2259  16.2828
    16.3369  16.3549  16.4210  16.4312  16.4782  16.5051  16.5404  16.5698
    16.6712  16.7613  16.9232  16.9339  16.9742  17.1017  17.1054  17.1723
    17.1749  17.2096  17.2250  17.2950  17.3154  17.3984  17.4377  17.4831
    17.5028  17.5430  17.5551  17.5915  17.6274  17.6603  17.6776  17.7384
    17.8609  17.8869  17.8975  17.9331  17.9660  18.0942  18.0955  18.1556
    18.1893  18.2382  18.3145  18.3159  18.3603  18.4130  18.4304  18.5033
    18.5253  18.5634  18.5944  18.6133  18.6324  18.6794  18.7034  18.7354
    18.8066  18.8535  18.9066  18.9144  18.9701  19.0146

          k = 0.5196 0.3464 0.1732 ( 24002 PWs)   bands (ev):

   -63.0990 -63.0958 -63.0888 -63.0799 -63.0756 -63.0693 -63.0651 -63.0645
   -63.0641 -63.0623 -63.0622 -63.0622 -62.2374 -61.5160 -61.4928 -61.4925
   -61.4920 -61.4692 -61.4690 -61.4226 -61.4225 -61.4223 -61.3991 -61.3990
   -61.3989 -60.1798 -60.1798 -60.1798 -60.1797 -31.9354 -31.9338 -31.9336
   -31.9326 -31.9292 -31.9269 -31.9215 -31.9108 -31.9064 -31.8862 -31.8702
   -31.8670 -31.8630 -31.8536 -31.8486 -31.8442 -31.8271 -31.8125 -31.8005
   -31.7999 -31.7983 -31.7964 -31.7811 -31.7628 -31.7246 -31.7242 -31.7214
   -31.7145 -31.6830 -31.6667 -31.6569 -31.6472 -31.6441 -31.6292 -31.6278
   -31.6267 -30.9596 -30.9595 -30.9594 -30.6167 -30.5384 -30.5375 -30.5351
   -30.4799 -30.4784 -30.2920 -30.2886 -30.2851 -30.2765 -30.2604 -30.2582
   -30.2580 -30.2404 -30.2400 -30.2398 -30.2197 -30.2193 -30.1040 -30.1031
   -30.1021 -30.0797 -30.0790 -30.0758 -30.0712 -30.0704 -30.0702 -30.0615
   -30.0600 -30.0574 -30.0568 -30.0558 -30.0546 -30.0024 -30.0023 -30.0021
   -28.9939 -28.9939 -28.9935 -28.9930 -28.9929 -28.9912 -28.9911 -28.9908
   -28.9367 -28.9355 -28.9352 -28.9349  10.3134  10.3877  11.0866  11.7370
    12.2808  12.6639  12.7062  12.7668  13.0722  13.0935  13.1500  13.2188
    13.2300  13.2827  13.3527  13.3791  13.4088  13.5206  13.5411  13.5980
    13.6086  13.6788  13.8570  13.9168  13.9320  14.0145  14.0678  14.1613
    14.2587  14.2877  14.3555  14.4062  14.4600  14.4846  14.5590  14.5730
    14.6503  14.6617  14.7149  14.7453  14.7852  14.7946  14.8275  14.8420
    14.8988  14.9040  14.9303  14.9432  14.9685  15.0446  15.0602  15.0836
    15.1101  15.1422  15.1638  15.2063  15.2892  15.2996  15.3468  15.3569
    15.3650  15.3908  15.4528  15.4946  15.5010  15.5236  15.5747  15.6146
    15.6299  15.7146  15.7378  15.7431  15.7917  15.8366  15.8899  15.9256
    15.9563  15.9851  16.0486  16.0872  16.1032  16.1348  16.1912  16.3026
    16.3434  16.3462  16.3966  16.4167  16.4201  16.4429  16.4860  16.5836
    16.5882  16.7525  16.8591  16.9225  16.9599  17.0755  17.0802  17.1189
    17.1459  17.1927  17.1967  17.2475  17.2704  17.3833  17.4574  17.5067
    17.5683  17.5687  17.5883  17.6718  17.6783  17.7083  17.7290  17.7711
    17.8056  17.9247  17.9497  18.0057  18.0406  18.0766  18.1474  18.1915
    18.2169  18.2788  18.2981  18.3160  18.3865  18.3898  18.4227  18.4754
    18.5550  18.5793  18.5888  18.6165  18.6540  18.6764  18.7162  18.7931
    18.8215  18.8508  18.9168  18.9272  18.9784  18.9950

          k = 0.3464 0.3464 0.3464 ( 23968 PWs)   bands (ev):

   -63.0989 -63.0934 -63.0934 -63.0770 -63.0728 -63.0728 -63.0647 -63.0647
   -63.0644 -63.0624 -63.0622 -63.0622 -62.2374 -61.5160 -61.4925 -61.4925
   -61.4921 -61.4692 -61.4692 -61.4226 -61.4224 -61.4224 -61.3990 -61.3990
   -61.3989 -60.1798 -60.1798 -60.1798 -60.1797 -31.9336 -31.9336 -31.9322
   -31.9295 -31.9295 -31.9214 -31.9214 -31.9181 -31.9150 -31.8771 -31.8771
   -31.8654 -31.8514 -31.8514 -31.8454 -31.8408 -31.8408 -31.8225 -31.7980
   -31.7980 -31.7971 -31.7890 -31.7890 -31.7741 -31.7253 -31.7253 -31.7202
   -31.6939 -31.6939 -31.6654 -31.6595 -31.6444 -31.6444 -31.6296 -31.6272
   -31.6272 -30.9595 -30.9595 -30.9595 -30.6167 -30.5371 -30.5371 -30.5355
   -30.4799 -30.4799 -30.2906 -30.2869 -30.2869 -30.2762 -30.2597 -30.2597
   -30.2582 -30.2404 -30.2404 -30.2402 -30.2198 -30.2198 -30.1033 -30.1023
   -30.1023 -30.0789 -30.0789 -30.0766 -30.0717 -30.0696 -30.0696 -30.0592
   -30.0589 -30.0589 -30.0586 -30.0560 -30.0560 -30.0024 -30.0022 -30.0022
   -28.9937 -28.9937 -28.9937 -28.9930 -28.9930 -28.9912 -28.9910 -28.9910
   -28.9366 -28.9353 -28.9353 -28.9350  10.1936  10.9072  10.9072  11.0280
    12.8833  12.8939  12.8944  12.8944  13.0347  13.0347  13.0583  13.2083
    13.2083  13.2661  13.3431  13.3431  13.3928  13.4511  13.4511  13.5744
    13.5800  13.5800  13.9451  13.9451  13.9519  13.9944  14.1802  14.1802
    14.2613  14.3190  14.3190  14.3723  14.4763  14.4763  14.5205  14.5205
    14.6128  14.6208  14.7194  14.7194  14.7426  14.7509  14.7509  14.8349
    14.8349  14.9124  15.0064  15.0109  15.0120  15.0120  15.0667  15.0773
    15.0773  15.2021  15.2117  15.2117  15.2388  15.3308  15.3308  15.3801
    15.4280  15.4280  15.4401  15.4401  15.5031  15.5627  15.5627  15.5945
    15.5945  15.5957  15.7398  15.7398  15.7839  15.8786  15.8786  15.9730
    16.0034  16.0034  16.0413  16.0742  16.1230  16.1230  16.1767  16.3013
    16.3013  16.3459  16.3459  16.4245  16.4380  16.4380  16.5254  16.5958
    16.5958  16.7139  16.8945  16.8945  16.9653  17.0336  17.0336  17.0722
    17.1186  17.1186  17.1814  17.2228  17.2228  17.4806  17.5092  17.5092
    17.5485  17.5485  17.6144  17.6441  17.6441  17.6958  17.7272  17.7272
    17.9151  17.9335  17.9335  18.0504  18.0504  18.0570  18.2274  18.2274
    18.2958  18.2958  18.3137  18.3962  18.4005  18.4005  18.4157  18.4768
    18.4768  18.5526  18.6447  18.6567  18.6567  18.6652  18.7529  18.7529
    18.8841  18.8899  18.8899  18.9181  18.9897  19.0005

          k = 0.0000 0.0000 0.3464 ( 24055 PWs)   bands (ev):

   -63.1037 -63.0899 -63.0840 -63.0840 -63.0777 -63.0699 -63.0649 -63.0640
   -63.0640 -63.0622 -63.0622 -63.0622 -62.2374 -61.5155 -61.4928 -61.4928
   -61.4924 -61.4691 -61.4688 -61.4226 -61.4226 -61.4226 -61.3989 -61.3989
   -61.3989 -60.1798 -60.1798 -60.1798 -60.1796 -31.9350 -31.9314 -31.9314
   -31.9287 -31.9277 -31.9277 -31.9275 -31.9089 -31.8931 -31.8931 -31.8843
   -31.8666 -31.8582 -31.8559 -31.8508 -31.8350 -31.8125 -31.8125 -31.8117
   -31.8058 -31.8002 -31.8002 -31.7872 -31.7349 -31.7349 -31.7221 -31.7221
   -31.7216 -31.7205 -31.6484 -31.6484 -31.6477 -31.6391 -31.6332 -31.6247
   -31.6247 -30.9595 -30.9595 -30.9595 -30.6148 -30.5393 -30.5393 -30.5368
   -30.4793 -30.4770 -30.2905 -30.2868 -30.2868 -30.2780 -30.2596 -30.2587
   -30.2587 -30.2401 -30.2401 -30.2396 -30.2208 -30.2202 -30.1031 -30.1029
   -30.1029 -30.0758 -30.0758 -30.0752 -30.0728 -30.0717 -30.0697 -30.0592
   -30.0592 -30.0588 -30.0574 -30.0572 -30.0572 -30.0026 -30.0026 -30.0026
   -28.9938 -28.9934 -28.9934 -28.9933 -28.9926 -28.9913 -28.9913 -28.9911
   -28.9365 -28.9354 -28.9354 -28.9349   9.5514  11.6737  11.7289  11.7289
    11.7898  12.6682  12.6682  12.7020  12.7617  13.0278  13.1276  13.1688
    13.1688  13.1744  13.3676  13.3676  13.4021  13.4330  13.5713  13.6369
    13.7282  13.7282  13.7597  13.8172  13.9740  13.9740  14.0721  14.1872
    14.3145  14.3145  14.3264  14.4553  14.4761  14.4763  14.4763  14.5385
    14.5385  14.6286  14.7265  14.7374  14.7374  14.7642  14.8376  14.8768
    14.8768  14.8900  14.9960  15.0088  15.0088  15.0510  15.0821  15.1304
    15.1304  15.1340  15.1397  15.1636  15.2050  15.2050  15.2532  15.3263
    15.3367  15.3367  15.4117  15.4343  15.5399  15.5399  15.5483  15.5624
    15.6885  15.6974  15.6974  15.8581  15.8581  15.8784  15.8915  15.9436
    15.9570  15.9742  15.9742  16.0962  16.0962  16.0970  16.1296  16.3130
    16.3294  16.3366  16.4456  16.4456  16.5625  16.5627  16.5754  16.5754
    16.5912  16.8101  16.9718  17.0416  17.0612  17.0612  17.1301  17.1685
    17.1685  17.2419  17.3045  17.3045  17.3521  17.3843  17.4027  17.4604
    17.4604  17.5114  17.5114  17.5379  17.6186  17.6605  17.6605  17.7347
    17.8665  17.8671  17.8671  17.9233  18.0206  18.0469  18.0665  18.1533
    18.1533  18.2154  18.2859  18.2859  18.3134  18.3847  18.4187  18.4491
    18.4491  18.5757  18.5944  18.5944  18.6277  18.6579  18.7208  18.7208
    18.7922  18.7922  18.9032  18.9098  18.9674  19.0405

          k = 0.0000-0.1732 0.5196 ( 23990 PWs)   bands (ev):

   -63.1003 -63.0942 -63.0845 -63.0840 -63.0783 -63.0672 -63.0654 -63.0642
   -63.0640 -63.0623 -63.0622 -63.0622 -62.2374 -61.5159 -61.4928 -61.4928
   -61.4922 -61.4690 -61.4687 -61.4226 -61.4225 -61.4223 -61.3991 -61.3990
   -61.3990 -60.1798 -60.1798 -60.1798 -60.1797 -31.9372 -31.9340 -31.9335
   -31.9324 -31.9311 -31.9295 -31.9273 -31.9026 -31.8928 -31.8913 -31.8810
   -31.8739 -31.8631 -31.8548 -31.8484 -31.8409 -31.8149 -31.8066 -31.8040
   -31.8025 -31.8015 -31.8006 -31.7740 -31.7410 -31.7343 -31.7231 -31.7215
   -31.7209 -31.6965 -31.6607 -31.6520 -31.6496 -31.6458 -31.6307 -31.6271
   -31.6266 -30.9595 -30.9595 -30.9595 -30.6168 -30.5387 -30.5384 -30.5358
   -30.4790 -30.4769 -30.2926 -30.2891 -30.2881 -30.2752 -30.2594 -30.2577
   -30.2576 -30.2401 -30.2398 -30.2394 -30.2193 -30.2187 -30.1045 -30.1037
   -30.1031 -30.0789 -30.0788 -30.0757 -30.0740 -30.0729 -30.0704 -30.0598
   -30.0579 -30.0575 -30.0560 -30.0558 -30.0543 -30.0024 -30.0023 -30.0022
   -28.9941 -28.9939 -28.9933 -28.9932 -28.9929 -28.9911 -28.9910 -28.9908
   -28.9370 -28.9353 -28.9352 -28.9348  10.0369  10.7986  11.4820  11.4865
    12.0740  12.5138  12.5547  12.6073  13.0628  13.0981  13.1834  13.2320
    13.2742  13.2903  13.3439  13.4073  13.4494  13.4807  13.5931  13.6192
    13.6639  13.7195  13.8258  13.8810  13.9310  14.0011  14.0718  14.1385
    14.2380  14.2622  14.3664  14.3741  14.4720  14.4969  14.4992  14.6115
    14.6721  14.6882  14.6993  14.7492  14.7985  14.8406  14.8787  14.8865
    14.9213  14.9261  14.9475  14.9784  14.9976  15.0180  15.0675  15.1046
    15.1158  15.1284  15.1752  15.2065  15.2462  15.2594  15.2802  15.3024
    15.3217  15.3599  15.4400  15.5074  15.5291  15.5542  15.6207  15.6286
    15.6690  15.6851  15.7552  15.7682  15.8020  15.8488  15.8536  15.9309
    15.9693  16.0154  16.0348  16.0891  16.1067  16.1546  16.2242  16.2342
    16.2741  16.3344  16.3761  16.4177  16.4311  16.4556  16.5088  16.5603
    16.5854  16.8385  16.9072  16.9408  16.9877  17.0748  17.1010  17.1491
    17.1697  17.2132  17.2827  17.3154  17.3403  17.3737  17.4373  17.5005
    17.5326  17.5535  17.5868  17.6372  17.7064  17.7292  17.7623  17.7902
    17.8553  17.8870  17.9121  17.9742  18.0186  18.0549  18.0879  18.1157
    18.1608  18.2358  18.2534  18.3085  18.3221  18.3617  18.4194  18.4532
    18.5012  18.5906  18.6036  18.6057  18.6360  18.6752  18.7045  18.7515
    18.8035  18.8249  18.8597  18.9533  18.9867  18.9973

          k =-0.6928-0.1732-0.1732 ( 24013 PWs)   bands (ev):

   -63.0970 -63.0970 -63.0863 -63.0810 -63.0810 -63.0658 -63.0656 -63.0641
   -63.0641 -63.0623 -63.0622 -63.0622 -62.2374 -61.5161 -61.4928 -61.4925
   -61.4925 -61.4687 -61.4687 -61.4225 -61.4225 -61.4223 -61.3992 -61.3991
   -61.3991 -60.1798 -60.1798 -60.1798 -60.1797 -31.9366 -31.9366 -31.9343
   -31.9325 -31.9325 -31.9323 -31.9284 -31.8961 -31.8961 -31.8893 -31.8841
   -31.8695 -31.8695 -31.8547 -31.8447 -31.8447 -31.8081 -31.8081 -31.8044
   -31.8033 -31.8033 -31.7983 -31.7562 -31.7562 -31.7280 -31.7225 -31.7225
   -31.7166 -31.6821 -31.6821 -31.6533 -31.6474 -31.6474 -31.6288 -31.6288
   -31.6282 -30.9595 -30.9595 -30.9595 -30.6177 -30.5386 -30.5371 -30.5371
   -30.4774 -30.4774 -30.2922 -30.2922 -30.2890 -30.2738 -30.2583 -30.2572
   -30.2572 -30.2398 -30.2395 -30.2395 -30.2183 -30.2183 -30.1046 -30.1046
   -30.1036 -30.0795 -30.0784 -30.0784 -30.0749 -30.0749 -30.0695 -30.0582
   -30.0582 -30.0563 -30.0548 -30.0548 -30.0544 -30.0022 -30.0022 -30.0021
   -28.9942 -28.9942 -28.9933 -28.9930 -28.9930 -28.9909 -28.9909 -28.9907
   -28.9373 -28.9352 -28.9350 -28.9350  10.6158  10.6158  10.7267  11.9429
    11.9429  12.0075  12.4760  13.0189  13.0843  13.0843  13.1937  13.2889
    13.2889  13.3091  13.3985  13.4181  13.4181  13.5580  13.5580  13.5899
    13.6784  13.6784  13.8854  13.8854  13.8855  14.0094  14.0794  14.0794
    14.2269  14.2269  14.2679  14.4606  14.4868  14.4868  14.5447  14.5447
    14.6649  14.7176  14.7176  14.7648  14.8522  14.8522  14.8927  14.8967
    14.8967  14.9403  14.9763  14.9763  15.0313  15.0465  15.0465  15.1485
    15.1614  15.1614  15.1681  15.2316  15.2316  15.2579  15.2852  15.2852
    15.3366  15.3366  15.4383  15.4383  15.5118  15.6207  15.6366  15.6366
    15.6693  15.7328  15.7328  15.7748  15.7952  15.7952  15.9452  15.9452
    15.9876  15.9932  16.0240  16.0617  16.0617  16.1955  16.2133  16.2133
    16.2855  16.3055  16.3055  16.3918  16.3918  16.4884  16.4884  16.5257
    16.6182  16.8724  16.9228  16.9228  16.9576  17.0471  17.0471  17.2040
    17.2040  17.2166  17.3030  17.3218  17.3218  17.4073  17.4073  17.5365
    17.5365  17.5655  17.5909  17.7019  17.7019  17.7484  17.8089  17.8089
    17.9083  17.9216  17.9216  17.9535  18.0052  18.0052  18.0832  18.0832
    18.1684  18.2209  18.2209  18.2317  18.3491  18.4250  18.4250  18.5258
    18.5258  18.5614  18.5614  18.5835  18.6135  18.6895  18.6895  18.7687
    18.8142  18.8142  18.9141  18.9478  18.9911  18.9911

          k = 0.0000 0.0000 0.6928 ( 23970 PWs)   bands (ev):

   -63.0976 -63.0953 -63.0841 -63.0841 -63.0827 -63.0659 -63.0646 -63.0639
   -63.0639 -63.0622 -63.0622 -63.0622 -62.2374 -61.5162 -61.4927 -61.4927
   -61.4926 -61.4685 -61.4684 -61.4224 -61.4224 -61.4224 -61.3992 -61.3992
   -61.3992 -60.1798 -60.1798 -60.1798 -60.1797 -31.9383 -31.9371 -31.9371
   -31.9329 -31.9325 -31.9325 -31.9309 -31.8997 -31.8900 -31.8853 -31.8853
   -31.8753 -31.8687 -31.8551 -31.8451 -31.8426 -31.8079 -31.8076 -31.8076
   -31.8005 -31.8005 -31.8005 -31.7493 -31.7354 -31.7354 -31.7207 -31.7188
   -31.7188 -31.7002 -31.6810 -31.6494 -31.6494 -31.6491 -31.6300 -31.6287
   -31.6287 -30.9595 -30.9595 -30.9595 -30.6182 -30.5382 -30.5382 -30.5373
   -30.4768 -30.4760 -30.2930 -30.2924 -30.2924 -30.2725 -30.2571 -30.2567
   -30.2567 -30.2394 -30.2394 -30.2392 -30.2177 -30.2174 -30.1051 -30.1050
   -30.1050 -30.0786 -30.0786 -30.0786 -30.0784 -30.0776 -30.0686 -30.0566
   -30.0566 -30.0566 -30.0541 -30.0541 -30.0541 -30.0021 -30.0021 -30.0021
   -28.9944 -28.9944 -28.9932 -28.9932 -28.9930 -28.9907 -28.9907 -28.9907
   -28.9375 -28.9350 -28.9350 -28.9349  10.4982  11.1481  11.2273  11.2273
    11.2779  11.8551  12.9622  13.0116  13.0597  13.0597  13.1852  13.3493
    13.3493  13.3711  13.3727  13.4511  13.4793  13.4793  13.5796  13.6328
    13.6328  13.6681  13.8520  13.8687  13.8821  13.9809  14.0003  14.0003
    14.2173  14.2173  14.2807  14.5086  14.5086  14.5210  14.5848  14.6203
    14.6203  14.6931  14.7459  14.7781  14.8152  14.8152  14.9251  14.9277
    14.9277  14.9590  14.9707  14.9855  14.9855  15.0456  15.0456  15.1348
    15.1495  15.1693  15.2164  15.2327  15.2516  15.2516  15.2837  15.3323
    15.3385  15.3385  15.4588  15.5418  15.5463  15.5463  15.5846  15.6312
    15.6845  15.6849  15.6849  15.8284  15.8284  15.8361  15.9042  15.9568
    15.9797  15.9797  15.9891  16.0910  16.1495  16.1710  16.1710  16.2232
    16.2620  16.2897  16.2987  16.3140  16.3140  16.5105  16.5274  16.5274
    16.5851  16.9038  16.9315  16.9315  16.9822  17.0023  17.1708  17.2172
    17.2172  17.2806  17.3282  17.3981  17.3981  17.4493  17.4627  17.5016
    17.5016  17.5574  17.6611  17.6611  17.6623  17.7669  17.7743  17.8558
    17.8868  17.8868  17.9382  17.9555  17.9555  17.9684  18.0853  18.0906
    18.0906  18.1572  18.1687  18.1687  18.4384  18.4576  18.4576  18.4624
    18.5104  18.5213  18.5213  18.5897  18.6603  18.6955  18.6955  18.7637
    18.7888  18.7889  18.9048  18.9273  18.9781  19.0192

 ------ SPIN DOWN ----------


          k = 0.0000 0.0000 0.0000 ( 24103 PWs)   bands (ev):

   -63.8449 -63.8447 -63.8447 -63.8447 -62.6619 -62.6380 -62.6380 -62.6380
   -62.6153 -62.6153 -62.5703 -62.5703 -62.5703 -62.5480 -62.5480 -62.5480
   -62.0163 -61.0462 -61.0243 -61.0243 -61.0243 -61.0164 -61.0164 -61.0039
   -61.0039 -61.0039 -61.0020 -61.0020 -61.0020 -32.5771 -32.5771 -32.5770
   -32.5770 -32.5770 -32.5752 -32.5752 -32.5752 -32.5367 -32.5354 -32.5354
   -32.5354 -31.6134 -31.5414 -31.5414 -31.5414 -31.4926 -31.4926 -31.4796
   -31.4796 -31.4796 -31.4723 -31.4426 -31.4426 -31.4426 -31.4166 -31.4166
   -31.4166 -31.4085 -31.4085 -31.2879 -31.2879 -31.2879 -31.2851 -31.2851
   -31.2851 -31.2675 -31.2675 -31.2632 -31.2632 -31.2632 -31.2514 -31.0969
   -31.0969 -31.0969 -31.0198 -31.0198 -31.0198 -30.7277 -30.7277 -30.7277
   -29.8926 -29.8926 -29.8630 -29.8630 -29.8630 -29.8578 -29.8578 -29.8578
   -29.8536 -29.8536 -29.8417 -29.8417 -29.8417 -29.8364 -29.7954 -29.7954
   -29.7954 -29.7824 -29.7824 -29.7582 -29.7582 -29.7582 -29.7467 -29.7356
   -29.7356 -29.7356 -29.6921 -29.6921 -29.6921 -29.6717 -29.6706 -29.6706
   -29.6706 -29.6397 -29.6397 -29.6397   9.1763  12.3794  12.3794  12.3794
    12.5222  12.5222  12.5222  12.5635  12.5661  12.5661  12.5661  12.6134
    12.6134  13.2163  13.2163  13.2163  13.3512  13.3512  13.4128  13.5944
    13.6201  13.6201  13.6201  13.8548  13.8548  13.8548  14.0201  14.0201
    14.0201  14.1453  14.1453  14.1453  14.1980  14.1980  14.1980  14.3272
    14.3272  14.4098  14.5647  14.5647  14.5647  14.7798  14.7798  14.7890
    14.7890  14.7890  14.8663  14.8663  14.8749  14.9912  14.9912  14.9912
    15.0418  15.0418  15.0418  15.0497  15.0497  15.0497  15.2645  15.2645
    15.2691  15.2691  15.2691  15.3951  15.3951  15.3951  15.6350  15.6587
    15.6587  15.6587  15.7726  15.7726  15.7726  15.9125  15.9125  15.9466
    15.9466  15.9466  15.9562  15.9562  16.1969  16.1969  16.1969  16.2173
    16.4204  16.4289  16.4289  16.4289  16.4906  16.5256  16.5256  16.6836
    16.6836  16.6836  16.7628  16.7628  16.7628  16.9653  16.9653  16.9653
    16.9813  16.9813  16.9813  17.0185  17.0185  17.4501  17.4501  17.4501
    17.5480  17.5480  17.5480  17.5580  17.5580  17.7747  17.7747  17.7747
    17.9098  17.9098  17.9286  17.9546  17.9768  17.9768  18.0461  18.0461
    18.0461  18.1281  18.1281  18.1281  18.1935  18.1935  18.1935  18.2555
    18.2555  18.2555  18.3200  18.4770  18.4770  18.4770  18.5686  18.5686
    18.5686  18.7250  18.7250  18.7250  18.7363  18.7363

          k = 0.1732 0.1732 0.0000 ( 24020 PWs)   bands (ev):

   -63.8449 -63.8447 -63.8447 -63.8447 -62.6616 -62.6383 -62.6381 -62.6380
   -62.6153 -62.6152 -62.5705 -62.5704 -62.5703 -62.5479 -62.5479 -62.5478
   -62.0163 -61.0449 -61.0282 -61.0247 -61.0242 -61.0156 -61.0137 -61.0042
   -61.0041 -61.0039 -61.0020 -61.0020 -61.0019 -32.5775 -32.5773 -32.5771
   -32.5766 -32.5764 -32.5753 -32.5753 -32.5752 -32.5368 -32.5356 -32.5354
   -32.5352 -31.6124 -31.5432 -31.5418 -31.5414 -31.4921 -31.4918 -31.4809
   -31.4795 -31.4782 -31.4712 -31.4434 -31.4434 -31.4426 -31.4167 -31.4163
   -31.4159 -31.4099 -31.4092 -31.2898 -31.2891 -31.2874 -31.2841 -31.2830
   -31.2817 -31.2690 -31.2676 -31.2643 -31.2630 -31.2617 -31.2523 -31.0973
   -31.0972 -31.0967 -31.0199 -31.0198 -31.0198 -30.7277 -30.7277 -30.7277
   -29.9064 -29.8988 -29.8716 -29.8626 -29.8617 -29.8590 -29.8588 -29.8545
   -29.8488 -29.8457 -29.8429 -29.8369 -29.8357 -29.8320 -29.8016 -29.7989
   -29.7882 -29.7767 -29.7710 -29.7644 -29.7595 -29.7584 -29.7455 -29.7407
   -29.7339 -29.7289 -29.6934 -29.6929 -29.6918 -29.6765 -29.6715 -29.6684
   -29.6657 -29.6484 -29.6416 -29.6409   9.3457  11.5647  12.0455  12.0896
    12.1849  12.2262  12.5685  12.6230  12.8350  12.8908  12.9303  12.9842
    13.1029  13.1451  13.1960  13.2248  13.3295  13.3904  13.3960  13.4985
    13.6114  13.6830  13.7395  13.7839  13.8048  13.8833  14.0298  14.0576
    14.1061  14.1598  14.1713  14.1947  14.2194  14.2696  14.2738  14.3690
    14.3916  14.4192  14.5265  14.5750  14.5887  14.7241  14.7362  14.7449
    14.7816  14.8064  14.8661  14.8730  14.9177  14.9229  14.9423  14.9739
    15.0026  15.0585  15.0752  15.1007  15.1405  15.1414  15.2348  15.2478
    15.2651  15.3193  15.3595  15.3615  15.3999  15.4271  15.5513  15.5726
    15.6359  15.6631  15.7001  15.7586  15.7614  15.8070  15.8528  15.9042
    15.9300  15.9549  16.0026  16.0639  16.0857  16.1236  16.1238  16.2465
    16.3893  16.3985  16.4202  16.4304  16.4840  16.4956  16.5098  16.5926
    16.6697  16.7054  16.7689  16.7865  16.8286  16.8835  16.9094  16.9955
    16.9963  17.0485  17.0486  17.0787  17.1589  17.2980  17.3505  17.4669
    17.5150  17.5377  17.5630  17.6312  17.6437  17.6822  17.7704  17.8088
    17.8624  17.8989  17.9402  17.9691  17.9793  17.9952  18.0460  18.0545
    18.1189  18.1320  18.1398  18.1547  18.1754  18.2187  18.2716  18.3101
    18.3162  18.3415  18.3425  18.4827  18.5049  18.5156  18.5303  18.5306
    18.6167  18.6509  18.6560  18.7484  18.7741  18.8070

          k = 0.3464 0.3464 0.0000 ( 24012 PWs)   bands (ev):

   -63.8448 -63.8447 -63.8447 -63.8447 -62.6610 -62.6388 -62.6381 -62.6381
   -62.6155 -62.6152 -62.5707 -62.5705 -62.5703 -62.5478 -62.5477 -62.5476
   -62.0163 -61.0414 -61.0341 -61.0253 -61.0242 -61.0144 -61.0107 -61.0049
   -61.0046 -61.0039 -61.0020 -61.0020 -61.0019 -32.5776 -32.5774 -32.5773
   -32.5762 -32.5760 -32.5755 -32.5754 -32.5753 -32.5366 -32.5361 -32.5353
   -32.5350 -31.6108 -31.5462 -31.5424 -31.5414 -31.4914 -31.4903 -31.4824
   -31.4793 -31.4759 -31.4702 -31.4446 -31.4446 -31.4426 -31.4169 -31.4157
   -31.4149 -31.4123 -31.4105 -31.2913 -31.2898 -31.2864 -31.2827 -31.2812
   -31.2772 -31.2697 -31.2670 -31.2665 -31.2635 -31.2607 -31.2538 -31.0979
   -31.0978 -31.0965 -31.0200 -31.0199 -31.0197 -30.7277 -30.7277 -30.7276
   -29.9198 -29.9059 -29.8806 -29.8652 -29.8630 -29.8593 -29.8561 -29.8547
   -29.8463 -29.8439 -29.8413 -29.8303 -29.8242 -29.8235 -29.8053 -29.7967
   -29.7783 -29.7743 -29.7696 -29.7671 -29.7597 -29.7527 -29.7510 -29.7449
   -29.7306 -29.7095 -29.6964 -29.6942 -29.6903 -29.6834 -29.6734 -29.6711
   -29.6644 -29.6572 -29.6466 -29.6434   9.8399  10.6124  11.8190  11.8768
    11.9587  12.0315  12.7266  12.8449  12.9037  13.0336  13.0803  13.1264
    13.1670  13.1904  13.2497  13.2790  13.3624  13.4327  13.4560  13.4767
    13.5967  13.6289  13.6802  13.8473  13.9057  13.9198  14.0235  14.0547
    14.2056  14.2295  14.2384  14.2648  14.3227  14.3433  14.3627  14.3823
    14.4134  14.4392  14.4561  14.4755  14.6638  14.6801  14.7216  14.7303
    14.7625  14.7891  14.8834  14.9425  14.9555  14.9715  14.9961  15.0460
    15.0687  15.0970  15.1039  15.1295  15.1698  15.1798  15.1858  15.2840
    15.2919  15.3010  15.3092  15.3794  15.4093  15.4233  15.4700  15.5263
    15.5780  15.5851  15.6534  15.6627  15.6857  15.6868  15.8148  15.8446
    15.8651  15.9121  16.0130  16.0142  16.0813  16.1468  16.1653  16.1882
    16.2988  16.3023  16.3749  16.3825  16.5101  16.5349  16.5458  16.5780
    16.6262  16.7135  16.7886  16.8062  16.8064  16.8382  16.9538  17.0179
    17.0397  17.0538  17.0664  17.1361  17.2521  17.2563  17.2871  17.4420
    17.4659  17.4723  17.5422  17.6355  17.6956  17.7265  17.7335  17.7769
    17.8182  17.8611  17.9522  17.9587  18.0333  18.0465  18.0583  18.1237
    18.1267  18.1688  18.1976  18.2071  18.2254  18.2749  18.3101  18.3460
    18.4093  18.4200  18.4211  18.4363  18.5291  18.5607  18.5779  18.5968
    18.6627  18.6746  18.6999  18.7735  18.7866  18.8023

          k = 0.3464 0.1732 0.1732 ( 24002 PWs)   bands (ev):

   -63.8448 -63.8447 -63.8447 -63.8447 -62.6611 -62.6386 -62.6382 -62.6381
   -62.6154 -62.6152 -62.5706 -62.5705 -62.5704 -62.5478 -62.5477 -62.5477
   -62.0163 -61.0424 -61.0320 -61.0279 -61.0216 -61.0156 -61.0109 -61.0048
   -61.0043 -61.0041 -61.0020 -61.0020 -61.0019 -32.5776 -32.5774 -32.5772
   -32.5763 -32.5760 -32.5755 -32.5754 -32.5752 -32.5367 -32.5357 -32.5357
   -32.5349 -31.6111 -31.5451 -31.5425 -31.5416 -31.4914 -31.4907 -31.4828
   -31.4780 -31.4766 -31.4707 -31.4444 -31.4441 -31.4428 -31.4169 -31.4155
   -31.4155 -31.4117 -31.4104 -31.2908 -31.2898 -31.2870 -31.2828 -31.2807
   -31.2789 -31.2699 -31.2673 -31.2657 -31.2635 -31.2606 -31.2535 -31.0977
   -31.0975 -31.0967 -31.0200 -31.0198 -31.0198 -30.7277 -30.7277 -30.7276
   -29.9183 -29.9022 -29.8801 -29.8715 -29.8620 -29.8607 -29.8570 -29.8501
   -29.8429 -29.8426 -29.8393 -29.8331 -29.8290 -29.8243 -29.8038 -29.7966
   -29.7872 -29.7753 -29.7669 -29.7667 -29.7572 -29.7564 -29.7472 -29.7449
   -29.7272 -29.7190 -29.6951 -29.6944 -29.6913 -29.6837 -29.6695 -29.6673
   -29.6639 -29.6596 -29.6443 -29.6438   9.6775  11.1724  11.1801  11.7992
    12.3307  12.3358  12.6683  12.7827  12.9184  12.9792  13.0009  13.1076
    13.1820  13.1833  13.1961  13.3228  13.3293  13.4031  13.4462  13.4756
    13.5828  13.6292  13.6933  13.8227  13.9118  13.9798  14.0044  14.1006
    14.1509  14.1831  14.2115  14.2175  14.2912  14.3448  14.3515  14.3894
    14.4142  14.4361  14.4946  14.5846  14.5872  14.6889  14.7216  14.7519
    14.7731  14.7955  14.8618  14.8776  14.8917  14.9517  15.0009  15.0204
    15.0211  15.0859  15.0885  15.1450  15.1750  15.1807  15.2321  15.2661
    15.2941  15.3069  15.3083  15.3691  15.3881  15.4528  15.4961  15.5527
    15.5562  15.6155  15.6560  15.7135  15.7167  15.7622  15.7651  15.8597
    15.9005  15.9618  15.9744  16.0437  16.0727  16.0893  16.1177  16.2039
    16.3206  16.3534  16.3635  16.4460  16.4652  16.4919  16.5677  16.6361
    16.6494  16.7280  16.7393  16.7541  16.8172  16.8322  16.9556  17.0261
    17.0287  17.0576  17.0859  17.1433  17.1673  17.2855  17.2903  17.4212
    17.4935  17.5302  17.5749  17.6044  17.6628  17.7143  17.7366  17.8125
    17.8404  17.8704  17.8783  18.0036  18.0044  18.0695  18.0731  18.1033
    18.1114  18.1611  18.1632  18.1998  18.2151  18.2896  18.2920  18.3149
    18.3691  18.3847  18.4344  18.4437  18.5185  18.5455  18.5546  18.6160
    18.6347  18.6716  18.7177  18.7464  18.8035  18.8134

          k = 0.5196 0.3464 0.1732 ( 24002 PWs)   bands (ev):

   -63.8448 -63.8447 -63.8447 -63.8447 -62.6609 -62.6388 -62.6383 -62.6381
   -62.6154 -62.6152 -62.5707 -62.5705 -62.5704 -62.5478 -62.5477 -62.5476
   -62.0163 -61.0391 -61.0360 -61.0291 -61.0202 -61.0158 -61.0095 -61.0052
   -61.0045 -61.0041 -61.0020 -61.0020 -61.0019 -32.5776 -32.5774 -32.5773
   -32.5761 -32.5759 -32.5758 -32.5754 -32.5754 -32.5363 -32.5363 -32.5357
   -32.5348 -31.6102 -31.5459 -31.5434 -31.5417 -31.4908 -31.4901 -31.4839
   -31.4776 -31.4746 -31.4712 -31.4449 -31.4443 -31.4430 -31.4166 -31.4157
   -31.4151 -31.4124 -31.4113 -31.2915 -31.2895 -31.2872 -31.2814 -31.2804
   -31.2768 -31.2696 -31.2676 -31.2672 -31.2627 -31.2608 -31.2543 -31.0980
   -31.0976 -31.0968 -31.0200 -31.0199 -31.0198 -30.7277 -30.7277 -30.7276
   -29.9240 -29.9021 -29.8879 -29.8732 -29.8638 -29.8599 -29.8584 -29.8471
   -29.8432 -29.8399 -29.8381 -29.8328 -29.8241 -29.8123 -29.8052 -29.7948
   -29.7869 -29.7849 -29.7681 -29.7614 -29.7573 -29.7541 -29.7474 -29.7451
   -29.7235 -29.7026 -29.6968 -29.6943 -29.6887 -29.6885 -29.6854 -29.6692
   -29.6650 -29.6531 -29.6491 -29.6459  10.3068  10.3160  11.0392  11.6821
    12.2365  12.5884  12.6539  12.6830  12.9840  13.0838  13.1153  13.1162
    13.1677  13.2058  13.2240  13.3142  13.3567  13.4172  13.4643  13.4777
    13.5897  13.6265  13.6738  13.8867  13.9441  13.9531  14.0697  14.1541
    14.1568  14.2025  14.2110  14.2963  14.3021  14.3271  14.3556  14.3560
    14.3780  14.4469  14.4653  14.5678  14.6226  14.7025  14.7149  14.7669
    14.7753  14.8356  14.8528  14.9428  14.9800  15.0013  15.0212  15.0404
    15.0588  15.1026  15.1113  15.1613  15.1686  15.1979  15.2156  15.2565
    15.2719  15.3020  15.3202  15.3744  15.3842  15.4104  15.4640  15.4767
    15.4940  15.5302  15.5990  15.6724  15.7174  15.7303  15.7518  15.8443
    15.8675  15.9122  15.9343  16.0758  16.0827  16.1281  16.1708  16.1772
    16.2917  16.3418  16.3610  16.4004  16.4529  16.5077  16.6061  16.6321
    16.6426  16.6855  16.7491  16.7817  16.8181  16.8528  16.8538  16.9966
    17.0172  17.1006  17.1148  17.1889  17.2258  17.2346  17.3390  17.3767
    17.4782  17.5206  17.5636  17.5944  17.6285  17.6452  17.7043  17.8269
    17.8627  17.8933  17.9327  17.9884  18.0346  18.0557  18.0904  18.0978
    18.1323  18.1702  18.1862  18.2165  18.2433  18.2914  18.2970  18.3410
    18.3805  18.4049  18.4570  18.4937  18.5667  18.5696  18.6078  18.6320
    18.6842  18.7056  18.7255  18.7304  18.7871  18.8406

          k = 0.3464 0.3464 0.3464 ( 23968 PWs)   bands (ev):

   -63.8448 -63.8447 -63.8447 -63.8447 -62.6608 -62.6387 -62.6383 -62.6383
   -62.6152 -62.6152 -62.5706 -62.5706 -62.5704 -62.5478 -62.5477 -62.5477
   -62.0163 -61.0390 -61.0336 -61.0336 -61.0173 -61.0131 -61.0131 -61.0047
   -61.0047 -61.0044 -61.0020 -61.0020 -61.0018 -32.5774 -32.5774 -32.5772
   -32.5760 -32.5760 -32.5757 -32.5756 -32.5756 -32.5363 -32.5357 -32.5357
   -32.5354 -31.6104 -31.5452 -31.5430 -31.5430 -31.4900 -31.4900 -31.4825
   -31.4762 -31.4762 -31.4722 -31.4449 -31.4449 -31.4438 -31.4160 -31.4154
   -31.4154 -31.4120 -31.4120 -31.2909 -31.2909 -31.2886 -31.2803 -31.2779
   -31.2779 -31.2680 -31.2680 -31.2664 -31.2632 -31.2632 -31.2536 -31.0978
   -31.0978 -31.0971 -31.0198 -31.0198 -31.0198 -30.7277 -30.7277 -30.7276
   -29.9092 -29.9092 -29.8926 -29.8687 -29.8687 -29.8646 -29.8490 -29.8490
   -29.8403 -29.8403 -29.8393 -29.8287 -29.8228 -29.8228 -29.8019 -29.7989
   -29.7989 -29.7897 -29.7619 -29.7619 -29.7557 -29.7494 -29.7494 -29.7458
   -29.7081 -29.7081 -29.6966 -29.6966 -29.6926 -29.6908 -29.6819 -29.6642
   -29.6642 -29.6550 -29.6486 -29.6486  10.1573  10.8943  10.9054  10.9054
    12.7465  12.8213  12.8213  12.9115  12.9638  12.9989  12.9989  13.1270
    13.1316  13.1316  13.2567  13.2567  13.3095  13.4023  13.4023  13.4111
    13.5909  13.5909  13.8029  13.8029  13.9345  14.0816  14.0816  14.1000
    14.1580  14.1580  14.2139  14.2849  14.3116  14.3504  14.3504  14.3535
    14.4252  14.4252  14.5226  14.5226  14.5972  14.6651  14.6651  14.8078
    14.8256  14.8256  14.8841  14.9114  14.9114  15.0046  15.0046  15.0580
    15.0870  15.0870  15.1366  15.1629  15.1629  15.1660  15.2347  15.2347
    15.2979  15.3007  15.3247  15.3247  15.3826  15.3826  15.5002  15.5002
    15.5131  15.5862  15.5862  15.6450  15.6682  15.6682  15.7607  15.7698
    15.7698  15.8936  15.9661  15.9661  16.0335  16.1475  16.1475  16.2042
    16.3379  16.3379  16.3498  16.3997  16.3997  16.5442  16.6154  16.6154
    16.6938  16.6938  16.7129  16.7839  16.8066  16.8066  16.9437  16.9437
    17.0189  17.1517  17.1604  17.1604  17.1986  17.3320  17.3320  17.4681
    17.4922  17.4922  17.5015  17.5887  17.5887  17.6538  17.8162  17.8162
    17.8176  17.8947  17.8947  18.0315  18.0561  18.0561  18.1290  18.1445
    18.1445  18.1959  18.1959  18.2444  18.2674  18.3194  18.3194  18.3895
    18.3927  18.3970  18.3970  18.6142  18.6142  18.6152  18.6323  18.6599
    18.6599  18.7484  18.7484  18.8175  18.8192  18.8192

          k = 0.0000 0.0000 0.3464 ( 24055 PWs)   bands (ev):

   -63.8448 -63.8447 -63.8447 -63.8447 -62.6613 -62.6384 -62.6381 -62.6381
   -62.6155 -62.6152 -62.5705 -62.5704 -62.5704 -62.5478 -62.5478 -62.5478
   -62.0163 -61.0436 -61.0303 -61.0242 -61.0242 -61.0182 -61.0103 -61.0048
   -61.0039 -61.0039 -61.0020 -61.0020 -61.0020 -32.5777 -32.5772 -32.5772
   -32.5767 -32.5759 -32.5755 -32.5755 -32.5751 -32.5368 -32.5358 -32.5358
   -32.5347 -31.6115 -31.5436 -31.5423 -31.5423 -31.4922 -31.4912 -31.4840
   -31.4769 -31.4769 -31.4710 -31.4436 -31.4436 -31.4424 -31.4175 -31.4157
   -31.4157 -31.4115 -31.4093 -31.2892 -31.2892 -31.2878 -31.2821 -31.2821
   -31.2816 -31.2708 -31.2656 -31.2656 -31.2650 -31.2591 -31.2534 -31.0974
   -31.0974 -31.0968 -31.0200 -31.0198 -31.0198 -30.7277 -30.7277 -30.7276
   -29.9211 -29.8943 -29.8767 -29.8767 -29.8669 -29.8558 -29.8558 -29.8551
   -29.8408 -29.8402 -29.8348 -29.8337 -29.8337 -29.8246 -29.8100 -29.7850
   -29.7832 -29.7832 -29.7642 -29.7637 -29.7636 -29.7636 -29.7443 -29.7345
   -29.7333 -29.7333 -29.6933 -29.6933 -29.6924 -29.6755 -29.6719 -29.6719
   -29.6618 -29.6578 -29.6421 -29.6421   9.5126  11.6175  11.6175  11.7529
    11.7739  12.5223  12.6844  12.7060  12.7060  12.9384  13.0844  13.1211
    13.1211  13.2151  13.2151  13.2288  13.2324  13.3517  13.4976  13.6103
    13.6141  13.6141  13.7070  13.8405  13.8405  13.9265  14.0508  14.0856
    14.0856  14.1502  14.1989  14.1989  14.2033  14.3588  14.3588  14.3771
    14.4029  14.4525  14.5603  14.5603  14.5620  14.6279  14.7507  14.7857
    14.7991  14.8039  14.8039  14.8715  14.8961  14.9120  14.9120  14.9983
    15.0706  15.0807  15.0807  15.1297  15.1297  15.1898  15.2301  15.2458
    15.3031  15.3221  15.3221  15.3918  15.4477  15.4477  15.5360  15.5730
    15.5730  15.6410  15.6501  15.7172  15.7359  15.7359  15.8125  15.9346
    15.9711  16.0115  16.0115  16.0743  16.0743  16.0822  16.1133  16.2563
    16.3092  16.3876  16.4449  16.4449  16.4453  16.5182  16.5868  16.5868
    16.5886  16.7082  16.7775  16.7775  16.8699  16.8947  16.8947  16.9522
    17.0143  17.0217  17.1323  17.1323  17.1939  17.2651  17.3182  17.3182
    17.4684  17.5101  17.5820  17.6075  17.6075  17.6104  17.8454  17.8454
    17.8470  17.8472  17.9392  18.0034  18.0034  18.0040  18.0656  18.0913
    18.0962  18.0962  18.1253  18.1481  18.1481  18.1992  18.3215  18.3215
    18.3267  18.4398  18.4558  18.4808  18.4808  18.5340  18.5340  18.5833
    18.6336  18.6396  18.6396  18.7150  18.8017  18.8393

          k = 0.0000-0.1732 0.5196 ( 23990 PWs)   bands (ev):

   -63.8448 -63.8447 -63.8447 -63.8447 -62.6609 -62.6386 -62.6381 -62.6381
   -62.6157 -62.6154 -62.5707 -62.5706 -62.5705 -62.5477 -62.5476 -62.5475
   -62.0163 -61.0404 -61.0346 -61.0248 -61.0242 -61.0186 -61.0074 -61.0055
   -61.0042 -61.0040 -61.0020 -61.0020 -61.0019 -32.5778 -32.5775 -32.5775
   -32.5762 -32.5758 -32.5757 -32.5753 -32.5751 -32.5366 -32.5362 -32.5360
   -32.5343 -31.6100 -31.5455 -31.5430 -31.5424 -31.4917 -31.4908 -31.4864
   -31.4756 -31.4747 -31.4709 -31.4438 -31.4437 -31.4422 -31.4174 -31.4159
   -31.4153 -31.4128 -31.4108 -31.2897 -31.2888 -31.2864 -31.2821 -31.2811
   -31.2785 -31.2713 -31.2683 -31.2682 -31.2612 -31.2580 -31.2554 -31.0976
   -31.0976 -31.0967 -31.0201 -31.0199 -31.0199 -30.7277 -30.7277 -30.7277
   -29.9337 -29.8982 -29.8849 -29.8813 -29.8692 -29.8599 -29.8561 -29.8515
   -29.8397 -29.8376 -29.8310 -29.8292 -29.8220 -29.8107 -29.8026 -29.7932
   -29.7771 -29.7722 -29.7715 -29.7672 -29.7624 -29.7612 -29.7436 -29.7419
   -29.7317 -29.7155 -29.6954 -29.6933 -29.6916 -29.6817 -29.6800 -29.6730
   -29.6695 -29.6542 -29.6462 -29.6444   9.9988  10.7556  11.3634  11.5181
    12.0263  12.4067  12.5168  12.5529  12.9745  13.0259  13.1404  13.1752
    13.2105  13.2338  13.2466  13.3176  13.3727  13.4110  13.4610  13.5388
    13.5812  13.6303  13.7378  13.9057  13.9542  13.9870  14.0483  14.1149
    14.1341  14.1642  14.1959  14.2204  14.2824  14.3056  14.3591  14.3911
    14.4172  14.4765  14.5124  14.5692  14.6220  14.6516  14.7174  14.7601
    14.7992  14.8252  14.8451  14.8807  14.9440  14.9533  14.9932  15.0402
    15.0467  15.0899  15.0960  15.1523  15.1827  15.1980  15.2129  15.2436
    15.2806  15.3090  15.3258  15.3862  15.4095  15.4462  15.4925  15.5283
    15.5678  15.6178  15.6414  15.6878  15.7352  15.8000  15.8029  15.8661
    15.8965  15.9780  16.0478  16.0554  16.1126  16.1280  16.1622  16.2186
    16.2616  16.2970  16.3756  16.4342  16.4647  16.5143  16.5806  16.6226
    16.6704  16.7031  16.7289  16.7884  16.8293  16.8378  16.9289  16.9613
    17.0311  17.0470  17.0694  17.1512  17.1842  17.2386  17.2646  17.3104
    17.4430  17.5238  17.5531  17.5762  17.6487  17.6735  17.7576  17.7649
    17.8094  17.8799  17.9251  17.9434  17.9824  18.0031  18.0424  18.0978
    18.1193  18.1465  18.1653  18.1719  18.1865  18.2832  18.3092  18.3476
    18.3580  18.4261  18.4488  18.4608  18.5275  18.5388  18.5681  18.6240
    18.6564  18.6611  18.6951  18.7217  18.7425  18.8437

          k =-0.6928-0.1732-0.1732 ( 24013 PWs)   bands (ev):

   -63.8448 -63.8447 -63.8447 -63.8447 -62.6607 -62.6384 -62.6384 -62.6380
   -62.6157 -62.6157 -62.5708 -62.5706 -62.5706 -62.5476 -62.5476 -62.5475
   -62.0163 -61.0373 -61.0373 -61.0265 -61.0212 -61.0212 -61.0060 -61.0058
   -61.0041 -61.0041 -61.0020 -61.0020 -61.0019 -32.5777 -32.5776 -32.5776
   -32.5759 -32.5759 -32.5759 -32.5751 -32.5751 -32.5364 -32.5364 -32.5363
   -32.5340 -31.6093 -31.5447 -31.5447 -31.5425 -31.4913 -31.4913 -31.4880
   -31.4749 -31.4723 -31.4723 -31.4436 -31.4425 -31.4425 -31.4166 -31.4166
   -31.4157 -31.4122 -31.4122 -31.2895 -31.2869 -31.2869 -31.2812 -31.2812
   -31.2783 -31.2712 -31.2700 -31.2700 -31.2580 -31.2580 -31.2567 -31.0978
   -31.0971 -31.0971 -31.0201 -31.0200 -31.0200 -30.7277 -30.7277 -30.7277
   -29.9400 -29.8941 -29.8941 -29.8840 -29.8709 -29.8591 -29.8591 -29.8507
   -29.8385 -29.8385 -29.8254 -29.8254 -29.8172 -29.8004 -29.7952 -29.7952
   -29.7773 -29.7773 -29.7744 -29.7652 -29.7652 -29.7576 -29.7422 -29.7422
   -29.7295 -29.7052 -29.7052 -29.6919 -29.6919 -29.6892 -29.6844 -29.6721
   -29.6721 -29.6485 -29.6485 -29.6469  10.5999  10.6132  10.6132  11.8958
    11.9272  11.9272  12.4025  12.8442  13.0620  13.0731  13.0731  13.1769
    13.2586  13.2586  13.2981  13.3698  13.3698  13.3943  13.4561  13.4561
    13.5743  13.7278  13.7278  13.9652  14.0043  14.0043  14.0911  14.1257
    14.1257  14.1522  14.1522  14.2146  14.2816  14.2816  14.3738  14.3738
    14.3840  14.5035  14.5035  14.5738  14.5738  14.7254  14.7254  14.7799
    14.8085  14.8128  14.8736  14.8736  14.9347  14.9347  14.9907  15.0543
    15.0543  15.0967  15.0967  15.1225  15.1907  15.1907  15.2289  15.2289
    15.2350  15.3672  15.3672  15.3975  15.3975  15.4188  15.4946  15.5494
    15.5536  15.6335  15.6335  15.7651  15.7765  15.7894  15.7894  15.8763
    15.8763  15.9886  15.9886  16.1019  16.1152  16.1152  16.2266  16.2644
    16.2644  16.3893  16.3893  16.4012  16.4124  16.5213  16.5213  16.6393
    16.6767  16.7059  16.7059  16.7175  16.7771  16.8764  16.8764  17.0056
    17.0056  17.0596  17.0596  17.1171  17.2114  17.2341  17.2341  17.3791
    17.3791  17.4552  17.5854  17.5854  17.6411  17.6551  17.6551  17.8312
    17.8312  17.8772  17.9314  17.9314  17.9488  17.9539  18.0278  18.0278
    18.1178  18.1178  18.1569  18.1876  18.2187  18.2187  18.3560  18.3566
    18.3642  18.3642  18.4457  18.4457  18.5324  18.5510  18.6313  18.6313
    18.6825  18.6825  18.6879  18.7640  18.7640  18.9039

          k = 0.0000 0.0000 0.6928 ( 23970 PWs)   bands (ev):

   -63.8447 -63.8447 -63.8447 -63.8447 -62.6607 -62.6383 -62.6381 -62.6381
   -62.6159 -62.6158 -62.5707 -62.5707 -62.5707 -62.5475 -62.5475 -62.5475
   -62.0163 -61.0379 -61.0357 -61.0241 -61.0241 -61.0228 -61.0060 -61.0048
   -61.0040 -61.0040 -61.0020 -61.0020 -61.0020 -32.5779 -32.5778 -32.5778
   -32.5760 -32.5758 -32.5758 -32.5750 -32.5749 -32.5366 -32.5364 -32.5364
   -32.5338 -31.6087 -31.5445 -31.5439 -31.5439 -31.4921 -31.4917 -31.4898
   -31.4730 -31.4730 -31.4721 -31.4422 -31.4422 -31.4417 -31.4171 -31.4160
   -31.4160 -31.4135 -31.4123 -31.2868 -31.2868 -31.2863 -31.2807 -31.2807
   -31.2804 -31.2727 -31.2713 -31.2713 -31.2583 -31.2567 -31.2554 -31.0973
   -31.0973 -31.0971 -31.0202 -31.0201 -31.0201 -30.7277 -30.7277 -30.7277
   -29.9465 -29.8947 -29.8922 -29.8922 -29.8734 -29.8571 -29.8571 -29.8570
   -29.8391 -29.8379 -29.8151 -29.8151 -29.8151 -29.8025 -29.7938 -29.7852
   -29.7764 -29.7764 -29.7703 -29.7658 -29.7641 -29.7641 -29.7402 -29.7335
   -29.7335 -29.7241 -29.7064 -29.6909 -29.6909 -29.6878 -29.6790 -29.6775
   -29.6775 -29.6494 -29.6464 -29.6464  10.4588  11.0953  11.0953  11.2463
    11.2692  11.8033  12.7073  12.9645  13.0417  13.0417  13.1252  13.2177
    13.2686  13.2686  13.3643  13.3643  13.3851  13.3919  13.4326  13.4517
    13.4517  13.7822  13.8743  13.9927  13.9927  14.0612  14.0612  14.0677
    14.0725  14.1529  14.2061  14.2061  14.2448  14.3171  14.3510  14.4159
    14.4231  14.4231  14.4924  14.5437  14.5904  14.6952  14.6952  14.7470
    14.8093  14.8093  14.8582  14.8823  14.8833  14.8833  14.9705  15.0481
    15.0481  15.0881  15.1099  15.1224  15.1224  15.1380  15.2180  15.2783
    15.3685  15.3708  15.3708  15.4594  15.4594  15.4755  15.5475  15.5611
    15.6524  15.7142  15.7142  15.7651  15.7651  15.7794  15.7934  15.8004
    15.8154  16.0430  16.0430  16.1086  16.2080  16.2080  16.2443  16.2564
    16.2695  16.3577  16.3867  16.3867  16.4500  16.5197  16.5197  16.6008
    16.6018  16.7311  16.7325  16.7325  16.7929  16.7935  16.7935  16.9535
    17.0340  17.0862  17.1335  17.1335  17.1545  17.1920  17.1920  17.2871
    17.3223  17.5331  17.5756  17.5756  17.6387  17.6519  17.7389  17.7694
    17.7874  17.7874  17.9145  17.9145  17.9167  17.9457  17.9950  17.9992
    17.9992  18.0366  18.0973  18.2271  18.2271  18.2416  18.3396  18.3517
    18.3517  18.4877  18.4877  18.5115  18.5336  18.6066  18.6100  18.6100
    18.6877  18.6953  18.7180  18.7180  18.7339  18.8586

     the Fermi energy is    17.1457 ev

!    total energy              =   -6201.27307609 Ry
     Harris-Foulkes estimate   =   -6201.27307683 Ry
     estimated scf accuracy    <       0.00000456 Ry

     The total energy is the sum of the following terms:

     one-electron contribution =   -2663.81436037 Ry
     hartree contribution      =    1565.23866040 Ry
     xc contribution           =    -807.59943491 Ry
     ewald contribution        =   -4295.09826823 Ry
     smearing contrib. (-TS)   =       0.00032701 Ry

     total magnetization       =    -3.36 Bohr mag/cell
     absolute magnetization    =    48.56 Bohr mag/cell

     convergence has been achieved in  56 iterations

     Writing output data file mn-8.96.save/

     init_run     :    206.54s CPU    207.28s WALL (       1 calls)
     electrons    :  32096.27s CPU  32251.45s WALL (       1 calls)

     Called by init_run:
     wfcinit      :    199.02s CPU    199.53s WALL (       1 calls)
     potinit      :      1.03s CPU      1.08s WALL (       1 calls)
     hinit0       :      0.54s CPU      0.54s WALL (       1 calls)

     Called by electrons:
     c_bands      :  28984.66s CPU  29111.07s WALL (      56 calls)
     sum_band     :   2769.37s CPU   2788.49s WALL (      56 calls)
     v_of_rho     :     46.20s CPU     47.73s WALL (      57 calls)
     newd         :    289.24s CPU    297.23s WALL (      57 calls)
     mix_rho      :      8.12s CPU      8.28s WALL (      56 calls)

     Called by c_bands:
     init_us_2    :     37.21s CPU     37.32s WALL (    2260 calls)
     cegterg      :  28778.09s CPU  28903.13s WALL (    1120 calls)

     Called by sum_band:
     sum_band:bec :      4.75s CPU      4.76s WALL (    1120 calls)
     addusdens    :    349.42s CPU    357.77s WALL (      56 calls)

     Called by *egterg:
     h_psi        :  10643.55s CPU  10704.27s WALL (    4276 calls)
     s_psi        :   4530.58s CPU   4532.52s WALL (    4276 calls)
     g_psi        :     10.52s CPU     10.54s WALL (    3136 calls)
     cdiaghg      :   2136.24s CPU   2139.27s WALL (    4256 calls)

     Called by h_psi:
     h_psi:pot    :  10631.24s CPU  10680.58s WALL (    4276 calls)
     h_psi:calbec :   4483.10s CPU   4485.84s WALL (    4276 calls)
     vloc_psi     :   1620.09s CPU   1665.70s WALL (    4276 calls)
     add_vuspsi   :   4527.99s CPU   4529.01s WALL (    4276 calls)

     General routines
     calbec       :   6478.00s CPU   6481.98s WALL (    5396 calls)
     fft          :     33.29s CPU     34.41s WALL (    1419 calls)
     ffts         :      0.77s CPU      0.80s WALL (     226 calls)
     fftw         :   1796.82s CPU   1846.20s WALL ( 1611386 calls)
     interpolate  :      3.41s CPU      3.50s WALL (     114 calls)

     Parallel routines
     fft_scatt_xy :    190.70s CPU    195.74s WALL ( 1613031 calls)
     fft_scatt_yz :    798.21s CPU    822.15s WALL ( 1613031 calls)

     PWSCF        :      8h58m CPU      9h 1m WALL


   This run was terminated on:  14:40: 7   7Aug2022            

=------------------------------------------------------------------------------=
   JOB DONE.
=------------------------------------------------------------------------------=
