
     Program PWSCF v.6.4.1 starts on 17Mar2022 at 21:36:52 

     This program is part of the open-source Quantum ESPRESSO suite
     for quantum simulation of materials; please cite
         "P. Giannozzi et al., J. Phys.:Condens. Matter 21 395502 (2009);
         "P. Giannozzi et al., J. Phys.:Condens. Matter 29 465901 (2017);
          URL http://www.quantum-espresso.org", 
     in publications or presentations arising from this work. More details at
     http://www.quantum-espresso.org/quote

     Parallel version (MPI), running on     6 processors

     MPI processes distributed on     1 nodes
     R & G space division:  proc/nbgrp/npool/nimage =       6
     Reading input from gr-100.in

     Current dimensions of program PWSCF are:
     Max number of different atomic species (ntypx) = 10
     Max number of k-points (npk) =  40000
     Max angular momentum in pseudopotentials (lmaxx) =  3

     Subspace diagonalization in iterative solution of the eigenvalue problem:
     a serial algorithm will be used


     Parallelization info
     --------------------
     sticks:   dense  smooth     PW     G-vecs:    dense   smooth      PW
     Min          98      98     27                 7971     7971    1250
     Max         100     100     29                 7982     7982    1266
     Sum         595     595    169                47851    47851    7529



     bravais-lattice index     =            4
     lattice parameter (alat)  =       4.6544  a.u.
     unit-cell volume          =     354.5325 (a.u.)^3
     number of atoms/cell      =            2
     number of atomic types    =            1
     number of electrons       =         8.00
     number of Kohn-Sham states=            8
     kinetic-energy cutoff     =     100.0000  Ry
     charge density cutoff     =     400.0000  Ry
     convergence threshold     =      1.0E-06
     mixing beta               =       0.7000
     number of iterations used =            8  plain     mixing
     Exchange-correlation      = PBE ( 1  4  3  4 0 0)

     celldm(1)=   4.654395  celldm(2)=   0.000000  celldm(3)=   4.060089
     celldm(4)=   0.000000  celldm(5)=   0.000000  celldm(6)=   0.000000

     crystal axes: (cart. coord. in units of alat)
               a(1) = (   1.000000   0.000000   0.000000 )  
               a(2) = (  -0.500000   0.866025   0.000000 )  
               a(3) = (   0.000000   0.000000   4.060089 )  

     reciprocal axes: (cart. coord. in units 2 pi/alat)
               b(1) = (  1.000000  0.577350 -0.000000 )  
               b(2) = (  0.000000  1.154701  0.000000 )  
               b(3) = (  0.000000 -0.000000  0.246300 )  


     PseudoPot. # 1 for C  read from file:
     /home/cristian/Escritorio/Proyecto_Grafeno/pseudopotenciales/C.pbe-n-rrkjus_psl.1.0.0.UPF
     MD5 check sum: 1fdd950c42eb37d8afe3dd2f8d12311e
     Pseudo is Ultrasoft + core correction, Zval =  4.0
     Generated using "atomic" code by A. Dal Corso v.6.3MaX
     Using radial grid of 1073 points,  4 beta functions with: 
                l(1) =   0
                l(2) =   0
                l(3) =   1
                l(4) =   1
     Q(r) pseudized with 0 coefficients 


     atomic species   valence    mass     pseudopotential
        C              4.00    12.01070     C ( 1.00)

     24 Sym. Ops., with inversion, found (12 have fractional translation)


                                    s                        frac. trans.

      isym =  1     identity                                     

 cryst.   s( 1) = (     1          0          0      )
                  (     0          1          0      )
                  (     0          0          1      )

 cart.    s( 1) = (  1.0000000  0.0000000  0.0000000 )
                  (  0.0000000  1.0000000  0.0000000 )
                  (  0.0000000  0.0000000  1.0000000 )


      isym =  2     180 deg rotation - cart. axis [0,0,1]        

 cryst.   s( 2) = (    -1          0          0      )    f =( -0.3333333 )
                  (     0         -1          0      )       (  0.3333333 )
                  (     0          0          1      )       (  0.0000000 )

 cart.    s( 2) = ( -1.0000000  0.0000000  0.0000000 )    f =( -0.5000000 )
                  (  0.0000000 -1.0000000  0.0000000 )       (  0.2886751 )
                  (  0.0000000  0.0000000  1.0000000 )       (  0.0000000 )


      isym =  3     180 deg rotation - cart. axis [0,1,0]        

 cryst.   s( 3) = (    -1          0          0      )
                  (     1          1          0      )
                  (     0          0         -1      )

 cart.    s( 3) = ( -1.0000000  0.0000000  0.0000000 )
                  (  0.0000000  1.0000000  0.0000000 )
                  (  0.0000000  0.0000000 -1.0000000 )


      isym =  4     180 deg rotation - cart. axis [1,0,0]        

 cryst.   s( 4) = (     1          0          0      )    f =( -0.3333333 )
                  (    -1         -1          0      )       (  0.3333333 )
                  (     0          0         -1      )       (  0.0000000 )

 cart.    s( 4) = (  1.0000000  0.0000000  0.0000000 )    f =( -0.5000000 )
                  (  0.0000000 -1.0000000  0.0000000 )       (  0.2886751 )
                  (  0.0000000  0.0000000 -1.0000000 )       (  0.0000000 )


      isym =  5      60 deg rotation - cryst. axis [0,0,1]       

 cryst.   s( 5) = (     1          1          0      )    f =( -0.3333333 )
                  (    -1          0          0      )       (  0.3333333 )
                  (     0          0          1      )       (  0.0000000 )

 cart.    s( 5) = (  0.5000000 -0.8660254  0.0000000 )    f =( -0.5000000 )
                  (  0.8660254  0.5000000  0.0000000 )       (  0.2886751 )
                  (  0.0000000  0.0000000  1.0000000 )       (  0.0000000 )


      isym =  6      60 deg rotation - cryst. axis [0,0,-1]      

 cryst.   s( 6) = (     0         -1          0      )    f =( -0.3333333 )
                  (     1          1          0      )       (  0.3333333 )
                  (     0          0          1      )       (  0.0000000 )

 cart.    s( 6) = (  0.5000000  0.8660254  0.0000000 )    f =( -0.5000000 )
                  ( -0.8660254  0.5000000  0.0000000 )       (  0.2886751 )
                  (  0.0000000  0.0000000  1.0000000 )       (  0.0000000 )


      isym =  7     120 deg rotation - cryst. axis [0,0,1]       

 cryst.   s( 7) = (     0          1          0      )
                  (    -1         -1          0      )
                  (     0          0          1      )

 cart.    s( 7) = ( -0.5000000 -0.8660254  0.0000000 )
                  (  0.8660254 -0.5000000  0.0000000 )
                  (  0.0000000  0.0000000  1.0000000 )


      isym =  8     120 deg rotation - cryst. axis [0,0,-1]      

 cryst.   s( 8) = (    -1         -1          0      )
                  (     1          0          0      )
                  (     0          0          1      )

 cart.    s( 8) = ( -0.5000000  0.8660254  0.0000000 )
                  ( -0.8660254 -0.5000000  0.0000000 )
                  (  0.0000000  0.0000000  1.0000000 )


      isym =  9     180 deg rotation - cryst. axis [1,-1,0]      

 cryst.   s( 9) = (     0         -1          0      )
                  (    -1          0          0      )
                  (     0          0         -1      )

 cart.    s( 9) = (  0.5000000 -0.8660254  0.0000000 )
                  ( -0.8660254 -0.5000000  0.0000000 )
                  (  0.0000000  0.0000000 -1.0000000 )


      isym = 10     180 deg rotation - cryst. axis [2,1,0]       

 cryst.   s(10) = (     1          1          0      )
                  (     0         -1          0      )
                  (     0          0         -1      )

 cart.    s(10) = (  0.5000000  0.8660254  0.0000000 )
                  (  0.8660254 -0.5000000  0.0000000 )
                  (  0.0000000  0.0000000 -1.0000000 )


      isym = 11     180 deg rotation - cryst. axis [0,1,0]       

 cryst.   s(11) = (    -1         -1          0      )    f =( -0.3333333 )
                  (     0          1          0      )       (  0.3333333 )
                  (     0          0         -1      )       (  0.0000000 )

 cart.    s(11) = ( -0.5000000 -0.8660254  0.0000000 )    f =( -0.5000000 )
                  ( -0.8660254  0.5000000  0.0000000 )       (  0.2886751 )
                  (  0.0000000  0.0000000 -1.0000000 )       (  0.0000000 )


      isym = 12     180 deg rotation - cryst. axis [1,1,0]       

 cryst.   s(12) = (     0          1          0      )    f =( -0.3333333 )
                  (     1          0          0      )       (  0.3333333 )
                  (     0          0         -1      )       (  0.0000000 )

 cart.    s(12) = ( -0.5000000  0.8660254  0.0000000 )    f =( -0.5000000 )
                  (  0.8660254  0.5000000  0.0000000 )       (  0.2886751 )
                  (  0.0000000  0.0000000 -1.0000000 )       (  0.0000000 )


      isym = 13     inversion                                    

 cryst.   s(13) = (    -1          0          0      )    f =( -0.3333333 )
                  (     0         -1          0      )       (  0.3333333 )
                  (     0          0         -1      )       (  0.0000000 )

 cart.    s(13) = ( -1.0000000  0.0000000  0.0000000 )    f =( -0.5000000 )
                  (  0.0000000 -1.0000000  0.0000000 )       (  0.2886751 )
                  (  0.0000000  0.0000000 -1.0000000 )       (  0.0000000 )


      isym = 14     inv. 180 deg rotation - cart. axis [0,0,1]   

 cryst.   s(14) = (     1          0          0      )
                  (     0          1          0      )
                  (     0          0         -1      )

 cart.    s(14) = (  1.0000000  0.0000000  0.0000000 )
                  (  0.0000000  1.0000000  0.0000000 )
                  (  0.0000000  0.0000000 -1.0000000 )


      isym = 15     inv. 180 deg rotation - cart. axis [0,1,0]   

 cryst.   s(15) = (     1          0          0      )    f =( -0.3333333 )
                  (    -1         -1          0      )       (  0.3333333 )
                  (     0          0          1      )       (  0.0000000 )

 cart.    s(15) = (  1.0000000  0.0000000  0.0000000 )    f =( -0.5000000 )
                  (  0.0000000 -1.0000000  0.0000000 )       (  0.2886751 )
                  (  0.0000000  0.0000000  1.0000000 )       (  0.0000000 )


      isym = 16     inv. 180 deg rotation - cart. axis [1,0,0]   

 cryst.   s(16) = (    -1          0          0      )
                  (     1          1          0      )
                  (     0          0          1      )

 cart.    s(16) = ( -1.0000000  0.0000000  0.0000000 )
                  (  0.0000000  1.0000000  0.0000000 )
                  (  0.0000000  0.0000000  1.0000000 )


      isym = 17     inv.  60 deg rotation - cryst. axis [0,0,1]  

 cryst.   s(17) = (    -1         -1          0      )
                  (     1          0          0      )
                  (     0          0         -1      )

 cart.    s(17) = ( -0.5000000  0.8660254  0.0000000 )
                  ( -0.8660254 -0.5000000  0.0000000 )
                  (  0.0000000  0.0000000 -1.0000000 )


      isym = 18     inv.  60 deg rotation - cryst. axis [0,0,-1] 

 cryst.   s(18) = (     0          1          0      )
                  (    -1         -1          0      )
                  (     0          0         -1      )

 cart.    s(18) = ( -0.5000000 -0.8660254  0.0000000 )
                  (  0.8660254 -0.5000000  0.0000000 )
                  (  0.0000000  0.0000000 -1.0000000 )


      isym = 19     inv. 120 deg rotation - cryst. axis [0,0,1]  

 cryst.   s(19) = (     0         -1          0      )    f =( -0.3333333 )
                  (     1          1          0      )       (  0.3333333 )
                  (     0          0         -1      )       (  0.0000000 )

 cart.    s(19) = (  0.5000000  0.8660254  0.0000000 )    f =( -0.5000000 )
                  ( -0.8660254  0.5000000  0.0000000 )       (  0.2886751 )
                  (  0.0000000  0.0000000 -1.0000000 )       (  0.0000000 )


      isym = 20     inv. 120 deg rotation - cryst. axis [0,0,-1] 

 cryst.   s(20) = (     1          1          0      )    f =( -0.3333333 )
                  (    -1          0          0      )       (  0.3333333 )
                  (     0          0         -1      )       (  0.0000000 )

 cart.    s(20) = (  0.5000000 -0.8660254  0.0000000 )    f =( -0.5000000 )
                  (  0.8660254  0.5000000  0.0000000 )       (  0.2886751 )
                  (  0.0000000  0.0000000 -1.0000000 )       (  0.0000000 )


      isym = 21     inv. 180 deg rotation - cryst. axis [1,-1,0] 

 cryst.   s(21) = (     0          1          0      )    f =( -0.3333333 )
                  (     1          0          0      )       (  0.3333333 )
                  (     0          0          1      )       (  0.0000000 )

 cart.    s(21) = ( -0.5000000  0.8660254  0.0000000 )    f =( -0.5000000 )
                  (  0.8660254  0.5000000  0.0000000 )       (  0.2886751 )
                  (  0.0000000  0.0000000  1.0000000 )       (  0.0000000 )


      isym = 22     inv. 180 deg rotation - cryst. axis [2,1,0]  

 cryst.   s(22) = (    -1         -1          0      )    f =( -0.3333333 )
                  (     0          1          0      )       (  0.3333333 )
                  (     0          0          1      )       (  0.0000000 )

 cart.    s(22) = ( -0.5000000 -0.8660254  0.0000000 )    f =( -0.5000000 )
                  ( -0.8660254  0.5000000  0.0000000 )       (  0.2886751 )
                  (  0.0000000  0.0000000  1.0000000 )       (  0.0000000 )


      isym = 23     inv. 180 deg rotation - cryst. axis [0,1,0]  

 cryst.   s(23) = (     1          1          0      )
                  (     0         -1          0      )
                  (     0          0          1      )

 cart.    s(23) = (  0.5000000  0.8660254  0.0000000 )
                  (  0.8660254 -0.5000000  0.0000000 )
                  (  0.0000000  0.0000000  1.0000000 )


      isym = 24     inv. 180 deg rotation - cryst. axis [1,1,0]  

 cryst.   s(24) = (     0         -1          0      )
                  (    -1          0          0      )
                  (     0          0          1      )

 cart.    s(24) = (  0.5000000 -0.8660254  0.0000000 )
                  ( -0.8660254 -0.5000000  0.0000000 )
                  (  0.0000000  0.0000000  1.0000000 )


     point group D_6h(6/mmm)
     there are 12 classes
     the character table:

       E     2C6   2C3   C2    3C2'  3C2'' i     2S3   2S6   s_h   3s_d  3s_v 
A_1g   1.00  1.00  1.00  1.00  1.00  1.00  1.00  1.00  1.00  1.00  1.00  1.00
A_2g   1.00  1.00  1.00  1.00 -1.00 -1.00  1.00  1.00  1.00  1.00 -1.00 -1.00
B_1g   1.00 -1.00  1.00 -1.00  1.00 -1.00  1.00 -1.00  1.00 -1.00  1.00 -1.00
B_2g   1.00 -1.00  1.00 -1.00 -1.00  1.00  1.00 -1.00  1.00 -1.00 -1.00  1.00
E_1g   2.00  1.00 -1.00 -2.00  0.00  0.00  2.00  1.00 -1.00 -2.00  0.00  0.00
E_2g   2.00 -1.00 -1.00  2.00  0.00  0.00  2.00 -1.00 -1.00  2.00  0.00  0.00
A_1u   1.00  1.00  1.00  1.00  1.00  1.00 -1.00 -1.00 -1.00 -1.00 -1.00 -1.00
A_2u   1.00  1.00  1.00  1.00 -1.00 -1.00 -1.00 -1.00 -1.00 -1.00  1.00  1.00
B_1u   1.00 -1.00  1.00 -1.00  1.00 -1.00 -1.00  1.00 -1.00  1.00 -1.00  1.00
B_2u   1.00 -1.00  1.00 -1.00 -1.00  1.00 -1.00  1.00 -1.00  1.00  1.00 -1.00
E_1u   2.00  1.00 -1.00 -2.00  0.00  0.00 -2.00 -1.00  1.00  2.00  0.00  0.00
E_2u   2.00 -1.00 -1.00  2.00  0.00  0.00 -2.00  1.00  1.00 -2.00  0.00  0.00

     the symmetry operations in each class and the name of the first element:

     E        1
          identity                                               
     2C6      5    6
           60 deg rotation - cryst. axis [0,0,1]                 
     2C3      7    8
          120 deg rotation - cryst. axis [0,0,1]                 
     C2       2
          180 deg rotation - cart. axis [0,0,1]                  
     3C2'     4   12   11
          180 deg rotation - cart. axis [1,0,0]                  
     3C2''    3    9   10
          180 deg rotation - cart. axis [0,1,0]                  
     i       13
          inversion                                              
     2S3     17   18
          inv.  60 deg rotation - cryst. axis [0,0,1]            
     2S6     19   20
          inv. 120 deg rotation - cryst. axis [0,0,1]            
     s_h     14
          inv. 180 deg rotation - cart. axis [0,0,1]             
     3s_d    16   24   23
          inv. 180 deg rotation - cart. axis [1,0,0]             
     3s_v    15   21   22
          inv. 180 deg rotation - cart. axis [0,1,0]             

   Cartesian axes

     site n.     atom                  positions (alat units)
         1           C   tau(   1) = (   0.0000000   0.0000000   0.0000000  )
         2           C   tau(   2) = (   0.0000000   0.5773503   0.0000000  )

   Crystallographic axes

     site n.     atom                  positions (cryst. coord.)
         1           C   tau(   1) = (  0.0000000  0.0000000  0.0000000  )
         2           C   tau(   2) = (  0.3333333  0.6666667  0.0000000  )

     number of k points=    14  Marzari-Vanderbilt smearing, width (Ry)=  0.0010
                       cart. coord. in units 2pi/alat
        k(    1) = (   0.0000000   0.0000000   0.0000000), wk =   0.0200000
        k(    2) = (   0.0000000   0.1154701   0.0000000), wk =   0.1200000
        k(    3) = (   0.0000000   0.2309401   0.0000000), wk =   0.1200000
        k(    4) = (   0.0000000   0.3464102   0.0000000), wk =   0.1200000
        k(    5) = (   0.0000000   0.4618802   0.0000000), wk =   0.1200000
        k(    6) = (   0.0000000  -0.5773503   0.0000000), wk =   0.0600000
        k(    7) = (   0.1000000   0.1732051   0.0000000), wk =   0.1200000
        k(    8) = (   0.1000000   0.2886751   0.0000000), wk =   0.2400000
        k(    9) = (   0.1000000   0.4041452   0.0000000), wk =   0.2400000
        k(   10) = (   0.1000000   0.5196152   0.0000000), wk =   0.2400000
        k(   11) = (   0.2000000   0.3464102   0.0000000), wk =   0.1200000
        k(   12) = (   0.2000000   0.4618802   0.0000000), wk =   0.2400000
        k(   13) = (   0.2000000   0.5773503   0.0000000), wk =   0.1200000
        k(   14) = (   0.3000000   0.5196152   0.0000000), wk =   0.1200000

                       cryst. coord.
        k(    1) = (   0.0000000   0.0000000   0.0000000), wk =   0.0200000
        k(    2) = (   0.0000000   0.1000000   0.0000000), wk =   0.1200000
        k(    3) = (   0.0000000   0.2000000   0.0000000), wk =   0.1200000
        k(    4) = (   0.0000000   0.3000000   0.0000000), wk =   0.1200000
        k(    5) = (   0.0000000   0.4000000   0.0000000), wk =   0.1200000
        k(    6) = (   0.0000000  -0.5000000   0.0000000), wk =   0.0600000
        k(    7) = (   0.1000000   0.1000000   0.0000000), wk =   0.1200000
        k(    8) = (   0.1000000   0.2000000   0.0000000), wk =   0.2400000
        k(    9) = (   0.1000000   0.3000000   0.0000000), wk =   0.2400000
        k(   10) = (   0.1000000   0.4000000   0.0000000), wk =   0.2400000
        k(   11) = (   0.2000000   0.2000000   0.0000000), wk =   0.1200000
        k(   12) = (   0.2000000   0.3000000   0.0000000), wk =   0.2400000
        k(   13) = (   0.2000000   0.4000000   0.0000000), wk =   0.1200000
        k(   14) = (   0.3000000   0.3000000   0.0000000), wk =   0.1200000

     Dense  grid:    47851 G-vectors     FFT dimensions: (  30,  30, 125)

     Dynamical RAM for                 wfc:       0.12 MB

     Dynamical RAM for     wfc (w. buffer):       1.83 MB

     Dynamical RAM for           str. fact:       0.12 MB

     Dynamical RAM for           local pot:       0.00 MB

     Dynamical RAM for          nlocal pot:       0.24 MB

     Dynamical RAM for                qrad:       0.34 MB

     Dynamical RAM for          rho,v,vnew:       0.80 MB

     Dynamical RAM for               rhoin:       0.27 MB

     Dynamical RAM for            rho*nmix:       1.95 MB

     Dynamical RAM for           G-vectors:       0.52 MB

     Dynamical RAM for          h,s,v(r/c):       0.05 MB

     Dynamical RAM for          <psi|beta>:       0.00 MB

     Dynamical RAM for                 psi:       0.49 MB

     Dynamical RAM for                hpsi:       0.49 MB

     Dynamical RAM for                spsi:       0.49 MB

     Dynamical RAM for      wfcinit/wfcrot:       0.24 MB

     Dynamical RAM for           addusdens:       5.48 MB

     Estimated static dynamical RAM per process >       7.03 MB

     Estimated max dynamical RAM per process >      12.51 MB

     Estimated total dynamical RAM >      75.04 MB

     Check: negative core charge=   -0.000003

     Initial potential from superposition of free atoms

     starting charge    7.99992, renormalised to    8.00000

     negative rho (up, down):  8.728E-06 0.000E+00
     Starting wfcs are    8 randomized atomic wfcs

     total cpu time spent up to now is        0.7 secs

     Self-consistent Calculation

     iteration #  1     ecut=   100.00 Ry     beta= 0.70
     Davidson diagonalization with overlap
     ethr =  1.00E-02,  avg # of iterations =  5.1

     negative rho (up, down):  2.035E-05 0.000E+00

     total cpu time spent up to now is        1.1 secs

     total energy              =     -24.82611141 Ry
     Harris-Foulkes estimate   =     -24.94880054 Ry
     estimated scf accuracy    <       0.20410758 Ry

     iteration #  2     ecut=   100.00 Ry     beta= 0.70
     Davidson diagonalization with overlap
     ethr =  2.55E-03,  avg # of iterations =  3.0

     negative rho (up, down):  2.903E-05 0.000E+00

     total cpu time spent up to now is        1.5 secs

     total energy              =     -24.85810696 Ry
     Harris-Foulkes estimate   =     -24.85832434 Ry
     estimated scf accuracy    <       0.00254883 Ry

     iteration #  3     ecut=   100.00 Ry     beta= 0.70
     Davidson diagonalization with overlap
     ethr =  3.19E-05,  avg # of iterations =  4.9

     negative rho (up, down):  3.651E-05 0.000E+00

     total cpu time spent up to now is        1.8 secs

     total energy              =     -24.85839707 Ry
     Harris-Foulkes estimate   =     -24.85837434 Ry
     estimated scf accuracy    <       0.00016039 Ry

     iteration #  4     ecut=   100.00 Ry     beta= 0.70
     Davidson diagonalization with overlap
     ethr =  2.00E-06,  avg # of iterations =  2.0

     negative rho (up, down):  3.718E-05 0.000E+00

     total cpu time spent up to now is        2.1 secs

     End of self-consistent calculation

          k = 0.0000 0.0000 0.0000 (  6019 PWs)   bands (ev):

   -19.9971  -8.0953  -3.5186  -3.5186   2.5910   4.2208   5.2715   7.9026

     occupation numbers 
     1.0000   1.0000   1.0000   1.0000   0.0000   0.0000   0.0000   0.0000

          k = 0.0000 0.1155 0.0000 (  6029 PWs)   bands (ev):

   -19.7610  -7.8125  -4.4355  -3.9936   2.9142   4.5406   5.5891   7.9842

     occupation numbers 
     1.0000   1.0000   1.0000   1.0000   0.0000   0.0000   0.0000   0.0000

          k = 0.0000 0.2309 0.0000 (  5987 PWs)   bands (ev):

   -19.0565  -6.9754  -6.6159  -5.0131   3.8833   5.4917   6.5383   7.8479

     occupation numbers 
     1.0000   1.0000   1.0000   1.0000   0.0000   0.0000   0.0000   0.0000

          k = 0.0000 0.3464 0.0000 (  6001 PWs)   bands (ev):

   -17.8963  -9.2324  -6.0057  -5.6305   5.3968   5.4934   7.1256   7.4153

     occupation numbers 
     1.0000   1.0000   1.0000   1.0000   0.0000   0.0000   0.0000   0.0000

          k = 0.0000 0.4619 0.0000 (  5973 PWs)   bands (ev):

   -16.3137 -11.8105  -6.6773  -3.9424   2.7248   7.0917   7.7627   9.2985

     occupation numbers 
     1.0000   1.0000   1.0000   1.0000   0.0000   0.0000   0.0000   0.0000

          k = 0.0000-0.5774 0.0000 (  5984 PWs)   bands (ev):

   -14.7457 -13.7272  -6.9113  -2.8171   1.2365   6.9856  10.5278  10.6595

     occupation numbers 
     1.0000   1.0000   1.0000   1.0000   0.0000   0.0000   0.0000   0.0000

          k = 0.1000 0.1732 0.0000 (  5997 PWs)   bands (ev):

   -19.2907  -7.2522  -5.7849  -4.9433   3.5607   5.1774   6.2260   8.4583

     occupation numbers 
     1.0000   1.0000   1.0000   1.0000   0.0000   0.0000   0.0000   0.0000

          k = 0.1000 0.2887 0.0000 (  6004 PWs)   bands (ev):

   -18.3584  -7.9465  -6.1908  -6.1568   4.8520   6.3584   6.6109   7.4927

     occupation numbers 
     1.0000   1.0000   1.0000   1.0000   0.0000   0.0000   0.0000   0.0000

          k = 0.1000 0.4041 0.0000 (  5982 PWs)   bands (ev):

   -16.9850 -10.4581  -7.1107  -4.6082   3.8923   6.7779   8.2579   8.3269

     occupation numbers 
     1.0000   1.0000   1.0000   1.0000   0.0000   0.0000   0.0000   0.0000

          k = 0.1000 0.5196 0.0000 (  5969 PWs)   bands (ev):

   -15.2475 -12.8409  -7.5889  -2.9622   1.6195   8.0266   9.3356  10.6961

     occupation numbers 
     1.0000   1.0000   1.0000   1.0000   0.0000   0.0000   0.0000   0.0000

          k = 0.2000 0.3464 0.0000 (  5991 PWs)   bands (ev):

   -17.2123  -9.4177  -7.9550  -4.8408   4.4662   6.4607   7.9660   9.0850

     occupation numbers 
     1.0000   1.0000   1.0000   1.0000   0.0000   0.0000   0.0000   0.0000

          k = 0.2000 0.4619 0.0000 (  5972 PWs)   bands (ev):

   -15.6593 -11.4125  -9.0291  -3.1647   2.2623   8.6876   9.8792  10.5431

     occupation numbers 
     1.0000   1.0000   1.0000   1.0000   0.0000   0.0000   0.0000   0.0000

          k = 0.2000 0.5774 0.0000 (  5970 PWs)   bands (ev):

   -14.1402 -13.1678  -9.3338  -1.9548   0.8559  10.4176  10.9247  11.3527

     occupation numbers 
     1.0000   1.0000   1.0000   1.0000   0.0000   0.0000   0.0000   0.0000

          k = 0.3000 0.5196 0.0000 (  5970 PWs)   bands (ev):

   -14.0273 -12.3372 -10.6710  -1.4762   0.5669  10.3131  11.1149  12.5873

     occupation numbers 
     1.0000   1.0000   1.0000   1.0000   0.0000   0.0000   0.0000   0.0000

     the Fermi energy is     0.3749 ev

!    total energy              =     -24.85840427 Ry
     Harris-Foulkes estimate   =     -24.85840371 Ry
     estimated scf accuracy    <       0.00000047 Ry

     The total energy is the sum of the following terms:

     one-electron contribution =     -90.72073791 Ry
     hartree contribution      =      47.20731663 Ry
     xc contribution           =      -9.28089343 Ry
     ewald contribution        =      27.93591045 Ry
     smearing contrib. (-TS)   =       0.00000000 Ry

     convergence has been achieved in   4 iterations

     Writing output data file gr-100.save/

     init_run     :      0.39s CPU      0.39s WALL (       1 calls)
     electrons    :      1.35s CPU      1.41s WALL (       1 calls)

     Called by init_run:
     wfcinit      :      0.09s CPU      0.09s WALL (       1 calls)
     wfcinit:atom :      0.00s CPU      0.00s WALL (      14 calls)
     wfcinit:wfcr :      0.08s CPU      0.08s WALL (      14 calls)
     potinit      :      0.09s CPU      0.09s WALL (       1 calls)
     hinit0       :      0.16s CPU      0.16s WALL (       1 calls)

     Called by electrons:
     c_bands      :      1.09s CPU      1.14s WALL (       4 calls)
     sum_band     :      0.18s CPU      0.19s WALL (       4 calls)
     v_of_rho     :      0.06s CPU      0.06s WALL (       5 calls)
     v_h          :      0.00s CPU      0.00s WALL (       5 calls)
     v_xc         :      0.05s CPU      0.05s WALL (       5 calls)
     newd         :      0.03s CPU      0.03s WALL (       5 calls)
     mix_rho      :      0.01s CPU      0.01s WALL (       4 calls)

     Called by c_bands:
     init_us_2    :      0.02s CPU      0.02s WALL (     126 calls)
     cegterg      :      1.05s CPU      1.10s WALL (      56 calls)

     Called by sum_band:
     sum_band:bec :      0.00s CPU      0.00s WALL (      56 calls)
     addusdens    :      0.02s CPU      0.02s WALL (       4 calls)

     Called by *egterg:
     h_psi        :      0.86s CPU      0.90s WALL (     281 calls)
     s_psi        :      0.03s CPU      0.03s WALL (     281 calls)
     g_psi        :      0.02s CPU      0.02s WALL (     211 calls)
     cdiaghg      :      0.03s CPU      0.03s WALL (     267 calls)
     cegterg:over :      0.08s CPU      0.09s WALL (     211 calls)
     cegterg:upda :      0.04s CPU      0.04s WALL (     211 calls)
     cegterg:last :      0.02s CPU      0.02s WALL (      56 calls)

     Called by h_psi:
     h_psi:pot    :      0.86s CPU      0.90s WALL (     281 calls)
     h_psi:calbec :      0.05s CPU      0.05s WALL (     281 calls)
     vloc_psi     :      0.77s CPU      0.81s WALL (     281 calls)
     add_vuspsi   :      0.03s CPU      0.04s WALL (     281 calls)

     General routines
     calbec       :      0.07s CPU      0.07s WALL (     337 calls)
     fft          :      0.04s CPU      0.04s WALL (      55 calls)
     ffts         :      0.00s CPU      0.00s WALL (       4 calls)
     fftw         :      0.81s CPU      0.85s WALL (    3256 calls)

     Parallel routines
     fft_scatt_xy :      0.07s CPU      0.08s WALL (    3315 calls)
     fft_scatt_yz :      0.36s CPU      0.37s WALL (    3315 calls)

     PWSCF        :      2.06s CPU      2.14s WALL


   This run was terminated on:  21:36:55  17Mar2022            

=------------------------------------------------------------------------------=
   JOB DONE.
=------------------------------------------------------------------------------=
