
     Program PWSCF v.6.4.1 starts on 15Aug2022 at  5:33:49 

     This program is part of the open-source Quantum ESPRESSO suite
     for quantum simulation of materials; please cite
         "P. Giannozzi et al., J. Phys.:Condens. Matter 21 395502 (2009);
         "P. Giannozzi et al., J. Phys.:Condens. Matter 29 465901 (2017);
          URL http://www.quantum-espresso.org", 
     in publications or presentations arising from this work. More details at
     http://www.quantum-espresso.org/quote

     Parallel version (MPI), running on     6 processors

     MPI processes distributed on     1 nodes
     R & G space division:  proc/nbgrp/npool/nimage =       6
     Reading input from distance-4.5.in

     Current dimensions of program PWSCF are:
     Max number of different atomic species (ntypx) = 10
     Max number of k-points (npk) =  40000
     Max angular momentum in pseudopotentials (lmaxx) =  3

     IMPORTANT: XC functional enforced from input :
     Exchange-correlation      = RVV10 ( 1  4 13  4 3 0)
     Any further DFT definition will be discarded
     Please, verify this is what you really want

               file H.pbe-rrkjus.UPF: wavefunction(s)  1S renormalized
               file Cr.pbe-spn-rrkjus_psl.1.0.0.UPF: wavefunction(s)  3P renormalized

     Subspace diagonalization in iterative solution of the eigenvalue problem:
     a serial algorithm will be used


     Parallelization info
     --------------------
     sticks:   dense  smooth     PW     G-vecs:    dense   smooth      PW
     Min        3051    1746    432               270999   117096   14629
     Max        3053    1747    437               271001   117099   14630
     Sum       18313   10477   2611              1626001   702581   87777



     bravais-lattice index     =            4
     lattice parameter (alat)  =      23.2937  a.u.
     unit-cell volume          =    8879.8548 (a.u.)^3
     number of atoms/cell      =           52
     number of atomic types    =            3
     number of electrons       =       212.00
     number of Kohn-Sham states=          127
     kinetic-energy cutoff     =      70.0000  Ry
     charge density cutoff     =     490.0000  Ry
     convergence threshold     =      1.0E-06
     mixing beta               =       0.7000
     number of iterations used =            8  plain     mixing
     Exchange-correlation      = RVV10 ( 1  4 13  4 3 0)

     celldm(1)=  23.293684  celldm(2)=   0.000000  celldm(3)=   0.811261
     celldm(4)=   0.000000  celldm(5)=   0.000000  celldm(6)=   0.000000

     crystal axes: (cart. coord. in units of alat)
               a(1) = (   1.000000   0.000000   0.000000 )  
               a(2) = (  -0.500000   0.866025   0.000000 )  
               a(3) = (   0.000000   0.000000   0.811261 )  

     reciprocal axes: (cart. coord. in units 2 pi/alat)
               b(1) = (  1.000000  0.577350 -0.000000 )  
               b(2) = (  0.000000  1.154701  0.000000 )  
               b(3) = (  0.000000 -0.000000  1.232649 )  


     PseudoPot. # 1 for H  read from file:
     /home/cristian/Escritorio/Proyecto_Grafeno/pseudopotenciales/H.pbe-rrkjus.UPF
     MD5 check sum: 7cc9d459525c9a0585f487a71c3c9563
     Pseudo is Ultrasoft, Zval =  1.0
     Generated by new atomic code, or converted to UPF format
     Using radial grid of 1061 points,  2 beta functions with: 
                l(1) =   0
                l(2) =   0
     Q(r) pseudized with 0 coefficients 


     PseudoPot. # 2 for C  read from file:
     /home/cristian/Escritorio/Proyecto_Grafeno/pseudopotenciales/C.pbe-n-rrkjus_psl.1.0.0.UPF
     MD5 check sum: 1fdd950c42eb37d8afe3dd2f8d12311e
     Pseudo is Ultrasoft + core correction, Zval =  4.0
     Generated using "atomic" code by A. Dal Corso v.6.3MaX
     Using radial grid of 1073 points,  4 beta functions with: 
                l(1) =   0
                l(2) =   0
                l(3) =   1
                l(4) =   1
     Q(r) pseudized with 0 coefficients 


     PseudoPot. # 3 for Cr read from file:
     /home/cristian/Escritorio/Proyecto_Grafeno/pseudopotenciales/Cr.pbe-spn-rrkjus_psl.1.0.0.UPF
     MD5 check sum: 793d051e4f89dd1e3290b85340a92c0a
     Pseudo is Ultrasoft + core correction, Zval = 14.0
     Generated using "atomic" code by A. Dal Corso v.6.2.2
     Using radial grid of 1183 points,  6 beta functions with: 
                l(1) =   0
                l(2) =   0
                l(3) =   1
                l(4) =   1
                l(5) =   2
                l(6) =   2
     Q(r) pseudized with 0 coefficients 


     vdW kernel table read from file rVV10_kernel_table
     MD5 check sum: b8e2538accc0c0b3206b45ba4daaba6c

     atomic species   valence    mass     pseudopotential
        H              1.00     1.00794     H ( 1.00)
        C              4.00    12.01070     C ( 1.00)
        Cr            14.00    51.99610     Cr( 1.00)

     Starting magnetic structure 
     atomic species   magnetization
        H            0.500
        C            0.300
        Cr           0.800

      2 Sym. Ops. (no inversion) found


                                    s                        frac. trans.

      isym =  1     identity                                     

 cryst.   s( 1) = (     1          0          0      )
                  (     0          1          0      )
                  (     0          0          1      )

 cart.    s( 1) = (  1.0000000  0.0000000  0.0000000 )
                  (  0.0000000  1.0000000  0.0000000 )
                  (  0.0000000  0.0000000  1.0000000 )


      isym =  2     inv. 180 deg rotation - cryst. axis [1,1,0]  

 cryst.   s( 2) = (     0         -1          0      )
                  (    -1          0          0      )
                  (     0          0          1      )

 cart.    s( 2) = (  0.5000000 -0.8660254  0.0000000 )
                  ( -0.8660254 -0.5000000  0.0000000 )
                  (  0.0000000  0.0000000  1.0000000 )


     point group C_s (m)    
     there are  2 classes
     the character table:

       E     s    
A'     1.00  1.00
A''    1.00 -1.00

     the symmetry operations in each class and the name of the first element:

     E        1
          identity                                               
     s        2
          inv. 180 deg rotation - cryst. axis [1,1,0]            

   Cartesian axes

     site n.     atom                  positions (alat units)
         1           H   tau(   1) = (   0.2000000   0.4618802   0.3650675  )
         2           H   tau(   2) = (   0.2000000   0.4618802   0.4260802  )
         3           C   tau(   3) = (   0.0000000   0.0000000   0.0000000  )
         4           C   tau(   4) = (   0.0000000   0.1154701   0.0000000  )
         5           C   tau(   5) = (  -0.1000000   0.1732051   0.0000000  )
         6           C   tau(   6) = (  -0.1000000   0.2886751   0.0000000  )
         7           C   tau(   7) = (  -0.2000000   0.3464102   0.0000000  )
         8           C   tau(   8) = (  -0.2000000   0.4618802   0.0000000  )
         9           C   tau(   9) = (  -0.3000000   0.5196152   0.0000000  )
        10           C   tau(  10) = (  -0.3000000   0.6350853   0.0000000  )
        11           C   tau(  11) = (  -0.4000000   0.6928203   0.0000000  )
        12           C   tau(  12) = (  -0.4000000   0.8082904   0.0000000  )
        13           C   tau(  13) = (   0.2000000   0.0000000   0.0000000  )
        14           C   tau(  14) = (   0.2000000   0.1154701   0.0000000  )
        15           C   tau(  15) = (   0.1000000   0.1732051   0.0000000  )
        16           C   tau(  16) = (   0.1000000   0.2886751   0.0000000  )
        17           C   tau(  17) = (   0.0000000   0.3464102   0.0000000  )
        18           C   tau(  18) = (   0.0000000   0.4618802   0.0000000  )
        19           C   tau(  19) = (  -0.1000000   0.5196152   0.0000000  )
        20           C   tau(  20) = (  -0.1000000   0.6350853   0.0000000  )
        21           C   tau(  21) = (  -0.2000000   0.6928203   0.0000000  )
        22           C   tau(  22) = (  -0.2000000   0.8082904   0.0000000  )
        23           C   tau(  23) = (   0.4000000   0.0000000   0.0000000  )
        24           C   tau(  24) = (   0.4000000   0.1154701   0.0000000  )
        25           C   tau(  25) = (   0.3000000   0.1732051   0.0000000  )
        26           C   tau(  26) = (   0.3000000   0.2886751   0.0000000  )
        27           C   tau(  27) = (   0.2000000   0.3464102   0.0000000  )
        28           Cr  tau(  28) = (   0.2000000   0.4618802   0.0000000  )
        29           C   tau(  29) = (   0.1000000   0.5196152   0.0000000  )
        30           C   tau(  30) = (   0.1000000   0.6350853   0.0000000  )
        31           C   tau(  31) = (   0.0000000   0.6928203   0.0000000  )
        32           C   tau(  32) = (   0.0000000   0.8082904   0.0000000  )
        33           C   tau(  33) = (   0.6000000   0.0000000   0.0000000  )
        34           C   tau(  34) = (   0.6000000   0.1154701   0.0000000  )
        35           C   tau(  35) = (   0.5000000   0.1732051   0.0000000  )
        36           C   tau(  36) = (   0.5000000   0.2886751   0.0000000  )
        37           C   tau(  37) = (   0.4000000   0.3464102   0.0000000  )
        38           C   tau(  38) = (   0.4000000   0.4618802   0.0000000  )
        39           C   tau(  39) = (   0.3000000   0.5196152   0.0000000  )
        40           C   tau(  40) = (   0.3000000   0.6350853   0.0000000  )
        41           C   tau(  41) = (   0.2000000   0.6928203   0.0000000  )
        42           C   tau(  42) = (   0.2000000   0.8082904   0.0000000  )
        43           C   tau(  43) = (   0.8000000   0.0000000   0.0000000  )
        44           C   tau(  44) = (   0.8000000   0.1154701   0.0000000  )
        45           C   tau(  45) = (   0.7000000   0.1732051   0.0000000  )
        46           C   tau(  46) = (   0.7000000   0.2886751   0.0000000  )
        47           C   tau(  47) = (   0.6000000   0.3464102   0.0000000  )
        48           C   tau(  48) = (   0.6000000   0.4618802   0.0000000  )
        49           C   tau(  49) = (   0.5000000   0.5196152   0.0000000  )
        50           C   tau(  50) = (   0.5000000   0.6350853   0.0000000  )
        51           C   tau(  51) = (   0.4000000   0.6928203   0.0000000  )
        52           C   tau(  52) = (   0.4000000   0.8082904   0.0000000  )

   Crystallographic axes

     site n.     atom                  positions (cryst. coord.)
         1           H   tau(   1) = (  0.4666667  0.5333333  0.4500000  )
         2           H   tau(   2) = (  0.4666667  0.5333333  0.5252072  )
         3           C   tau(   3) = (  0.0000000  0.0000000  0.0000000  )
         4           C   tau(   4) = (  0.0666667  0.1333333  0.0000000  )
         5           C   tau(   5) = (  0.0000000  0.2000000  0.0000000  )
         6           C   tau(   6) = (  0.0666667  0.3333333  0.0000000  )
         7           C   tau(   7) = (  0.0000000  0.4000000  0.0000000  )
         8           C   tau(   8) = (  0.0666667  0.5333333  0.0000000  )
         9           C   tau(   9) = (  0.0000000  0.6000000  0.0000000  )
        10           C   tau(  10) = (  0.0666667  0.7333333  0.0000000  )
        11           C   tau(  11) = (  0.0000000  0.8000000  0.0000000  )
        12           C   tau(  12) = (  0.0666667  0.9333333  0.0000000  )
        13           C   tau(  13) = (  0.2000000  0.0000000  0.0000000  )
        14           C   tau(  14) = (  0.2666667  0.1333333  0.0000000  )
        15           C   tau(  15) = (  0.2000000  0.2000000  0.0000000  )
        16           C   tau(  16) = (  0.2666667  0.3333333  0.0000000  )
        17           C   tau(  17) = (  0.2000000  0.4000000  0.0000000  )
        18           C   tau(  18) = (  0.2666667  0.5333333  0.0000000  )
        19           C   tau(  19) = (  0.2000000  0.6000000  0.0000000  )
        20           C   tau(  20) = (  0.2666667  0.7333333  0.0000000  )
        21           C   tau(  21) = (  0.2000000  0.8000000  0.0000000  )
        22           C   tau(  22) = (  0.2666667  0.9333333  0.0000000  )
        23           C   tau(  23) = (  0.4000000  0.0000000  0.0000000  )
        24           C   tau(  24) = (  0.4666667  0.1333333  0.0000000  )
        25           C   tau(  25) = (  0.4000000  0.2000000  0.0000000  )
        26           C   tau(  26) = (  0.4666667  0.3333333  0.0000000  )
        27           C   tau(  27) = (  0.4000000  0.4000000  0.0000000  )
        28           Cr  tau(  28) = (  0.4666667  0.5333333  0.0000000  )
        29           C   tau(  29) = (  0.4000000  0.6000000  0.0000000  )
        30           C   tau(  30) = (  0.4666667  0.7333333  0.0000000  )
        31           C   tau(  31) = (  0.4000000  0.8000000  0.0000000  )
        32           C   tau(  32) = (  0.4666667  0.9333333  0.0000000  )
        33           C   tau(  33) = (  0.6000000  0.0000000  0.0000000  )
        34           C   tau(  34) = (  0.6666667  0.1333333  0.0000000  )
        35           C   tau(  35) = (  0.6000000  0.2000000  0.0000000  )
        36           C   tau(  36) = (  0.6666667  0.3333333  0.0000000  )
        37           C   tau(  37) = (  0.6000000  0.4000000  0.0000000  )
        38           C   tau(  38) = (  0.6666667  0.5333333  0.0000000  )
        39           C   tau(  39) = (  0.6000000  0.6000000  0.0000000  )
        40           C   tau(  40) = (  0.6666667  0.7333333  0.0000000  )
        41           C   tau(  41) = (  0.6000000  0.8000000  0.0000000  )
        42           C   tau(  42) = (  0.6666667  0.9333333  0.0000000  )
        43           C   tau(  43) = (  0.8000000  0.0000000  0.0000000  )
        44           C   tau(  44) = (  0.8666667  0.1333333  0.0000000  )
        45           C   tau(  45) = (  0.8000000  0.2000000  0.0000000  )
        46           C   tau(  46) = (  0.8666667  0.3333333  0.0000000  )
        47           C   tau(  47) = (  0.8000000  0.4000000  0.0000000  )
        48           C   tau(  48) = (  0.8666667  0.5333333  0.0000000  )
        49           C   tau(  49) = (  0.8000000  0.6000000  0.0000000  )
        50           C   tau(  50) = (  0.8666667  0.7333333  0.0000000  )
        51           C   tau(  51) = (  0.8000000  0.8000000  0.0000000  )
        52           C   tau(  52) = (  0.8666667  0.9333333  0.0000000  )

     number of k points=     1  Marzari-Vanderbilt smearing, width (Ry)=  0.0010
                       cart. coord. in units 2pi/alat
        k(    1) = (   0.0000000   0.0000000   0.0000000), wk =   1.0000000

                       cryst. coord.
        k(    1) = (   0.0000000   0.0000000   0.0000000), wk =   1.0000000

     Dense  grid:  1626001 G-vectors     FFT dimensions: ( 180, 180, 135)

     Smooth grid:   702581 G-vectors     FFT dimensions: ( 125, 125, 108)

     Dynamical RAM for                 wfc:      28.36 MB

     Dynamical RAM for     wfc (w. buffer):      85.09 MB

     Dynamical RAM for           str. fact:      12.41 MB

     Dynamical RAM for           local pot:       0.00 MB

     Dynamical RAM for          nlocal pot:      92.46 MB

     Dynamical RAM for                qrad:      19.73 MB

     Dynamical RAM for          rho,v,vnew:      58.92 MB

     Dynamical RAM for               rhoin:      19.64 MB

     Dynamical RAM for            rho*nmix:     132.32 MB

     Dynamical RAM for           G-vectors:      16.40 MB

     Dynamical RAM for          h,s,v(r/c):      11.81 MB

     Dynamical RAM for          <psi|beta>:       0.80 MB

     Dynamical RAM for                 psi:     113.46 MB

     Dynamical RAM for                hpsi:     113.46 MB

     Dynamical RAM for                spsi:     113.46 MB

     Dynamical RAM for      wfcinit/wfcrot:      93.90 MB

     Dynamical RAM for           addusdens:     975.89 MB

     Estimated static dynamical RAM per process >     487.63 MB

     Estimated max dynamical RAM per process >       1.43 GB

     Estimated total dynamical RAM >       8.58 GB
     Generating pointlists ...
     new r_m :   0.0252 (alat units)  0.5862 (a.u.) for type    1
     new r_m :   0.0476 (alat units)  1.1095 (a.u.) for type    2
     new r_m :   0.0476 (alat units)  1.1095 (a.u.) for type    3

     Check: negative core charge=   -0.000002

     Initial potential from superposition of free atoms

     starting charge  211.80478, renormalised to  212.00000

     negative rho (up, down):  4.274E-04 1.873E-02


---------------------------------------------------------------------------------
Carrying out rVV10 run using the following parameters:
Nqs =      20    Nr_points =    1024   r_max =   100.000
b_value =  6.30000    beta =  0.00901
     q_mesh =  0.00010000  0.00030000  0.00058939  0.00100810
               0.00161396  0.00249058  0.00375900  0.00559430
               0.00824984  0.01209221  0.01765183  0.02569619
               0.03733578  0.05417739  0.07854596  0.11380545
               0.16482331  0.23864234  0.34545298  0.50000000

Gradients computed in Reciprocal space

---------------------------------------------------------------------------------


     Starting wfcs are  208 randomized atomic wfcs

     total cpu time spent up to now is       80.2 secs

     Self-consistent Calculation

     iteration #  1     ecut=    70.00 Ry     beta= 0.70
     Davidson diagonalization with overlap
     ethr =  1.00E-02,  avg # of iterations =  2.5

     negative rho (up, down):  7.127E-04 6.798E-03

     total cpu time spent up to now is      216.2 secs

     total energy              =    -784.65317097 Ry
     Harris-Foulkes estimate   =    -786.12303550 Ry
     estimated scf accuracy    <       9.65832584 Ry

     total magnetization       =     4.00 Bohr mag/cell
     absolute magnetization    =     5.43 Bohr mag/cell

     iteration #  2     ecut=    70.00 Ry     beta= 0.70
     Davidson diagonalization with overlap
     ethr =  4.56E-03,  avg # of iterations =  5.0

     negative rho (up, down):  7.856E-04 3.118E-02

     total cpu time spent up to now is      337.7 secs

     total energy              =    -777.24163580 Ry
     Harris-Foulkes estimate   =    -789.54511054 Ry
     estimated scf accuracy    <      41.37370041 Ry

     total magnetization       =     4.00 Bohr mag/cell
     absolute magnetization    =     4.11 Bohr mag/cell

     iteration #  3     ecut=    70.00 Ry     beta= 0.70
     Davidson diagonalization with overlap
     ethr =  4.56E-03,  avg # of iterations =  4.0

     negative rho (up, down):  9.139E-04 2.348E-02

     total cpu time spent up to now is      494.8 secs

     total energy              =    -784.12120886 Ry
     Harris-Foulkes estimate   =    -789.82490271 Ry
     estimated scf accuracy    <      34.93896539 Ry

     total magnetization       =     4.00 Bohr mag/cell
     absolute magnetization    =     4.10 Bohr mag/cell

     iteration #  4     ecut=    70.00 Ry     beta= 0.70
     Davidson diagonalization with overlap
     ethr =  4.56E-03,  avg # of iterations =  4.0

     negative rho (up, down):  1.156E-03 3.751E-02

     total cpu time spent up to now is      598.5 secs

     total energy              =    -786.78288636 Ry
     Harris-Foulkes estimate   =    -787.15840641 Ry
     estimated scf accuracy    <       1.03127384 Ry

     total magnetization       =     2.00 Bohr mag/cell
     absolute magnetization    =     2.45 Bohr mag/cell

     iteration #  5     ecut=    70.00 Ry     beta= 0.70
     Davidson diagonalization with overlap
     ethr =  4.86E-04,  avg # of iterations =  5.0

     negative rho (up, down):  1.646E-03 3.911E-02

     total cpu time spent up to now is      715.1 secs

     total energy              =    -786.92893853 Ry
     Harris-Foulkes estimate   =    -786.99730853 Ry
     estimated scf accuracy    <       0.33309696 Ry

     total magnetization       =     4.00 Bohr mag/cell
     absolute magnetization    =     4.23 Bohr mag/cell

     iteration #  6     ecut=    70.00 Ry     beta= 0.70
     Davidson diagonalization with overlap
     ethr =  1.57E-04,  avg # of iterations =  3.5

     negative rho (up, down):  2.760E-03 4.211E-02

     total cpu time spent up to now is      824.9 secs

     total energy              =    -786.97051263 Ry
     Harris-Foulkes estimate   =    -787.03620905 Ry
     estimated scf accuracy    <       0.37236265 Ry

     total magnetization       =     2.00 Bohr mag/cell
     absolute magnetization    =     2.79 Bohr mag/cell

     iteration #  7     ecut=    70.00 Ry     beta= 0.70
     Davidson diagonalization with overlap
     ethr =  1.57E-04,  avg # of iterations =  2.5

     negative rho (up, down):  3.094E-03 5.478E-02

     total cpu time spent up to now is      925.1 secs

     total energy              =    -787.00055976 Ry
     Harris-Foulkes estimate   =    -786.99870412 Ry
     estimated scf accuracy    <       0.10723339 Ry

     total magnetization       =     2.02 Bohr mag/cell
     absolute magnetization    =     3.11 Bohr mag/cell

     iteration #  8     ecut=    70.00 Ry     beta= 0.70
     Davidson diagonalization with overlap
     ethr =  5.06E-05,  avg # of iterations =  4.5

     negative rho (up, down):  2.540E-03 5.751E-02

     total cpu time spent up to now is     1025.5 secs

     total energy              =    -787.01805612 Ry
     Harris-Foulkes estimate   =    -787.00411085 Ry
     estimated scf accuracy    <       0.05374395 Ry

     total magnetization       =     2.78 Bohr mag/cell
     absolute magnetization    =     3.69 Bohr mag/cell

     iteration #  9     ecut=    70.00 Ry     beta= 0.70
     Davidson diagonalization with overlap
     ethr =  2.54E-05,  avg # of iterations =  7.0

     negative rho (up, down):  7.390E-03 9.054E-02

     total cpu time spent up to now is     1131.5 secs

     total energy              =    -786.95558746 Ry
     Harris-Foulkes estimate   =    -787.02546298 Ry
     estimated scf accuracy    <       0.17544033 Ry

     total magnetization       =     2.02 Bohr mag/cell
     absolute magnetization    =     3.63 Bohr mag/cell

     iteration # 10     ecut=    70.00 Ry     beta= 0.70
     Davidson diagonalization with overlap
     ethr =  2.54E-05,  avg # of iterations =  3.0

     negative rho (up, down):  1.097E-02 7.037E-02

     total cpu time spent up to now is     1237.3 secs

     total energy              =    -786.98979231 Ry
     Harris-Foulkes estimate   =    -786.99424789 Ry
     estimated scf accuracy    <       0.07899309 Ry

     total magnetization       =     2.00 Bohr mag/cell
     absolute magnetization    =     3.26 Bohr mag/cell

     iteration # 11     ecut=    70.00 Ry     beta= 0.70
     Davidson diagonalization with overlap
     ethr =  2.54E-05,  avg # of iterations =  2.5

     negative rho (up, down):  1.162E-02 6.719E-02

     total cpu time spent up to now is     1337.7 secs

     total energy              =    -786.98781071 Ry
     Harris-Foulkes estimate   =    -786.99243183 Ry
     estimated scf accuracy    <       0.08454088 Ry

     total magnetization       =     2.00 Bohr mag/cell
     absolute magnetization    =     3.30 Bohr mag/cell

     iteration # 12     ecut=    70.00 Ry     beta= 0.70
     Davidson diagonalization with overlap
     ethr =  2.54E-05,  avg # of iterations =  2.0

     negative rho (up, down):  1.561E-02 5.973E-02

     total cpu time spent up to now is     1437.6 secs

     total energy              =    -786.98132124 Ry
     Harris-Foulkes estimate   =    -786.99014730 Ry
     estimated scf accuracy    <       0.06414162 Ry

     total magnetization       =     2.00 Bohr mag/cell
     absolute magnetization    =     3.27 Bohr mag/cell

     iteration # 13     ecut=    70.00 Ry     beta= 0.70
     Davidson diagonalization with overlap
     ethr =  2.54E-05,  avg # of iterations =  2.0

     negative rho (up, down):  1.906E-02 5.324E-02

     total cpu time spent up to now is     1537.5 secs

     total energy              =    -786.97787584 Ry
     Harris-Foulkes estimate   =    -786.98436761 Ry
     estimated scf accuracy    <       0.05345623 Ry

     total magnetization       =     2.00 Bohr mag/cell
     absolute magnetization    =     3.27 Bohr mag/cell

     iteration # 14     ecut=    70.00 Ry     beta= 0.70
     Davidson diagonalization with overlap
     ethr =  2.52E-05,  avg # of iterations =  1.5

     negative rho (up, down):  2.679E-02 4.416E-02

     total cpu time spent up to now is     1636.9 secs

     total energy              =    -786.96734387 Ry
     Harris-Foulkes estimate   =    -786.97976963 Ry
     estimated scf accuracy    <       0.03957580 Ry

     total magnetization       =     2.00 Bohr mag/cell
     absolute magnetization    =     3.27 Bohr mag/cell

     iteration # 15     ecut=    70.00 Ry     beta= 0.70
     Davidson diagonalization with overlap
     ethr =  1.87E-05,  avg # of iterations =  7.5

     negative rho (up, down):  2.233E-02 3.611E-02

     total cpu time spent up to now is     1746.7 secs

     total energy              =    -786.97361320 Ry
     Harris-Foulkes estimate   =    -786.97460891 Ry
     estimated scf accuracy    <       0.01871015 Ry

     total magnetization       =     2.00 Bohr mag/cell
     absolute magnetization    =     3.18 Bohr mag/cell

     iteration # 16     ecut=    70.00 Ry     beta= 0.70
     Davidson diagonalization with overlap
     ethr =  8.83E-06,  avg # of iterations =  3.5

     negative rho (up, down):  1.981E-02 3.649E-02

     total cpu time spent up to now is     1854.8 secs

     total energy              =    -786.97745070 Ry
     Harris-Foulkes estimate   =    -786.97656200 Ry
     estimated scf accuracy    <       0.02056105 Ry

     total magnetization       =     2.00 Bohr mag/cell
     absolute magnetization    =     3.31 Bohr mag/cell

     iteration # 17     ecut=    70.00 Ry     beta= 0.70
     Davidson diagonalization with overlap
     ethr =  8.83E-06,  avg # of iterations =  1.5

     negative rho (up, down):  3.268E-02 2.906E-02

     total cpu time spent up to now is     1954.1 secs

     total energy              =    -786.96574500 Ry
     Harris-Foulkes estimate   =    -786.97802037 Ry
     estimated scf accuracy    <       0.02121798 Ry

     total magnetization       =     2.00 Bohr mag/cell
     absolute magnetization    =     3.32 Bohr mag/cell

     iteration # 18     ecut=    70.00 Ry     beta= 0.70
     Davidson diagonalization with overlap
     ethr =  8.83E-06,  avg # of iterations =  9.5

     negative rho (up, down):  3.814E-02 3.501E-02

     total cpu time spent up to now is     2079.7 secs

     total energy              =    -786.99037337 Ry
     Harris-Foulkes estimate   =    -786.98484215 Ry
     estimated scf accuracy    <       0.03756944 Ry

     total magnetization       =     2.16 Bohr mag/cell
     absolute magnetization    =     3.64 Bohr mag/cell

     iteration # 19     ecut=    70.00 Ry     beta= 0.70
     Davidson diagonalization with overlap
     ethr =  8.83E-06,  avg # of iterations =  2.5

     negative rho (up, down):  3.833E-02 4.246E-02

     total cpu time spent up to now is     2182.8 secs

     total energy              =    -786.99278438 Ry
     Harris-Foulkes estimate   =    -786.99300496 Ry
     estimated scf accuracy    <       0.08516353 Ry

     total magnetization       =     2.13 Bohr mag/cell
     absolute magnetization    =     3.77 Bohr mag/cell

     iteration # 20     ecut=    70.00 Ry     beta= 0.70
     Davidson diagonalization with overlap
     ethr =  8.83E-06,  avg # of iterations =  1.0

     negative rho (up, down):  3.844E-02 4.449E-02

     total cpu time spent up to now is     2280.5 secs

     total energy              =    -786.99269509 Ry
     Harris-Foulkes estimate   =    -786.99281429 Ry
     estimated scf accuracy    <       0.08516688 Ry

     total magnetization       =     2.12 Bohr mag/cell
     absolute magnetization    =     3.77 Bohr mag/cell

     iteration # 21     ecut=    70.00 Ry     beta= 0.70
     Davidson diagonalization with overlap
     ethr =  8.83E-06,  avg # of iterations =  1.0

     negative rho (up, down):  3.861E-02 4.528E-02

     total cpu time spent up to now is     2378.2 secs

     total energy              =    -786.99242535 Ry
     Harris-Foulkes estimate   =    -786.99272763 Ry
     estimated scf accuracy    <       0.08580226 Ry

     total magnetization       =     2.13 Bohr mag/cell
     absolute magnetization    =     3.77 Bohr mag/cell

     iteration # 22     ecut=    70.00 Ry     beta= 0.70
     Davidson diagonalization with overlap
     ethr =  8.83E-06,  avg # of iterations =  1.0

     negative rho (up, down):  3.967E-02 4.533E-02

     total cpu time spent up to now is     2476.0 secs

     total energy              =    -786.99143889 Ry
     Harris-Foulkes estimate   =    -786.99245258 Ry
     estimated scf accuracy    <       0.08457426 Ry

     total magnetization       =     2.13 Bohr mag/cell
     absolute magnetization    =     3.77 Bohr mag/cell

     iteration # 23     ecut=    70.00 Ry     beta= 0.70
     Davidson diagonalization with overlap
     ethr =  8.83E-06,  avg # of iterations =  1.0

     negative rho (up, down):  3.157E-02 4.406E-02

     total cpu time spent up to now is     2573.5 secs

     total energy              =    -786.99835544 Ry
     Harris-Foulkes estimate   =    -786.99171926 Ry
     estimated scf accuracy    <       0.08429021 Ry

     total magnetization       =     2.14 Bohr mag/cell
     absolute magnetization    =     3.77 Bohr mag/cell

     iteration # 24     ecut=    70.00 Ry     beta= 0.70
     Davidson diagonalization with overlap
     ethr =  8.83E-06,  avg # of iterations =  3.5

     negative rho (up, down):  1.694E-02 6.484E-02

     total cpu time spent up to now is     2683.7 secs

     total energy              =    -786.92347509 Ry
     Harris-Foulkes estimate   =    -787.00689454 Ry
     estimated scf accuracy    <       0.44255593 Ry

     total magnetization       =     4.00 Bohr mag/cell
     absolute magnetization    =     5.12 Bohr mag/cell

     iteration # 25     ecut=    70.00 Ry     beta= 0.70
     Davidson diagonalization with overlap
     ethr =  8.83E-06,  avg # of iterations =  6.5

     negative rho (up, down):  1.371E-02 4.090E-02

     total cpu time spent up to now is     2814.0 secs

     total energy              =    -786.98696369 Ry
     Harris-Foulkes estimate   =    -786.98359277 Ry
     estimated scf accuracy    <       0.02312345 Ry

     total magnetization       =     2.00 Bohr mag/cell
     absolute magnetization    =     3.52 Bohr mag/cell

     iteration # 26     ecut=    70.00 Ry     beta= 0.70
     Davidson diagonalization with overlap
     ethr =  8.83E-06,  avg # of iterations =  2.5

     negative rho (up, down):  1.298E-02 4.257E-02

     total cpu time spent up to now is     2915.3 secs

     total energy              =    -786.99027171 Ry
     Harris-Foulkes estimate   =    -786.98841933 Ry
     estimated scf accuracy    <       0.02123456 Ry

     total magnetization       =     2.00 Bohr mag/cell
     absolute magnetization    =     3.62 Bohr mag/cell

     iteration # 27     ecut=    70.00 Ry     beta= 0.70
     Davidson diagonalization with overlap
     ethr =  8.83E-06,  avg # of iterations =  1.5

     negative rho (up, down):  2.991E-03 5.021E-02

     total cpu time spent up to now is     3014.2 secs

     total energy              =    -787.00179462 Ry
     Harris-Foulkes estimate   =    -786.99065404 Ry
     estimated scf accuracy    <       0.01976665 Ry

     total magnetization       =     2.01 Bohr mag/cell
     absolute magnetization    =     3.69 Bohr mag/cell

     iteration # 28     ecut=    70.00 Ry     beta= 0.70
     Davidson diagonalization with overlap
     ethr =  8.83E-06,  avg # of iterations =  6.5

     negative rho (up, down):  3.486E-03 9.373E-02

     total cpu time spent up to now is     3139.4 secs

     total energy              =    -787.01842000 Ry
     Harris-Foulkes estimate   =    -787.03717120 Ry
     estimated scf accuracy    <       0.35995010 Ry

     total magnetization       =     3.85 Bohr mag/cell
     absolute magnetization    =     5.24 Bohr mag/cell

     iteration # 29     ecut=    70.00 Ry     beta= 0.70
     Davidson diagonalization with overlap
     ethr =  8.83E-06,  avg # of iterations =  3.0

     negative rho (up, down):  4.673E-03 9.641E-02

     total cpu time spent up to now is     3241.2 secs

     total energy              =    -786.99058434 Ry
     Harris-Foulkes estimate   =    -787.02371093 Ry
     estimated scf accuracy    <       0.28769353 Ry

     total magnetization       =     4.00 Bohr mag/cell
     absolute magnetization    =     5.15 Bohr mag/cell

     iteration # 30     ecut=    70.00 Ry     beta= 0.70
     Davidson diagonalization with overlap
     ethr =  8.83E-06,  avg # of iterations =  3.5

     negative rho (up, down):  4.196E-03 6.615E-02

     total cpu time spent up to now is     3354.8 secs

     total energy              =    -787.00545808 Ry
     Harris-Foulkes estimate   =    -787.00267593 Ry
     estimated scf accuracy    <       0.05366054 Ry

     total magnetization       =     2.03 Bohr mag/cell
     absolute magnetization    =     3.79 Bohr mag/cell

     iteration # 31     ecut=    70.00 Ry     beta= 0.70
     Davidson diagonalization with overlap
     ethr =  8.83E-06,  avg # of iterations =  2.0

     negative rho (up, down):  4.934E-03 6.511E-02

     total cpu time spent up to now is     3454.1 secs

     total energy              =    -787.00196706 Ry
     Harris-Foulkes estimate   =    -787.00579364 Ry
     estimated scf accuracy    <       0.06452809 Ry

     total magnetization       =     2.03 Bohr mag/cell
     absolute magnetization    =     3.82 Bohr mag/cell

     iteration # 32     ecut=    70.00 Ry     beta= 0.70
     Davidson diagonalization with overlap
     ethr =  8.83E-06,  avg # of iterations =  2.0

     negative rho (up, down):  1.904E-02 6.095E-02

     total cpu time spent up to now is     3553.4 secs

     total energy              =    -786.96259243 Ry
     Harris-Foulkes estimate   =    -787.00291500 Ry
     estimated scf accuracy    <       0.04552109 Ry

     total magnetization       =     2.55 Bohr mag/cell
     absolute magnetization    =     3.98 Bohr mag/cell

     iteration # 33     ecut=    70.00 Ry     beta= 0.70
     Davidson diagonalization with overlap
     ethr =  8.83E-06,  avg # of iterations =  4.0

     negative rho (up, down):  2.397E-02 4.167E-02

     total cpu time spent up to now is     3667.8 secs

     total energy              =    -786.97595059 Ry
     Harris-Foulkes estimate   =    -786.98289350 Ry
     estimated scf accuracy    <       0.01042550 Ry

     total magnetization       =     2.11 Bohr mag/cell
     absolute magnetization    =     3.62 Bohr mag/cell

     iteration # 34     ecut=    70.00 Ry     beta= 0.70
     Davidson diagonalization with overlap
     ethr =  4.92E-06,  avg # of iterations =  4.0

     negative rho (up, down):  1.366E-02 5.329E-02

     total cpu time spent up to now is     3787.6 secs

     total energy              =    -786.96628568 Ry
     Harris-Foulkes estimate   =    -786.99625329 Ry
     estimated scf accuracy    <       0.08626164 Ry

     total magnetization       =     2.00 Bohr mag/cell
     absolute magnetization    =     3.91 Bohr mag/cell

     iteration # 35     ecut=    70.00 Ry     beta= 0.70
     Davidson diagonalization with overlap
     ethr =  4.92E-06,  avg # of iterations =  5.0

     negative rho (up, down):  1.354E-02 4.728E-02

     total cpu time spent up to now is     3905.9 secs

     total energy              =    -786.98790332 Ry
     Harris-Foulkes estimate   =    -786.98861456 Ry
     estimated scf accuracy    <       0.02174267 Ry

     total magnetization       =     2.00 Bohr mag/cell
     absolute magnetization    =     3.68 Bohr mag/cell

     iteration # 36     ecut=    70.00 Ry     beta= 0.70
     Davidson diagonalization with overlap
     ethr =  4.92E-06,  avg # of iterations =  1.5

     negative rho (up, down):  1.404E-02 4.470E-02

     total cpu time spent up to now is     4003.8 secs

     total energy              =    -786.98663894 Ry
     Harris-Foulkes estimate   =    -786.98811322 Ry
     estimated scf accuracy    <       0.01926272 Ry

     total magnetization       =     2.01 Bohr mag/cell
     absolute magnetization    =     3.70 Bohr mag/cell

     iteration # 37     ecut=    70.00 Ry     beta= 0.70
     Davidson diagonalization with overlap
     ethr =  4.92E-06,  avg # of iterations =  1.5

     negative rho (up, down):  2.192E-02 4.124E-02

     total cpu time spent up to now is     4102.1 secs

     total energy              =    -786.97194875 Ry
     Harris-Foulkes estimate   =    -786.98682779 Ry
     estimated scf accuracy    <       0.01789810 Ry

     total magnetization       =     2.02 Bohr mag/cell
     absolute magnetization    =     3.70 Bohr mag/cell

     iteration # 38     ecut=    70.00 Ry     beta= 0.70
     Davidson diagonalization with overlap
     ethr =  4.92E-06,  avg # of iterations =  4.0

     negative rho (up, down):  2.550E-02 3.293E-02

     total cpu time spent up to now is     4215.8 secs

     total energy              =    -786.97185196 Ry
     Harris-Foulkes estimate   =    -786.97870081 Ry
     estimated scf accuracy    <       0.00738161 Ry

     total magnetization       =     2.00 Bohr mag/cell
     absolute magnetization    =     3.62 Bohr mag/cell

     iteration # 39     ecut=    70.00 Ry     beta= 0.70
     Davidson diagonalization with overlap
     ethr =  3.48E-06,  avg # of iterations =  4.5

     negative rho (up, down):  2.855E-02 2.319E-02

     total cpu time spent up to now is     4329.0 secs

     total energy              =    -786.96990398 Ry
     Harris-Foulkes estimate   =    -786.97531021 Ry
     estimated scf accuracy    <       0.00097403 Ry

     total magnetization       =     2.04 Bohr mag/cell
     absolute magnetization    =     3.51 Bohr mag/cell

     iteration # 40     ecut=    70.00 Ry     beta= 0.70
     Davidson diagonalization with overlap
     ethr =  4.59E-07,  avg # of iterations =  6.0

     negative rho (up, down):  2.603E-02 3.957E-02

     total cpu time spent up to now is     4472.4 secs

     total energy              =    -786.92954146 Ry
     Harris-Foulkes estimate   =    -786.98755464 Ry
     estimated scf accuracy    <       0.05572281 Ry

     total magnetization       =     2.11 Bohr mag/cell
     absolute magnetization    =     3.81 Bohr mag/cell

     iteration # 41     ecut=    70.00 Ry     beta= 0.70
     Davidson diagonalization with overlap
     ethr =  4.59E-07,  avg # of iterations =  5.0

     negative rho (up, down):  3.116E-02 2.048E-02

     total cpu time spent up to now is     4606.8 secs

     total energy              =    -786.94055892 Ry
     Harris-Foulkes estimate   =    -786.98315577 Ry
     estimated scf accuracy    <       0.01379067 Ry

     total magnetization       =     1.95 Bohr mag/cell
     absolute magnetization    =     3.41 Bohr mag/cell

     iteration # 42     ecut=    70.00 Ry     beta= 0.70
     Davidson diagonalization with overlap
     ethr =  4.59E-07,  avg # of iterations =  5.0

     negative rho (up, down):  2.930E-02 5.304E-02

     total cpu time spent up to now is     4754.8 secs

     total energy              =    -787.00346695 Ry
     Harris-Foulkes estimate   =    -787.00345592 Ry
     estimated scf accuracy    <       0.17678871 Ry

     total magnetization       =     2.08 Bohr mag/cell
     absolute magnetization    =     4.02 Bohr mag/cell

     iteration # 43     ecut=    70.00 Ry     beta= 0.70
     Davidson diagonalization with overlap
     ethr =  4.59E-07,  avg # of iterations =  4.0

     negative rho (up, down):  2.261E-02 6.116E-02

     total cpu time spent up to now is     4865.1 secs

     total energy              =    -786.93452359 Ry
     Harris-Foulkes estimate   =    -787.00401788 Ry
     estimated scf accuracy    <       0.17495282 Ry

     total magnetization       =     2.17 Bohr mag/cell
     absolute magnetization    =     4.03 Bohr mag/cell

     iteration # 44     ecut=    70.00 Ry     beta= 0.70
     Davidson diagonalization with overlap
     ethr =  4.59E-07,  avg # of iterations =  5.0

     negative rho (up, down):  2.207E-02 4.002E-02

     total cpu time spent up to now is     5001.2 secs

     total energy              =    -786.97721476 Ry
     Harris-Foulkes estimate   =    -786.97691599 Ry
     estimated scf accuracy    <       0.00428740 Ry

     total magnetization       =     2.01 Bohr mag/cell
     absolute magnetization    =     3.62 Bohr mag/cell

     iteration # 45     ecut=    70.00 Ry     beta= 0.70
     Davidson diagonalization with overlap
     ethr =  4.59E-07,  avg # of iterations =  3.5

     negative rho (up, down):  2.191E-02 3.195E-02

     total cpu time spent up to now is     5109.0 secs

     total energy              =    -786.97745834 Ry
     Harris-Foulkes estimate   =    -786.97738733 Ry
     estimated scf accuracy    <       0.00324165 Ry

     total magnetization       =     2.08 Bohr mag/cell
     absolute magnetization    =     3.62 Bohr mag/cell

     iteration # 46     ecut=    70.00 Ry     beta= 0.70
     Davidson diagonalization with overlap
     ethr =  4.59E-07,  avg # of iterations =  2.0

     negative rho (up, down):  2.100E-02 2.943E-02

     total cpu time spent up to now is     5208.3 secs

     total energy              =    -786.97843153 Ry
     Harris-Foulkes estimate   =    -786.97751438 Ry
     estimated scf accuracy    <       0.00261671 Ry

     total magnetization       =     2.10 Bohr mag/cell
     absolute magnetization    =     3.61 Bohr mag/cell

     iteration # 47     ecut=    70.00 Ry     beta= 0.70
     Davidson diagonalization with overlap
     ethr =  4.59E-07,  avg # of iterations =  2.5

     negative rho (up, down):  2.110E-02 3.000E-02

     total cpu time spent up to now is     5311.5 secs

     total energy              =    -786.97839745 Ry
     Harris-Foulkes estimate   =    -786.97858611 Ry
     estimated scf accuracy    <       0.00363166 Ry

     total magnetization       =     2.02 Bohr mag/cell
     absolute magnetization    =     3.66 Bohr mag/cell

     iteration # 48     ecut=    70.00 Ry     beta= 0.70
     Davidson diagonalization with overlap
     ethr =  4.59E-07,  avg # of iterations =  1.5

     negative rho (up, down):  2.052E-02 3.009E-02

     total cpu time spent up to now is     5409.3 secs

     total energy              =    -786.97906254 Ry
     Harris-Foulkes estimate   =    -786.97840844 Ry
     estimated scf accuracy    <       0.00363717 Ry

     total magnetization       =     2.01 Bohr mag/cell
     absolute magnetization    =     3.66 Bohr mag/cell

     iteration # 49     ecut=    70.00 Ry     beta= 0.70
     Davidson diagonalization with overlap
     ethr =  4.59E-07,  avg # of iterations =  1.5

     negative rho (up, down):  2.056E-02 3.100E-02

     total cpu time spent up to now is     5510.7 secs

     total energy              =    -786.97921608 Ry
     Harris-Foulkes estimate   =    -786.97916233 Ry
     estimated scf accuracy    <       0.00410567 Ry

     total magnetization       =     2.02 Bohr mag/cell
     absolute magnetization    =     3.67 Bohr mag/cell

     iteration # 50     ecut=    70.00 Ry     beta= 0.70
     Davidson diagonalization with overlap
     ethr =  4.59E-07,  avg # of iterations =  2.0

     negative rho (up, down):  2.017E-02 3.105E-02

     total cpu time spent up to now is     5609.3 secs

     total energy              =    -786.97936920 Ry
     Harris-Foulkes estimate   =    -786.97924556 Ry
     estimated scf accuracy    <       0.00362825 Ry

     total magnetization       =     2.02 Bohr mag/cell
     absolute magnetization    =     3.68 Bohr mag/cell

     iteration # 51     ecut=    70.00 Ry     beta= 0.70
     Davidson diagonalization with overlap
     ethr =  4.59E-07,  avg # of iterations =  3.0

     negative rho (up, down):  1.924E-02 3.277E-02

     total cpu time spent up to now is     5716.1 secs

     total energy              =    -786.97972581 Ry
     Harris-Foulkes estimate   =    -786.97983730 Ry
     estimated scf accuracy    <       0.00889182 Ry

     total magnetization       =     2.04 Bohr mag/cell
     absolute magnetization    =     3.67 Bohr mag/cell

     iteration # 52     ecut=    70.00 Ry     beta= 0.70
     Davidson diagonalization with overlap
     ethr =  4.59E-07,  avg # of iterations =  3.0

     negative rho (up, down):  2.574E-02 3.249E-02

     total cpu time spent up to now is     5827.2 secs

     total energy              =    -786.96937135 Ry
     Harris-Foulkes estimate   =    -786.98010924 Ry
     estimated scf accuracy    <       0.00925227 Ry

     total magnetization       =     2.00 Bohr mag/cell
     absolute magnetization    =     3.66 Bohr mag/cell

     iteration # 53     ecut=    70.00 Ry     beta= 0.70
     Davidson diagonalization with overlap
     ethr =  4.59E-07,  avg # of iterations =  5.0

     negative rho (up, down):  2.312E-02 2.239E-02

     total cpu time spent up to now is     5961.3 secs

     total energy              =    -786.97488030 Ry
     Harris-Foulkes estimate   =    -786.97515080 Ry
     estimated scf accuracy    <       0.00080904 Ry

     total magnetization       =     2.00 Bohr mag/cell
     absolute magnetization    =     3.43 Bohr mag/cell

     iteration # 54     ecut=    70.00 Ry     beta= 0.70
     Davidson diagonalization with overlap
     ethr =  3.82E-07,  avg # of iterations =  4.5

     negative rho (up, down):  2.393E-02 2.418E-02

     total cpu time spent up to now is     6089.2 secs

     total energy              =    -786.97542257 Ry
     Harris-Foulkes estimate   =    -786.97630152 Ry
     estimated scf accuracy    <       0.00154371 Ry

     total magnetization       =     2.00 Bohr mag/cell
     absolute magnetization    =     3.55 Bohr mag/cell

     iteration # 55     ecut=    70.00 Ry     beta= 0.70
     Davidson diagonalization with overlap
     ethr =  3.82E-07,  avg # of iterations =  3.5

     negative rho (up, down):  2.566E-02 2.347E-02

     total cpu time spent up to now is     6198.5 secs

     total energy              =    -786.97451244 Ry
     Harris-Foulkes estimate   =    -786.97568930 Ry
     estimated scf accuracy    <       0.00074512 Ry

     total magnetization       =     2.00 Bohr mag/cell
     absolute magnetization    =     3.51 Bohr mag/cell

     iteration # 56     ecut=    70.00 Ry     beta= 0.70
     Davidson diagonalization with overlap
     ethr =  3.51E-07,  avg # of iterations =  4.5

     negative rho (up, down):  2.620E-02 2.052E-02

     total cpu time spent up to now is     6308.0 secs

     total energy              =    -786.97483419 Ry
     Harris-Foulkes estimate   =    -786.97508852 Ry
     estimated scf accuracy    <       0.00042754 Ry

     total magnetization       =     2.07 Bohr mag/cell
     absolute magnetization    =     3.43 Bohr mag/cell

     iteration # 57     ecut=    70.00 Ry     beta= 0.70
     Davidson diagonalization with overlap
     ethr =  2.02E-07,  avg # of iterations =  3.0

     negative rho (up, down):  2.654E-02 1.899E-02

     total cpu time spent up to now is     6413.5 secs

     total energy              =    -786.97491124 Ry
     Harris-Foulkes estimate   =    -786.97496051 Ry
     estimated scf accuracy    <       0.00004444 Ry

     total magnetization       =     2.07 Bohr mag/cell
     absolute magnetization    =     3.41 Bohr mag/cell

     iteration # 58     ecut=    70.00 Ry     beta= 0.70
     Davidson diagonalization with overlap
     ethr =  2.10E-08,  avg # of iterations =  3.5

     negative rho (up, down):  2.644E-02 1.818E-02

     total cpu time spent up to now is     6522.7 secs

     total energy              =    -786.97495455 Ry
     Harris-Foulkes estimate   =    -786.97494312 Ry
     estimated scf accuracy    <       0.00004304 Ry

     total magnetization       =     2.07 Bohr mag/cell
     absolute magnetization    =     3.40 Bohr mag/cell

     iteration # 59     ecut=    70.00 Ry     beta= 0.70
     Davidson diagonalization with overlap
     ethr =  2.03E-08,  avg # of iterations =  2.0

     negative rho (up, down):  2.634E-02 1.814E-02

     total cpu time spent up to now is     6622.0 secs

     total energy              =    -786.97496822 Ry
     Harris-Foulkes estimate   =    -786.97495657 Ry
     estimated scf accuracy    <       0.00005930 Ry

     total magnetization       =     2.07 Bohr mag/cell
     absolute magnetization    =     3.40 Bohr mag/cell

     iteration # 60     ecut=    70.00 Ry     beta= 0.70
     Davidson diagonalization with overlap
     ethr =  2.03E-08,  avg # of iterations =  2.5

     negative rho (up, down):  2.631E-02 1.822E-02

     total cpu time spent up to now is     6722.4 secs

     total energy              =    -786.97497594 Ry
     Harris-Foulkes estimate   =    -786.97497225 Ry
     estimated scf accuracy    <       0.00006747 Ry

     total magnetization       =     2.07 Bohr mag/cell
     absolute magnetization    =     3.40 Bohr mag/cell

     iteration # 61     ecut=    70.00 Ry     beta= 0.70
     Davidson diagonalization with overlap
     ethr =  2.03E-08,  avg # of iterations =  2.0

     negative rho (up, down):  2.642E-02 1.834E-02

     total cpu time spent up to now is     6822.7 secs

     total energy              =    -786.97497014 Ry
     Harris-Foulkes estimate   =    -786.97497911 Ry
     estimated scf accuracy    <       0.00010837 Ry

     total magnetization       =     2.07 Bohr mag/cell
     absolute magnetization    =     3.41 Bohr mag/cell

     iteration # 62     ecut=    70.00 Ry     beta= 0.70
     Davidson diagonalization with overlap
     ethr =  2.03E-08,  avg # of iterations =  2.0

     negative rho (up, down):  2.628E-02 1.822E-02

     total cpu time spent up to now is     6923.0 secs

     total energy              =    -786.97498168 Ry
     Harris-Foulkes estimate   =    -786.97497279 Ry
     estimated scf accuracy    <       0.00011946 Ry

     total magnetization       =     2.07 Bohr mag/cell
     absolute magnetization    =     3.40 Bohr mag/cell

     iteration # 63     ecut=    70.00 Ry     beta= 0.70
     Davidson diagonalization with overlap
     ethr =  2.03E-08,  avg # of iterations =  2.0

     negative rho (up, down):  2.621E-02 1.838E-02

     total cpu time spent up to now is     7023.6 secs

     total energy              =    -786.97498213 Ry
     Harris-Foulkes estimate   =    -786.97498473 Ry
     estimated scf accuracy    <       0.00012359 Ry

     total magnetization       =     2.07 Bohr mag/cell
     absolute magnetization    =     3.41 Bohr mag/cell

     iteration # 64     ecut=    70.00 Ry     beta= 0.70
     Davidson diagonalization with overlap
     ethr =  2.03E-08,  avg # of iterations =  2.5

     negative rho (up, down):  2.619E-02 1.854E-02

     total cpu time spent up to now is     7124.3 secs

     total energy              =    -786.97498566 Ry
     Harris-Foulkes estimate   =    -786.97498616 Ry
     estimated scf accuracy    <       0.00012498 Ry

     total magnetization       =     2.07 Bohr mag/cell
     absolute magnetization    =     3.41 Bohr mag/cell

     iteration # 65     ecut=    70.00 Ry     beta= 0.70
     Davidson diagonalization with overlap
     ethr =  2.03E-08,  avg # of iterations =  1.5

     negative rho (up, down):  2.610E-02 1.857E-02

     total cpu time spent up to now is     7222.1 secs

     total energy              =    -786.97498879 Ry
     Harris-Foulkes estimate   =    -786.97498649 Ry
     estimated scf accuracy    <       0.00012251 Ry

     total magnetization       =     2.07 Bohr mag/cell
     absolute magnetization    =     3.41 Bohr mag/cell

     iteration # 66     ecut=    70.00 Ry     beta= 0.70
     Davidson diagonalization with overlap
     ethr =  2.03E-08,  avg # of iterations =  2.5

     negative rho (up, down):  2.611E-02 1.873E-02

     total cpu time spent up to now is     7322.9 secs

     total energy              =    -786.97499034 Ry
     Harris-Foulkes estimate   =    -786.97499292 Ry
     estimated scf accuracy    <       0.00012640 Ry

     total magnetization       =     2.06 Bohr mag/cell
     absolute magnetization    =     3.41 Bohr mag/cell

     iteration # 67     ecut=    70.00 Ry     beta= 0.70
     Davidson diagonalization with overlap
     ethr =  2.03E-08,  avg # of iterations =  2.0

     negative rho (up, down):  2.644E-02 1.879E-02

     total cpu time spent up to now is     7421.3 secs

     total energy              =    -786.97494484 Ry
     Harris-Foulkes estimate   =    -786.97499252 Ry
     estimated scf accuracy    <       0.00014309 Ry

     total magnetization       =     2.07 Bohr mag/cell
     absolute magnetization    =     3.41 Bohr mag/cell

     iteration # 68     ecut=    70.00 Ry     beta= 0.70
     Davidson diagonalization with overlap
     ethr =  2.03E-08,  avg # of iterations =  3.0

     negative rho (up, down):  2.632E-02 1.836E-02

     total cpu time spent up to now is     7531.0 secs

     total energy              =    -786.97499941 Ry
     Harris-Foulkes estimate   =    -786.97498159 Ry
     estimated scf accuracy    <       0.00020573 Ry

     total magnetization       =     2.09 Bohr mag/cell
     absolute magnetization    =     3.40 Bohr mag/cell

     iteration # 69     ecut=    70.00 Ry     beta= 0.70
     Davidson diagonalization with overlap
     ethr =  2.03E-08,  avg # of iterations =  3.0

     negative rho (up, down):  2.670E-02 1.843E-02

     total cpu time spent up to now is     7635.0 secs

     total energy              =    -786.97500481 Ry
     Harris-Foulkes estimate   =    -786.97501276 Ry
     estimated scf accuracy    <       0.00025420 Ry

     total magnetization       =     2.07 Bohr mag/cell
     absolute magnetization    =     3.40 Bohr mag/cell

     iteration # 70     ecut=    70.00 Ry     beta= 0.70
     Davidson diagonalization with overlap
     ethr =  2.03E-08,  avg # of iterations =  3.5

     negative rho (up, down):  2.657E-02 1.815E-02

     total cpu time spent up to now is     7758.5 secs

     total energy              =    -786.97507648 Ry
     Harris-Foulkes estimate   =    -786.97507473 Ry
     estimated scf accuracy    <       0.00077655 Ry

     total magnetization       =     2.07 Bohr mag/cell
     absolute magnetization    =     3.39 Bohr mag/cell

     iteration # 71     ecut=    70.00 Ry     beta= 0.70
     Davidson diagonalization with overlap
     ethr =  2.03E-08,  avg # of iterations =  3.0

     negative rho (up, down):  2.635E-02 1.834E-02

     total cpu time spent up to now is     7872.9 secs

     total energy              =    -786.97507325 Ry
     Harris-Foulkes estimate   =    -786.97509917 Ry
     estimated scf accuracy    <       0.00091027 Ry

     total magnetization       =     2.06 Bohr mag/cell
     absolute magnetization    =     3.40 Bohr mag/cell

     iteration # 72     ecut=    70.00 Ry     beta= 0.70
     Davidson diagonalization with overlap
     ethr =  2.03E-08,  avg # of iterations =  3.0

     negative rho (up, down):  2.569E-02 1.847E-02

     total cpu time spent up to now is     7981.7 secs

     total energy              =    -786.97502883 Ry
     Harris-Foulkes estimate   =    -786.97508992 Ry
     estimated scf accuracy    <       0.00074679 Ry

     total magnetization       =     2.04 Bohr mag/cell
     absolute magnetization    =     3.40 Bohr mag/cell

     iteration # 73     ecut=    70.00 Ry     beta= 0.70
     Davidson diagonalization with overlap
     ethr =  2.03E-08,  avg # of iterations =  4.0

     negative rho (up, down):  2.540E-02 1.931E-02

     total cpu time spent up to now is     8098.5 secs

     total energy              =    -786.97513584 Ry
     Harris-Foulkes estimate   =    -786.97512570 Ry
     estimated scf accuracy    <       0.00046399 Ry

     total magnetization       =     2.05 Bohr mag/cell
     absolute magnetization    =     3.43 Bohr mag/cell

     iteration # 74     ecut=    70.00 Ry     beta= 0.70
     Davidson diagonalization with overlap
     ethr =  2.03E-08,  avg # of iterations =  3.5

     negative rho (up, down):  2.559E-02 1.994E-02

     total cpu time spent up to now is     8206.1 secs

     total energy              =    -786.97510798 Ry
     Harris-Foulkes estimate   =    -786.97517121 Ry
     estimated scf accuracy    <       0.00032270 Ry

     total magnetization       =     2.05 Bohr mag/cell
     absolute magnetization    =     3.44 Bohr mag/cell

     iteration # 75     ecut=    70.00 Ry     beta= 0.70
     Davidson diagonalization with overlap
     ethr =  2.03E-08,  avg # of iterations =  3.0

     negative rho (up, down):  2.653E-02 1.990E-02

     total cpu time spent up to now is     8308.8 secs

     total energy              =    -786.97467733 Ry
     Harris-Foulkes estimate   =    -786.97512185 Ry
     estimated scf accuracy    <       0.00031967 Ry

     total magnetization       =     2.07 Bohr mag/cell
     absolute magnetization    =     3.43 Bohr mag/cell

     iteration # 76     ecut=    70.00 Ry     beta= 0.70
     Davidson diagonalization with overlap
     ethr =  2.03E-08,  avg # of iterations =  5.0

     negative rho (up, down):  2.698E-02 1.851E-02

     total cpu time spent up to now is     8432.0 secs

     total energy              =    -786.97483119 Ry
     Harris-Foulkes estimate   =    -786.97494751 Ry
     estimated scf accuracy    <       0.00014936 Ry

     total magnetization       =     2.05 Bohr mag/cell
     absolute magnetization    =     3.40 Bohr mag/cell

     iteration # 77     ecut=    70.00 Ry     beta= 0.70
     Davidson diagonalization with overlap
     ethr =  2.03E-08,  avg # of iterations =  5.5

     negative rho (up, down):  2.699E-02 1.742E-02

     total cpu time spent up to now is     8556.0 secs

     total energy              =    -786.97492117 Ry
     Harris-Foulkes estimate   =    -786.97493039 Ry
     estimated scf accuracy    <       0.00003295 Ry

     total magnetization       =     2.07 Bohr mag/cell
     absolute magnetization    =     3.39 Bohr mag/cell

     iteration # 78     ecut=    70.00 Ry     beta= 0.70
     Davidson diagonalization with overlap
     ethr =  1.55E-08,  avg # of iterations =  3.5

     negative rho (up, down):  2.681E-02 1.717E-02

     total cpu time spent up to now is     8658.4 secs

     total energy              =    -786.97490217 Ry
     Harris-Foulkes estimate   =    -786.97492649 Ry
     estimated scf accuracy    <       0.00001640 Ry

     total magnetization       =     2.08 Bohr mag/cell
     absolute magnetization    =     3.39 Bohr mag/cell

     iteration # 79     ecut=    70.00 Ry     beta= 0.70
     Davidson diagonalization with overlap
     ethr =  7.74E-09,  avg # of iterations =  3.0

     negative rho (up, down):  2.683E-02 1.728E-02

     total cpu time spent up to now is     8766.5 secs

     total energy              =    -786.97491916 Ry
     Harris-Foulkes estimate   =    -786.97492062 Ry
     estimated scf accuracy    <       0.00001027 Ry

     total magnetization       =     2.08 Bohr mag/cell
     absolute magnetization    =     3.39 Bohr mag/cell

     iteration # 80     ecut=    70.00 Ry     beta= 0.70
     Davidson diagonalization with overlap
     ethr =  4.85E-09,  avg # of iterations =  2.5

     negative rho (up, down):  2.683E-02 1.731E-02

     Magnetic moment per site:
     atom:    1    charge:    0.2115    magn:    0.0000    constr:    0.0000
     atom:    2    charge:    0.2111    magn:    0.0000    constr:    0.0000
     atom:    3    charge:    1.7169    magn:   -0.0123    constr:    0.0000
     atom:    4    charge:    1.7158    magn:    0.0181    constr:    0.0000
     atom:    5    charge:    1.7178    magn:   -0.0083    constr:    0.0000
     atom:    6    charge:    1.7142    magn:    0.0058    constr:    0.0000
     atom:    7    charge:    1.7178    magn:   -0.0083    constr:    0.0000
     atom:    8    charge:    1.7158    magn:    0.0181    constr:    0.0000
     atom:    9    charge:    1.7169    magn:   -0.0123    constr:    0.0000
     atom:   10    charge:    1.7162    magn:    0.0597    constr:    0.0000
     atom:   11    charge:    1.7173    magn:   -0.0184    constr:    0.0000
     atom:   12    charge:    1.7162    magn:    0.0597    constr:    0.0000
     atom:   13    charge:    1.7173    magn:   -0.0184    constr:    0.0000
     atom:   14    charge:    1.7164    magn:    0.0477    constr:    0.0000
     atom:   15    charge:    1.7146    magn:   -0.0160    constr:    0.0000
     atom:   16    charge:    1.7129    magn:    0.0636    constr:    0.0000
     atom:   17    charge:    1.7248    magn:   -0.0110    constr:    0.0000
     atom:   18    charge:    1.7129    magn:    0.0636    constr:    0.0000
     atom:   19    charge:    1.7145    magn:   -0.0160    constr:    0.0000
     atom:   20    charge:    1.7164    magn:    0.0477    constr:    0.0000
     atom:   21    charge:    1.7173    magn:   -0.0184    constr:    0.0000
     atom:   22    charge:    1.7162    magn:    0.0597    constr:    0.0000
     atom:   23    charge:    1.7169    magn:   -0.0123    constr:    0.0000
     atom:   24    charge:    1.7158    magn:    0.0181    constr:    0.0000
     atom:   25    charge:    1.7146    magn:   -0.0160    constr:    0.0000
     atom:   26    charge:    1.7130    magn:    0.0636    constr:    0.0000
     atom:   27    charge:    1.9061    magn:   -0.0243    constr:    0.0000
     atom:   28    charge:    8.9101    magn:    0.3438    constr:    0.0000
     atom:   29    charge:    1.9060    magn:   -0.0243    constr:    0.0000
     atom:   30    charge:    1.7129    magn:    0.0636    constr:    0.0000
     atom:   31    charge:    1.7145    magn:   -0.0160    constr:    0.0000
     atom:   32    charge:    1.7158    magn:    0.0181    constr:    0.0000
     atom:   33    charge:    1.7178    magn:   -0.0083    constr:    0.0000
     atom:   34    charge:    1.7144    magn:    0.0122    constr:    0.0000
     atom:   35    charge:    1.7178    magn:   -0.0083    constr:    0.0000
     atom:   36    charge:    1.7142    magn:    0.0058    constr:    0.0000
     atom:   37    charge:    1.7249    magn:   -0.0110    constr:    0.0000
     atom:   38    charge:    1.7130    magn:    0.0636    constr:    0.0000
     atom:   39    charge:    1.9061    magn:   -0.0243    constr:    0.0000
     atom:   40    charge:    1.7129    magn:    0.0636    constr:    0.0000
     atom:   41    charge:    1.7248    magn:   -0.0110    constr:    0.0000
     atom:   42    charge:    1.7142    magn:    0.0058    constr:    0.0000
     atom:   43    charge:    1.7178    magn:   -0.0083    constr:    0.0000
     atom:   44    charge:    1.7143    magn:    0.0122    constr:    0.0000
     atom:   45    charge:    1.7236    magn:   -0.0004    constr:    0.0000
     atom:   46    charge:    1.7144    magn:    0.0122    constr:    0.0000
     atom:   47    charge:    1.7178    magn:   -0.0083    constr:    0.0000
     atom:   48    charge:    1.7158    magn:    0.0181    constr:    0.0000
     atom:   49    charge:    1.7146    magn:   -0.0160    constr:    0.0000
     atom:   50    charge:    1.7164    magn:    0.0477    constr:    0.0000
     atom:   51    charge:    1.7146    magn:   -0.0160    constr:    0.0000
     atom:   52    charge:    1.7158    magn:    0.0181    constr:    0.0000

     total cpu time spent up to now is     8867.8 secs

     End of self-consistent calculation

 ------ SPIN UP ------------


          k = 0.0000 0.0000 0.0000 ( 87777 PWs)   bands (ev):

   -72.1885 -44.4793 -44.4777 -43.6380 -19.6585 -18.8262 -18.8262 -18.7223
   -18.7223 -18.7205 -18.3703 -16.9728 -16.9727 -16.9645 -16.8729 -16.8729
   -16.5503 -16.1265 -16.1265 -16.0133 -15.9431 -15.9430 -15.2166 -13.9977
   -13.9976 -13.9622 -13.8722 -13.8721 -13.2007 -12.9551 -12.9551 -12.9290
   -12.6031 -12.6030 -12.1666 -11.7205 -11.7205 -11.5523 -11.2542 -11.2540
   -10.2783  -9.5037  -9.5036  -9.3424  -9.2109  -9.2109  -9.1027  -9.0779
    -9.0779  -9.0611  -8.5550  -8.5548  -8.0087  -8.0087  -7.9061  -7.8388
    -7.7185  -7.2995  -7.2995  -7.1248  -7.1247  -6.9975  -6.7360  -6.7213
    -6.7212  -6.7207  -6.7207  -6.7174  -6.6110  -6.4496  -6.4496  -6.4469
    -6.4119  -6.4066  -6.4065  -6.3609  -5.4836  -5.4834  -5.3488  -5.3485
    -5.0795  -5.0795  -4.8673  -4.7734  -4.6543  -4.6419  -4.6419  -4.3278
    -4.2833  -4.0895  -4.0894  -3.7944  -3.7943  -3.6867  -3.6393  -3.6378
    -3.5284  -3.5283  -3.0080  -2.5234  -2.5233  -1.8244  -1.6912  -1.6912
    -0.8016  -0.8015  -0.6845  -0.5673   0.9836   1.0651   1.0651   1.7211
     1.7971   1.7971   2.4953   2.8527   2.8527   2.9471   3.3137   3.3584
     3.3600   3.6987   3.6999   3.7242   3.7242   3.7402   3.7430

     occupation numbers 
     1.0000   1.0000   1.0000   1.0000   1.0000   1.0000   1.0000   1.0000
     1.0000   1.0000   1.0000   1.0000   1.0000   1.0000   1.0000   1.0000
     1.0000   1.0000   1.0000   1.0000   1.0000   1.0000   1.0000   1.0000
     1.0000   1.0000   1.0000   1.0000   1.0000   1.0000   1.0000   1.0000
     1.0000   1.0000   1.0000   1.0000   1.0000   1.0000   1.0000   1.0000
     1.0000   1.0000   1.0000   1.0000   1.0000   1.0000   1.0000   1.0000
     1.0000   1.0000   1.0000   1.0000   1.0000   1.0000   1.0000   1.0000
     1.0000   1.0000   1.0000   1.0000   1.0000   1.0000   1.0000   1.0000
     1.0000   1.0000   1.0000   1.0000   1.0000   1.0000   1.0000   1.0000
     1.0000   1.0000   1.0000   1.0000   1.0000   1.0000   1.0000   1.0000
     1.0000   1.0000   1.0000   1.0000   1.0000   1.0000   1.0000   1.0000
     1.0000   1.0000   1.0000   1.0000   1.0000   1.0000   1.0000   1.0000
     1.0000   1.0000   1.0000   1.0000   1.0000   1.0000   1.0000   1.0000
     1.0000   1.0000   1.0369   0.0000   0.0000   0.0000   0.0000   0.0000
     0.0000   0.0000   0.0000   0.0000   0.0000   0.0000   0.0000   0.0000
     0.0000   0.0000   0.0000   0.0000   0.0000   0.0000   0.0000

 ------ SPIN DOWN ----------


          k = 0.0000 0.0000 0.0000 ( 87777 PWs)   bands (ev):

   -71.5535 -43.8820 -43.8801 -42.7920 -19.6154 -18.7779 -18.7778 -18.6949
   -18.6949 -18.6793 -18.3058 -16.9339 -16.9332 -16.9332 -16.8210 -16.8210
   -16.5200 -16.0749 -16.0749 -15.9787 -15.9078 -15.9078 -15.1900 -13.9354
   -13.9353 -13.8873 -13.8607 -13.8606 -13.2042 -12.9302 -12.9302 -12.8958
   -12.5968 -12.5967 -12.1336 -11.6837 -11.6837 -11.5266 -11.2460 -11.2459
   -10.2544  -9.4694  -9.4693  -9.3107  -9.1757  -9.1757  -9.0861  -9.0514
    -9.0514  -9.0422  -8.5601  -8.5600  -7.9834  -7.9834  -7.8914  -7.7352
    -7.6995  -7.2921  -7.2921  -6.9644  -6.9510  -6.9509  -6.7354  -6.7003
    -6.7003  -6.6589  -6.6587  -6.6092  -6.5932  -6.4277  -6.4277  -6.4000
    -6.3953  -6.3953  -6.3429  -6.2964  -5.3626  -5.3624  -5.3038  -5.3036
    -5.0604  -5.0604  -4.8524  -4.7626  -4.5737  -4.5367  -4.5367  -4.2564
    -4.2051  -3.9852  -3.9852  -3.7100  -3.7090  -3.6487  -3.6486  -3.5887
    -3.4999  -3.4998  -2.9463  -2.3533  -2.3531  -1.6621  -1.6621  -1.6372
    -0.6679  -0.3219  -0.2829  -0.2828   1.1100   1.1100   1.1474   1.8684
     1.9480   1.9480   2.4945   2.9987   2.9988   3.0279   3.2197   3.2218
     3.3368   3.5561   3.5570   3.7095   3.7098   3.7564   3.8891

     occupation numbers 
     1.0000   1.0000   1.0000   1.0000   1.0000   1.0000   1.0000   1.0000
     1.0000   1.0000   1.0000   1.0000   1.0000   1.0000   1.0000   1.0000
     1.0000   1.0000   1.0000   1.0000   1.0000   1.0000   1.0000   1.0000
     1.0000   1.0000   1.0000   1.0000   1.0000   1.0000   1.0000   1.0000
     1.0000   1.0000   1.0000   1.0000   1.0000   1.0000   1.0000   1.0000
     1.0000   1.0000   1.0000   1.0000   1.0000   1.0000   1.0000   1.0000
     1.0000   1.0000   1.0000   1.0000   1.0000   1.0000   1.0000   1.0000
     1.0000   1.0000   1.0000   1.0000   1.0000   1.0000   1.0000   1.0000
     1.0000   1.0000   1.0000   1.0000   1.0000   1.0000   1.0000   1.0000
     1.0000   1.0000   1.0000   1.0000   1.0000   1.0000   1.0000   1.0000
     1.0000   1.0000   1.0000   1.0000   1.0000   1.0000   1.0000   1.0000
     1.0000   1.0000   1.0000   1.0000   1.0000   1.0000   1.0000   1.0000
     1.0000   1.0000   1.0000   1.0000   1.0000   1.0000   1.0000   1.0000
     0.9631   0.0000   0.0000   0.0000   0.0000   0.0000   0.0000   0.0000
     0.0000   0.0000   0.0000   0.0000   0.0000   0.0000   0.0000   0.0000
     0.0000   0.0000   0.0000   0.0000   0.0000   0.0000   0.0000

     the Fermi energy is    -0.6566 ev

!    total energy              =    -786.97491315 Ry
     Harris-Foulkes estimate   =    -786.97492087 Ry
     estimated scf accuracy    <       0.00000081 Ry

     The total energy is the sum of the following terms:

     one-electron contribution =   -2629.91778675 Ry
     hartree contribution      =    1360.64670496 Ry
     xc contribution           =    -254.50904977 Ry
     ewald contribution        =     736.80508100 Ry
     smearing contrib. (-TS)   =       0.00013741 Ry

     total magnetization       =     2.07 Bohr mag/cell
     absolute magnetization    =     3.39 Bohr mag/cell

     convergence has been achieved in  80 iterations

     Writing output data file distance-4.5.save/

     init_run     :     77.73s CPU     79.07s WALL (       1 calls)
     electrons    :   8642.60s CPU   8787.77s WALL (       1 calls)

     Called by init_run:
     wfcinit      :     45.10s CPU     45.40s WALL (       1 calls)
     wfcinit:atom :      0.06s CPU      0.10s WALL (       2 calls)
     wfcinit:wfcr :     44.68s CPU     44.89s WALL (       2 calls)
     potinit      :     13.53s CPU     13.95s WALL (       1 calls)
     hinit0       :      9.85s CPU      9.90s WALL (       1 calls)

     Called by electrons:
     c_bands      :   5568.59s CPU   5593.84s WALL (      80 calls)
     sum_band     :   1789.10s CPU   1837.27s WALL (      80 calls)
     v_of_rho     :    608.83s CPU    636.36s WALL (      81 calls)
     v_h          :      6.37s CPU      6.53s WALL (      81 calls)
     v_xc         :    602.46s CPU    629.82s WALL (      81 calls)
     newd         :    630.41s CPU    674.59s WALL (      81 calls)
     mix_rho      :     41.12s CPU     41.63s WALL (      80 calls)

     Called by c_bands:
     init_us_2    :     15.88s CPU     15.94s WALL (     322 calls)
     cegterg      :   5530.13s CPU   5555.26s WALL (     160 calls)

     Called by sum_band:
     sum_band:bec :      0.13s CPU      0.13s WALL (     160 calls)
     addusdens    :   1114.20s CPU   1158.46s WALL (      80 calls)

     Called by *egterg:
     h_psi        :   2831.73s CPU   2849.67s WALL (     693 calls)
     s_psi        :    957.45s CPU    957.75s WALL (     693 calls)
     g_psi        :      2.91s CPU      2.91s WALL (     531 calls)
     cdiaghg      :     48.64s CPU     48.66s WALL (     691 calls)
     cegterg:over :    705.97s CPU    706.16s WALL (     531 calls)
     cegterg:upda :    437.41s CPU    439.27s WALL (     531 calls)
     cegterg:last :    294.01s CPU    294.05s WALL (     160 calls)

     Called by h_psi:
     h_psi:pot    :   2828.37s CPU   2842.73s WALL (     693 calls)
     h_psi:calbec :    968.75s CPU    969.00s WALL (     693 calls)
     vloc_psi     :    903.04s CPU    916.96s WALL (     693 calls)
     add_vuspsi   :    956.58s CPU    956.76s WALL (     693 calls)

     General routines
     calbec       :   1381.89s CPU   1382.23s WALL (     853 calls)
     fft          :    356.43s CPU    367.28s WALL (    6069 calls)
     ffts         :      6.22s CPU      6.39s WALL (     322 calls)
     fftw         :    949.14s CPU    964.15s WALL (  115772 calls)
     interpolate  :     14.67s CPU     15.02s WALL (     162 calls)

     Parallel routines
     fft_scatt_xy :    232.73s CPU    235.33s WALL (  122163 calls)
     fft_scatt_yz :    441.73s CPU    461.47s WALL (  122163 calls)

     PWSCF        :      2h25m CPU      2h27m WALL


   This run was terminated on:   8: 1:38  15Aug2022            

=------------------------------------------------------------------------------=
   JOB DONE.
=------------------------------------------------------------------------------=
