
     Program PWSCF v.6.4.1 starts on 31Aug2022 at 10:59:53 

     This program is part of the open-source Quantum ESPRESSO suite
     for quantum simulation of materials; please cite
         "P. Giannozzi et al., J. Phys.:Condens. Matter 21 395502 (2009);
         "P. Giannozzi et al., J. Phys.:Condens. Matter 29 465901 (2017);
          URL http://www.quantum-espresso.org", 
     in publications or presentations arising from this work. More details at
     http://www.quantum-espresso.org/quote

     Parallel version (MPI), running on     6 processors

     MPI processes distributed on     1 nodes
     R & G space division:  proc/nbgrp/npool/nimage =       6
     Reading input from distance-4.5.in

     Current dimensions of program PWSCF are:
     Max number of different atomic species (ntypx) = 10
     Max number of k-points (npk) =  40000
     Max angular momentum in pseudopotentials (lmaxx) =  3

     IMPORTANT: XC functional enforced from input :
     Exchange-correlation      = RVV10 ( 1  4 13  4 3 0)
     Any further DFT definition will be discarded
     Please, verify this is what you really want

               file H.pbe-rrkjus.UPF: wavefunction(s)  1S renormalized
               file V.pbe-spnl-rrkjus_psl.1.0.0.UPF: wavefunction(s)  3P 3D renormalized

     Subspace diagonalization in iterative solution of the eigenvalue problem:
     a serial algorithm will be used


     Parallelization info
     --------------------
     sticks:   dense  smooth     PW     G-vecs:    dense   smooth      PW
     Min        3051    1746    432               270999   117096   14629
     Max        3053    1747    437               271001   117099   14630
     Sum       18313   10477   2611              1626001   702581   87777



     bravais-lattice index     =            4
     lattice parameter (alat)  =      23.2937  a.u.
     unit-cell volume          =    8879.8548 (a.u.)^3
     number of atoms/cell      =           52
     number of atomic types    =            3
     number of electrons       =       211.00
     number of Kohn-Sham states=          127
     kinetic-energy cutoff     =      70.0000  Ry
     charge density cutoff     =     490.0000  Ry
     convergence threshold     =      1.0E-06
     mixing beta               =       0.7000
     number of iterations used =            8  plain     mixing
     Exchange-correlation      = RVV10 ( 1  4 13  4 3 0)

     celldm(1)=  23.293684  celldm(2)=   0.000000  celldm(3)=   0.811261
     celldm(4)=   0.000000  celldm(5)=   0.000000  celldm(6)=   0.000000

     crystal axes: (cart. coord. in units of alat)
               a(1) = (   1.000000   0.000000   0.000000 )  
               a(2) = (  -0.500000   0.866025   0.000000 )  
               a(3) = (   0.000000   0.000000   0.811261 )  

     reciprocal axes: (cart. coord. in units 2 pi/alat)
               b(1) = (  1.000000  0.577350 -0.000000 )  
               b(2) = (  0.000000  1.154701  0.000000 )  
               b(3) = (  0.000000 -0.000000  1.232649 )  


     PseudoPot. # 1 for H  read from file:
     /home/cristian/Escritorio/Proyecto_Grafeno/pseudopotenciales/H.pbe-rrkjus.UPF
     MD5 check sum: 7cc9d459525c9a0585f487a71c3c9563
     Pseudo is Ultrasoft, Zval =  1.0
     Generated by new atomic code, or converted to UPF format
     Using radial grid of 1061 points,  2 beta functions with: 
                l(1) =   0
                l(2) =   0
     Q(r) pseudized with 0 coefficients 


     PseudoPot. # 2 for C  read from file:
     /home/cristian/Escritorio/Proyecto_Grafeno/pseudopotenciales/C.pbe-n-rrkjus_psl.1.0.0.UPF
     MD5 check sum: 1fdd950c42eb37d8afe3dd2f8d12311e
     Pseudo is Ultrasoft + core correction, Zval =  4.0
     Generated using "atomic" code by A. Dal Corso v.6.3MaX
     Using radial grid of 1073 points,  4 beta functions with: 
                l(1) =   0
                l(2) =   0
                l(3) =   1
                l(4) =   1
     Q(r) pseudized with 0 coefficients 


     PseudoPot. # 3 for V  read from file:
     /home/cristian/Escritorio/Proyecto_Grafeno/pseudopotenciales/V.pbe-spnl-rrkjus_psl.1.0.0.UPF
     MD5 check sum: 79b3eb63147daf0b665d9f1bcc691206
     Pseudo is Ultrasoft + core correction, Zval = 13.0
     Generated using "atomic" code by A. Dal Corso v.6.2.2
     Using radial grid of 1181 points,  6 beta functions with: 
                l(1) =   0
                l(2) =   0
                l(3) =   1
                l(4) =   1
                l(5) =   2
                l(6) =   2
     Q(r) pseudized with 0 coefficients 


     vdW kernel table read from file rVV10_kernel_table
     MD5 check sum: b8e2538accc0c0b3206b45ba4daaba6c

     atomic species   valence    mass     pseudopotential
        H              1.00     1.00794     H ( 1.00)
        C              4.00    12.01070     C ( 1.00)
        V             13.00    50.94150     V ( 1.00)

     No symmetry found


                                    s                        frac. trans.

      isym =  1     identity                                     

 cryst.   s( 1) = (     1          0          0      )
                  (     0          1          0      )
                  (     0          0          1      )

 cart.    s( 1) = (  1.0000000  0.0000000  0.0000000 )
                  (  0.0000000  1.0000000  0.0000000 )
                  (  0.0000000  0.0000000  1.0000000 )


     point group C_1 (1)    
     there are  1 classes
     the character table:

       E    
A      1.00

     the symmetry operations in each class and the name of the first element:

     E        1
          identity                                               

   Cartesian axes

     site n.     atom                  positions (alat units)
         1           H   tau(   1) = (   0.2361603   0.4618802   0.3650675  )
         2           H   tau(   2) = (   0.2971730   0.4618802   0.3650675  )
         3           C   tau(   3) = (   0.0000000   0.0000000   0.0000000  )
         4           C   tau(   4) = (   0.0000000   0.1154701   0.0000000  )
         5           C   tau(   5) = (  -0.1000000   0.1732051   0.0000000  )
         6           C   tau(   6) = (  -0.1000000   0.2886751   0.0000000  )
         7           C   tau(   7) = (  -0.2000000   0.3464102   0.0000000  )
         8           C   tau(   8) = (  -0.2000000   0.4618802   0.0000000  )
         9           C   tau(   9) = (  -0.3000000   0.5196152   0.0000000  )
        10           C   tau(  10) = (  -0.3000000   0.6350853   0.0000000  )
        11           C   tau(  11) = (  -0.4000000   0.6928203   0.0000000  )
        12           C   tau(  12) = (  -0.4000000   0.8082904   0.0000000  )
        13           C   tau(  13) = (   0.2000000   0.0000000   0.0000000  )
        14           C   tau(  14) = (   0.2000000   0.1154701   0.0000000  )
        15           C   tau(  15) = (   0.1000000   0.1732051   0.0000000  )
        16           C   tau(  16) = (   0.1000000   0.2886751   0.0000000  )
        17           C   tau(  17) = (   0.0000000   0.3464102   0.0000000  )
        18           C   tau(  18) = (   0.0000000   0.4618802   0.0000000  )
        19           C   tau(  19) = (  -0.1000000   0.5196152   0.0000000  )
        20           C   tau(  20) = (  -0.1000000   0.6350853   0.0000000  )
        21           C   tau(  21) = (  -0.2000000   0.6928203   0.0000000  )
        22           C   tau(  22) = (  -0.2000000   0.8082904   0.0000000  )
        23           C   tau(  23) = (   0.4000000   0.0000000   0.0000000  )
        24           C   tau(  24) = (   0.4000000   0.1154701   0.0000000  )
        25           C   tau(  25) = (   0.3000000   0.1732051   0.0000000  )
        26           C   tau(  26) = (   0.3000000   0.2886751   0.0000000  )
        27           C   tau(  27) = (   0.2000000   0.3464102   0.0000000  )
        28           V   tau(  28) = (   0.2000000   0.4618802   0.0000000  )
        29           C   tau(  29) = (   0.1000000   0.5196152   0.0000000  )
        30           C   tau(  30) = (   0.1000000   0.6350853   0.0000000  )
        31           C   tau(  31) = (   0.0000000   0.6928203   0.0000000  )
        32           C   tau(  32) = (   0.0000000   0.8082904   0.0000000  )
        33           C   tau(  33) = (   0.6000000   0.0000000   0.0000000  )
        34           C   tau(  34) = (   0.6000000   0.1154701   0.0000000  )
        35           C   tau(  35) = (   0.5000000   0.1732051   0.0000000  )
        36           C   tau(  36) = (   0.5000000   0.2886751   0.0000000  )
        37           C   tau(  37) = (   0.4000000   0.3464102   0.0000000  )
        38           C   tau(  38) = (   0.4000000   0.4618802   0.0000000  )
        39           C   tau(  39) = (   0.3000000   0.5196152   0.0000000  )
        40           C   tau(  40) = (   0.3000000   0.6350853   0.0000000  )
        41           C   tau(  41) = (   0.2000000   0.6928203   0.0000000  )
        42           C   tau(  42) = (   0.2000000   0.8082904   0.0000000  )
        43           C   tau(  43) = (   0.8000000   0.0000000   0.0000000  )
        44           C   tau(  44) = (   0.8000000   0.1154701   0.0000000  )
        45           C   tau(  45) = (   0.7000000   0.1732051   0.0000000  )
        46           C   tau(  46) = (   0.7000000   0.2886751   0.0000000  )
        47           C   tau(  47) = (   0.6000000   0.3464102   0.0000000  )
        48           C   tau(  48) = (   0.6000000   0.4618802   0.0000000  )
        49           C   tau(  49) = (   0.5000000   0.5196152   0.0000000  )
        50           C   tau(  50) = (   0.5000000   0.6350853   0.0000000  )
        51           C   tau(  51) = (   0.4000000   0.6928203   0.0000000  )
        52           C   tau(  52) = (   0.4000000   0.8082904   0.0000000  )

   Crystallographic axes

     site n.     atom                  positions (cryst. coord.)
         1           H   tau(   1) = (  0.5028270  0.5333333  0.4500000  )
         2           H   tau(   2) = (  0.5638397  0.5333333  0.4500000  )
         3           C   tau(   3) = (  0.0000000  0.0000000  0.0000000  )
         4           C   tau(   4) = (  0.0666667  0.1333333  0.0000000  )
         5           C   tau(   5) = (  0.0000000  0.2000000  0.0000000  )
         6           C   tau(   6) = (  0.0666667  0.3333333  0.0000000  )
         7           C   tau(   7) = (  0.0000000  0.4000000  0.0000000  )
         8           C   tau(   8) = (  0.0666667  0.5333333  0.0000000  )
         9           C   tau(   9) = (  0.0000000  0.6000000  0.0000000  )
        10           C   tau(  10) = (  0.0666667  0.7333333  0.0000000  )
        11           C   tau(  11) = (  0.0000000  0.8000000  0.0000000  )
        12           C   tau(  12) = (  0.0666667  0.9333333  0.0000000  )
        13           C   tau(  13) = (  0.2000000  0.0000000  0.0000000  )
        14           C   tau(  14) = (  0.2666667  0.1333333  0.0000000  )
        15           C   tau(  15) = (  0.2000000  0.2000000  0.0000000  )
        16           C   tau(  16) = (  0.2666667  0.3333333  0.0000000  )
        17           C   tau(  17) = (  0.2000000  0.4000000  0.0000000  )
        18           C   tau(  18) = (  0.2666667  0.5333333  0.0000000  )
        19           C   tau(  19) = (  0.2000000  0.6000000  0.0000000  )
        20           C   tau(  20) = (  0.2666667  0.7333333  0.0000000  )
        21           C   tau(  21) = (  0.2000000  0.8000000  0.0000000  )
        22           C   tau(  22) = (  0.2666667  0.9333333  0.0000000  )
        23           C   tau(  23) = (  0.4000000  0.0000000  0.0000000  )
        24           C   tau(  24) = (  0.4666667  0.1333333  0.0000000  )
        25           C   tau(  25) = (  0.4000000  0.2000000  0.0000000  )
        26           C   tau(  26) = (  0.4666667  0.3333333  0.0000000  )
        27           C   tau(  27) = (  0.4000000  0.4000000  0.0000000  )
        28           V   tau(  28) = (  0.4666667  0.5333333  0.0000000  )
        29           C   tau(  29) = (  0.4000000  0.6000000  0.0000000  )
        30           C   tau(  30) = (  0.4666667  0.7333333  0.0000000  )
        31           C   tau(  31) = (  0.4000000  0.8000000  0.0000000  )
        32           C   tau(  32) = (  0.4666667  0.9333333  0.0000000  )
        33           C   tau(  33) = (  0.6000000  0.0000000  0.0000000  )
        34           C   tau(  34) = (  0.6666667  0.1333333  0.0000000  )
        35           C   tau(  35) = (  0.6000000  0.2000000  0.0000000  )
        36           C   tau(  36) = (  0.6666667  0.3333333  0.0000000  )
        37           C   tau(  37) = (  0.6000000  0.4000000  0.0000000  )
        38           C   tau(  38) = (  0.6666667  0.5333333  0.0000000  )
        39           C   tau(  39) = (  0.6000000  0.6000000  0.0000000  )
        40           C   tau(  40) = (  0.6666667  0.7333333  0.0000000  )
        41           C   tau(  41) = (  0.6000000  0.8000000  0.0000000  )
        42           C   tau(  42) = (  0.6666667  0.9333333  0.0000000  )
        43           C   tau(  43) = (  0.8000000  0.0000000  0.0000000  )
        44           C   tau(  44) = (  0.8666667  0.1333333  0.0000000  )
        45           C   tau(  45) = (  0.8000000  0.2000000  0.0000000  )
        46           C   tau(  46) = (  0.8666667  0.3333333  0.0000000  )
        47           C   tau(  47) = (  0.8000000  0.4000000  0.0000000  )
        48           C   tau(  48) = (  0.8666667  0.5333333  0.0000000  )
        49           C   tau(  49) = (  0.8000000  0.6000000  0.0000000  )
        50           C   tau(  50) = (  0.8666667  0.7333333  0.0000000  )
        51           C   tau(  51) = (  0.8000000  0.8000000  0.0000000  )
        52           C   tau(  52) = (  0.8666667  0.9333333  0.0000000  )

     number of k points=     1  Marzari-Vanderbilt smearing, width (Ry)=  0.0010
                       cart. coord. in units 2pi/alat
        k(    1) = (   0.0000000   0.0000000   0.0000000), wk =   2.0000000

                       cryst. coord.
        k(    1) = (   0.0000000   0.0000000   0.0000000), wk =   2.0000000

     Dense  grid:  1626001 G-vectors     FFT dimensions: ( 180, 180, 135)

     Smooth grid:   702581 G-vectors     FFT dimensions: ( 125, 125, 108)

     Dynamical RAM for                 wfc:      28.36 MB

     Dynamical RAM for     wfc (w. buffer):      28.36 MB

     Dynamical RAM for           str. fact:      12.41 MB

     Dynamical RAM for           local pot:       0.00 MB

     Dynamical RAM for          nlocal pot:      92.46 MB

     Dynamical RAM for                qrad:      19.73 MB

     Dynamical RAM for          rho,v,vnew:      29.46 MB

     Dynamical RAM for               rhoin:       9.82 MB

     Dynamical RAM for            rho*nmix:      66.16 MB

     Dynamical RAM for           G-vectors:      16.40 MB

     Dynamical RAM for          h,s,v(r/c):      11.81 MB

     Dynamical RAM for          <psi|beta>:       0.80 MB

     Dynamical RAM for                 psi:     113.46 MB

     Dynamical RAM for                hpsi:     113.46 MB

     Dynamical RAM for                spsi:     113.46 MB

     Dynamical RAM for      wfcinit/wfcrot:      93.90 MB

     Dynamical RAM for           addusdens:     971.75 MB

     Estimated static dynamical RAM per process >     319.78 MB

     Estimated max dynamical RAM per process >       1.26 GB

     Estimated total dynamical RAM >       7.57 GB

     Check: negative core charge=   -0.000002

     Initial potential from superposition of free atoms

     starting charge  210.80465, renormalised to  211.00000

     negative rho (up, down):  9.102E-05 0.000E+00


---------------------------------------------------------------------------------
Carrying out rVV10 run using the following parameters:
Nqs =      20    Nr_points =    1024   r_max =   100.000
b_value =  6.30000    beta =  0.00901
     q_mesh =  0.00010000  0.00030000  0.00058939  0.00100810
               0.00161396  0.00249058  0.00375900  0.00559430
               0.00824984  0.01209221  0.01765183  0.02569619
               0.03733578  0.05417739  0.07854596  0.11380545
               0.16482331  0.23864234  0.34545298  0.50000000

Gradients computed in Reciprocal space

---------------------------------------------------------------------------------


     Starting wfcs are  208 randomized atomic wfcs

     total cpu time spent up to now is       49.8 secs

     Self-consistent Calculation

     iteration #  1     ecut=    70.00 Ry     beta= 0.70
     Davidson diagonalization with overlap
     ethr =  1.00E-02,  avg # of iterations =  3.0

     negative rho (up, down):  2.851E-03 0.000E+00

     total cpu time spent up to now is      120.2 secs

     total energy              =    -755.30225046 Ry
     Harris-Foulkes estimate   =    -760.47924156 Ry
     estimated scf accuracy    <       7.91491293 Ry

     iteration #  2     ecut=    70.00 Ry     beta= 0.70
     Davidson diagonalization with overlap
     ethr =  3.75E-03,  avg # of iterations =  6.0

     negative rho (up, down):  1.875E-02 0.000E+00

     total cpu time spent up to now is      191.8 secs

     total energy              =    -748.69254218 Ry
     Harris-Foulkes estimate   =    -761.23104064 Ry
     estimated scf accuracy    <      41.72808163 Ry

     iteration #  3     ecut=    70.00 Ry     beta= 0.70
     Davidson diagonalization with overlap
     ethr =  3.75E-03,  avg # of iterations =  5.0

     negative rho (up, down):  3.563E-03 0.000E+00

     total cpu time spent up to now is      282.3 secs

     total energy              =    -755.36042019 Ry
     Harris-Foulkes estimate   =    -759.76171817 Ry
     estimated scf accuracy    <      23.24346505 Ry

     iteration #  4     ecut=    70.00 Ry     beta= 0.70
     Davidson diagonalization with overlap
     ethr =  3.75E-03,  avg # of iterations =  4.0

     negative rho (up, down):  3.803E-02 0.000E+00

     total cpu time spent up to now is      340.0 secs

     total energy              =    -757.12010230 Ry
     Harris-Foulkes estimate   =    -757.74844501 Ry
     estimated scf accuracy    <       1.81702040 Ry

     iteration #  5     ecut=    70.00 Ry     beta= 0.70
     Davidson diagonalization with overlap
     ethr =  8.61E-04,  avg # of iterations =  6.0

     negative rho (up, down):  5.939E-02 0.000E+00

     total cpu time spent up to now is      401.7 secs

     total energy              =    -757.28207514 Ry
     Harris-Foulkes estimate   =    -757.35805522 Ry
     estimated scf accuracy    <       0.29628714 Ry

     iteration #  6     ecut=    70.00 Ry     beta= 0.70
     Davidson diagonalization with overlap
     ethr =  1.40E-04,  avg # of iterations =  3.0

     negative rho (up, down):  5.437E-02 0.000E+00

     total cpu time spent up to now is      459.7 secs

     total energy              =    -757.29668451 Ry
     Harris-Foulkes estimate   =    -757.32853890 Ry
     estimated scf accuracy    <       0.20688391 Ry

     iteration #  7     ecut=    70.00 Ry     beta= 0.70
     Davidson diagonalization with overlap
     ethr =  9.80E-05,  avg # of iterations =  2.0

     negative rho (up, down):  3.815E-02 0.000E+00

     total cpu time spent up to now is      512.2 secs

     total energy              =    -757.30420309 Ry
     Harris-Foulkes estimate   =    -757.31599247 Ry
     estimated scf accuracy    <       0.11555937 Ry

     iteration #  8     ecut=    70.00 Ry     beta= 0.70
     Davidson diagonalization with overlap
     ethr =  5.48E-05,  avg # of iterations =  3.0

     negative rho (up, down):  2.963E-02 0.000E+00

     total cpu time spent up to now is      565.1 secs

     total energy              =    -757.31410126 Ry
     Harris-Foulkes estimate   =    -757.31384269 Ry
     estimated scf accuracy    <       0.04215534 Ry

     iteration #  9     ecut=    70.00 Ry     beta= 0.70
     Davidson diagonalization with overlap
     ethr =  2.00E-05,  avg # of iterations =  4.0

     negative rho (up, down):  3.428E-02 0.000E+00

     total cpu time spent up to now is      625.9 secs

     total energy              =    -757.31842709 Ry
     Harris-Foulkes estimate   =    -757.32404621 Ry
     estimated scf accuracy    <       0.03393878 Ry

     iteration # 10     ecut=    70.00 Ry     beta= 0.70
     Davidson diagonalization with overlap
     ethr =  1.61E-05,  avg # of iterations =  3.0

     negative rho (up, down):  3.401E-02 0.000E+00

     total cpu time spent up to now is      680.8 secs

     total energy              =    -757.32195051 Ry
     Harris-Foulkes estimate   =    -757.32364718 Ry
     estimated scf accuracy    <       0.02446992 Ry

     iteration # 11     ecut=    70.00 Ry     beta= 0.70
     Davidson diagonalization with overlap
     ethr =  1.16E-05,  avg # of iterations =  3.0

     negative rho (up, down):  3.295E-02 0.000E+00

     total cpu time spent up to now is      737.7 secs

     total energy              =    -757.32423912 Ry
     Harris-Foulkes estimate   =    -757.32367479 Ry
     estimated scf accuracy    <       0.01316986 Ry

     iteration # 12     ecut=    70.00 Ry     beta= 0.70
     Davidson diagonalization with overlap
     ethr =  6.24E-06,  avg # of iterations =  4.0

     negative rho (up, down):  3.293E-02 0.000E+00

     total cpu time spent up to now is      795.0 secs

     total energy              =    -757.32604878 Ry
     Harris-Foulkes estimate   =    -757.32523281 Ry
     estimated scf accuracy    <       0.00436133 Ry

     iteration # 13     ecut=    70.00 Ry     beta= 0.70
     Davidson diagonalization with overlap
     ethr =  2.07E-06,  avg # of iterations = 14.0

     negative rho (up, down):  3.337E-02 0.000E+00

     total cpu time spent up to now is      857.9 secs

     total energy              =    -757.32578237 Ry
     Harris-Foulkes estimate   =    -757.32631040 Ry
     estimated scf accuracy    <       0.00098996 Ry

     iteration # 14     ecut=    70.00 Ry     beta= 0.70
     Davidson diagonalization with overlap
     ethr =  4.69E-07,  avg # of iterations =  3.0

     negative rho (up, down):  3.346E-02 0.000E+00

     total cpu time spent up to now is      914.5 secs

     total energy              =    -757.32604231 Ry
     Harris-Foulkes estimate   =    -757.32592849 Ry
     estimated scf accuracy    <       0.00123532 Ry

     iteration # 15     ecut=    70.00 Ry     beta= 0.70
     Davidson diagonalization with overlap
     ethr =  4.69E-07,  avg # of iterations =  2.0

     negative rho (up, down):  3.359E-02 0.000E+00

     total cpu time spent up to now is      969.4 secs

     total energy              =    -757.32626820 Ry
     Harris-Foulkes estimate   =    -757.32612399 Ry
     estimated scf accuracy    <       0.00056252 Ry

     iteration # 16     ecut=    70.00 Ry     beta= 0.70
     Davidson diagonalization with overlap
     ethr =  2.67E-07,  avg # of iterations =  3.0

     negative rho (up, down):  3.377E-02 0.000E+00

     total cpu time spent up to now is     1026.5 secs

     total energy              =    -757.32631234 Ry
     Harris-Foulkes estimate   =    -757.32628878 Ry
     estimated scf accuracy    <       0.00001518 Ry

     iteration # 17     ecut=    70.00 Ry     beta= 0.70
     Davidson diagonalization with overlap
     ethr =  7.20E-09,  avg # of iterations =  4.0

     negative rho (up, down):  3.383E-02 0.000E+00

     total cpu time spent up to now is     1084.1 secs

     total energy              =    -757.32631326 Ry
     Harris-Foulkes estimate   =    -757.32631609 Ry
     estimated scf accuracy    <       0.00002156 Ry

     iteration # 18     ecut=    70.00 Ry     beta= 0.70
     Davidson diagonalization with overlap
     ethr =  7.20E-09,  avg # of iterations =  1.0

     negative rho (up, down):  3.388E-02 0.000E+00

     total cpu time spent up to now is     1136.2 secs

     total energy              =    -757.32631448 Ry
     Harris-Foulkes estimate   =    -757.32631413 Ry
     estimated scf accuracy    <       0.00000235 Ry

     iteration # 19     ecut=    70.00 Ry     beta= 0.70
     Davidson diagonalization with overlap
     ethr =  1.11E-09,  avg # of iterations =  3.0

     negative rho (up, down):  3.391E-02 0.000E+00

     total cpu time spent up to now is     1189.5 secs

     End of self-consistent calculation

          k = 0.0000 0.0000 0.0000 ( 87777 PWs)   bands (ev):

   -62.7605 -37.8606 -37.8602 -36.4926 -19.6250 -18.7824 -18.7824 -18.7124
   -18.6700 -18.6698 -18.2277 -16.9301 -16.9285 -16.9284 -16.7866 -16.7865
   -16.5105 -16.0715 -16.0715 -15.9830 -15.8258 -15.8256 -15.0782 -13.8788
   -13.8726 -13.8725 -13.8593 -13.8592 -13.1369 -12.9142 -12.9141 -12.8940
   -12.5035 -12.5034 -12.1054 -11.6389 -11.6388 -11.5162 -11.1356 -11.1355
   -10.1457  -9.3323  -9.3322  -9.2537  -9.1755  -9.1755  -9.0897  -9.0621
    -9.0620  -9.0481  -8.4620  -8.4619  -7.8911  -7.8910  -7.8581  -7.7761
    -7.6746  -7.2508  -7.2506  -6.9258  -6.9247  -6.8892  -6.7200  -6.6838
    -6.6832  -6.6772  -6.5880  -6.5879  -6.5427  -6.4314  -6.4313  -6.3889
    -6.3845  -6.3844  -6.3308  -6.2779  -5.2572  -5.2571  -5.1169  -5.1164
    -4.9421  -4.9420  -4.8334  -4.7452  -4.6003  -4.5839  -4.5837  -4.2258
    -3.9610  -3.9608  -3.7238  -3.7237  -3.6373  -3.6240  -3.4966  -3.4966
    -2.8842  -2.2282  -2.2280  -2.1986  -2.1985  -1.7021  -1.6748  -1.6746
    -0.5397  -0.1307  -0.1306   0.8976   1.0841   1.0899   1.0901   1.8271
     2.0830   2.0831   2.6302   2.9300   2.9303   2.9939   3.3463   3.5188
     3.6245   3.7635   3.7782   3.8272   3.9966   4.0351   4.0353

     occupation numbers 
     1.0000   1.0000   1.0000   1.0000   1.0000   1.0000   1.0000   1.0000
     1.0000   1.0000   1.0000   1.0000   1.0000   1.0000   1.0000   1.0000
     1.0000   1.0000   1.0000   1.0000   1.0000   1.0000   1.0000   1.0000
     1.0000   1.0000   1.0000   1.0000   1.0000   1.0000   1.0000   1.0000
     1.0000   1.0000   1.0000   1.0000   1.0000   1.0000   1.0000   1.0000
     1.0000   1.0000   1.0000   1.0000   1.0000   1.0000   1.0000   1.0000
     1.0000   1.0000   1.0000   1.0000   1.0000   1.0000   1.0000   1.0000
     1.0000   1.0000   1.0000   1.0000   1.0000   1.0000   1.0000   1.0000
     1.0000   1.0000   1.0000   1.0000   1.0000   1.0000   1.0000   1.0000
     1.0000   1.0000   1.0000   1.0000   1.0000   1.0000   1.0000   1.0000
     1.0000   1.0000   1.0000   1.0000   1.0000   1.0000   1.0000   1.0000
     1.0000   1.0000   1.0000   1.0000   1.0000   1.0000   1.0000   1.0000
     1.0000   1.0000   1.0000   1.0000   1.0000   1.0000   1.0000   1.0000
     1.0000   0.2507   0.2493   0.0000   0.0000   0.0000   0.0000   0.0000
     0.0000   0.0000   0.0000   0.0000   0.0000   0.0000   0.0000   0.0000
     0.0000   0.0000   0.0000   0.0000   0.0000   0.0000   0.0000

     the Fermi energy is    -0.1340 ev

!    total energy              =    -757.32631434 Ry
     Harris-Foulkes estimate   =    -757.32631462 Ry
     estimated scf accuracy    <       0.00000040 Ry

     The total energy is the sum of the following terms:

     one-electron contribution =   -2568.04529572 Ry
     hartree contribution      =    1330.84396811 Ry
     xc contribution           =    -252.65683600 Ry
     ewald contribution        =     732.53246278 Ry
     smearing contrib. (-TS)   =      -0.00061349 Ry

     convergence has been achieved in  19 iterations

     Writing output data file vanadio-baricentro-distance-4.5.save/

     init_run     :     47.67s CPU     48.70s WALL (       1 calls)
     electrons    :   1106.89s CPU   1139.73s WALL (       1 calls)

     Called by init_run:
     wfcinit      :     22.01s CPU     22.16s WALL (       1 calls)
     wfcinit:atom :      0.04s CPU      0.05s WALL (       1 calls)
     wfcinit:wfcr :     21.80s CPU     21.90s WALL (       1 calls)
     potinit      :     11.45s CPU     11.79s WALL (       1 calls)
     hinit0       :      9.20s CPU      9.21s WALL (       1 calls)

     Called by electrons:
     c_bands      :    674.95s CPU    678.31s WALL (      19 calls)
     sum_band     :    216.16s CPU    227.40s WALL (      19 calls)
     v_of_rho     :    130.73s CPU    138.61s WALL (      20 calls)
     v_h          :      1.59s CPU      1.62s WALL (      20 calls)
     v_xc         :    129.14s CPU    137.00s WALL (      20 calls)
     newd         :     89.34s CPU    100.42s WALL (      20 calls)
     mix_rho      :      4.08s CPU      4.13s WALL (      19 calls)

     Called by c_bands:
     init_us_2    :      1.82s CPU      1.87s WALL (      39 calls)
     cegterg      :    670.58s CPU    673.92s WALL (      19 calls)

     Called by sum_band:
     sum_band:bec :      0.02s CPU      0.02s WALL (      19 calls)
     addusdens    :    135.52s CPU    146.44s WALL (      19 calls)

     Called by *egterg:
     h_psi        :    355.84s CPU    358.21s WALL (      96 calls)
     s_psi        :    118.19s CPU    118.23s WALL (      96 calls)
     g_psi        :      0.37s CPU      0.37s WALL (      76 calls)
     cdiaghg      :      7.11s CPU      7.11s WALL (      95 calls)
     cegterg:over :     84.33s CPU     84.35s WALL (      76 calls)
     cegterg:upda :     52.50s CPU     52.79s WALL (      76 calls)
     cegterg:last :     34.44s CPU     34.45s WALL (      19 calls)

     Called by h_psi:
     h_psi:pot    :    355.45s CPU    357.34s WALL (      96 calls)
     h_psi:calbec :    117.89s CPU    117.94s WALL (      96 calls)
     vloc_psi     :    119.38s CPU    121.19s WALL (      96 calls)
     add_vuspsi   :    118.18s CPU    118.22s WALL (      96 calls)

     General routines
     calbec       :    166.70s CPU    166.75s WALL (     115 calls)
     fft          :     74.54s CPU     77.33s WALL (    1258 calls)
     ffts         :      0.75s CPU      0.79s WALL (      39 calls)
     fftw         :    125.00s CPU    126.78s WALL (   14079 calls)
     interpolate  :      1.88s CPU      1.91s WALL (      20 calls)

     Parallel routines
     fft_scatt_xy :     36.48s CPU     36.77s WALL (   15376 calls)
     fft_scatt_yz :     64.96s CPU     68.40s WALL (   15376 calls)

     PWSCF        :  19m15.83s CPU  19m49.91s WALL


   This run was terminated on:  11:19:43  31Aug2022            

=------------------------------------------------------------------------------=
   JOB DONE.
=------------------------------------------------------------------------------=
