
     Program PWSCF v.6.4.1 starts on 31Aug2022 at 14:16:40 

     This program is part of the open-source Quantum ESPRESSO suite
     for quantum simulation of materials; please cite
         "P. Giannozzi et al., J. Phys.:Condens. Matter 21 395502 (2009);
         "P. Giannozzi et al., J. Phys.:Condens. Matter 29 465901 (2017);
          URL http://www.quantum-espresso.org", 
     in publications or presentations arising from this work. More details at
     http://www.quantum-espresso.org/quote

     Parallel version (MPI), running on     6 processors

     MPI processes distributed on     1 nodes
     R & G space division:  proc/nbgrp/npool/nimage =       6
     Reading input from distance-1.8.in

     Current dimensions of program PWSCF are:
     Max number of different atomic species (ntypx) = 10
     Max number of k-points (npk) =  40000
     Max angular momentum in pseudopotentials (lmaxx) =  3

     IMPORTANT: XC functional enforced from input :
     Exchange-correlation      = RVV10 ( 1  4 13  4 3 0)
     Any further DFT definition will be discarded
     Please, verify this is what you really want

               file H.pbe-rrkjus.UPF: wavefunction(s)  1S renormalized
               file V.pbe-spnl-rrkjus_psl.1.0.0.UPF: wavefunction(s)  3P 3D renormalized

     Subspace diagonalization in iterative solution of the eigenvalue problem:
     a serial algorithm will be used


     Parallelization info
     --------------------
     sticks:   dense  smooth     PW     G-vecs:    dense   smooth      PW
     Min        3051    1746    432               270999   117096   14629
     Max        3053    1747    437               271001   117099   14630
     Sum       18313   10477   2611              1626001   702581   87777



     bravais-lattice index     =            4
     lattice parameter (alat)  =      23.2937  a.u.
     unit-cell volume          =    8879.8548 (a.u.)^3
     number of atoms/cell      =           52
     number of atomic types    =            3
     number of electrons       =       211.00
     number of Kohn-Sham states=          127
     kinetic-energy cutoff     =      70.0000  Ry
     charge density cutoff     =     490.0000  Ry
     convergence threshold     =      1.0E-06
     mixing beta               =       0.7000
     number of iterations used =            8  plain     mixing
     Exchange-correlation      = RVV10 ( 1  4 13  4 3 0)

     celldm(1)=  23.293684  celldm(2)=   0.000000  celldm(3)=   0.811261
     celldm(4)=   0.000000  celldm(5)=   0.000000  celldm(6)=   0.000000

     crystal axes: (cart. coord. in units of alat)
               a(1) = (   1.000000   0.000000   0.000000 )  
               a(2) = (  -0.500000   0.866025   0.000000 )  
               a(3) = (   0.000000   0.000000   0.811261 )  

     reciprocal axes: (cart. coord. in units 2 pi/alat)
               b(1) = (  1.000000  0.577350 -0.000000 )  
               b(2) = (  0.000000  1.154701  0.000000 )  
               b(3) = (  0.000000 -0.000000  1.232649 )  


     PseudoPot. # 1 for H  read from file:
     /home/cristian/Escritorio/Proyecto_Grafeno/pseudopotenciales/H.pbe-rrkjus.UPF
     MD5 check sum: 7cc9d459525c9a0585f487a71c3c9563
     Pseudo is Ultrasoft, Zval =  1.0
     Generated by new atomic code, or converted to UPF format
     Using radial grid of 1061 points,  2 beta functions with: 
                l(1) =   0
                l(2) =   0
     Q(r) pseudized with 0 coefficients 


     PseudoPot. # 2 for C  read from file:
     /home/cristian/Escritorio/Proyecto_Grafeno/pseudopotenciales/C.pbe-n-rrkjus_psl.1.0.0.UPF
     MD5 check sum: 1fdd950c42eb37d8afe3dd2f8d12311e
     Pseudo is Ultrasoft + core correction, Zval =  4.0
     Generated using "atomic" code by A. Dal Corso v.6.3MaX
     Using radial grid of 1073 points,  4 beta functions with: 
                l(1) =   0
                l(2) =   0
                l(3) =   1
                l(4) =   1
     Q(r) pseudized with 0 coefficients 


     PseudoPot. # 3 for V  read from file:
     /home/cristian/Escritorio/Proyecto_Grafeno/pseudopotenciales/V.pbe-spnl-rrkjus_psl.1.0.0.UPF
     MD5 check sum: 79b3eb63147daf0b665d9f1bcc691206
     Pseudo is Ultrasoft + core correction, Zval = 13.0
     Generated using "atomic" code by A. Dal Corso v.6.2.2
     Using radial grid of 1181 points,  6 beta functions with: 
                l(1) =   0
                l(2) =   0
                l(3) =   1
                l(4) =   1
                l(5) =   2
                l(6) =   2
     Q(r) pseudized with 0 coefficients 


     vdW kernel table read from file rVV10_kernel_table
     MD5 check sum: b8e2538accc0c0b3206b45ba4daaba6c

     atomic species   valence    mass     pseudopotential
        H              1.00     1.00794     H ( 1.00)
        C              4.00    12.01070     C ( 1.00)
        V             13.00    50.94150     V ( 1.00)

     No symmetry found


                                    s                        frac. trans.

      isym =  1     identity                                     

 cryst.   s( 1) = (     1          0          0      )
                  (     0          1          0      )
                  (     0          0          1      )

 cart.    s( 1) = (  1.0000000  0.0000000  0.0000000 )
                  (  0.0000000  1.0000000  0.0000000 )
                  (  0.0000000  0.0000000  1.0000000 )


     point group C_1 (1)    
     there are  1 classes
     the character table:

       E    
A      1.00

     the symmetry operations in each class and the name of the first element:

     E        1
          identity                                               

   Cartesian axes

     site n.     atom                  positions (alat units)
         1           H   tau(   1) = (   0.2361603   0.4618802   0.1460270  )
         2           H   tau(   2) = (   0.2971730   0.4618802   0.1460270  )
         3           C   tau(   3) = (   0.0000000   0.0000000   0.0000000  )
         4           C   tau(   4) = (   0.0000000   0.1154701   0.0000000  )
         5           C   tau(   5) = (  -0.1000000   0.1732051   0.0000000  )
         6           C   tau(   6) = (  -0.1000000   0.2886751   0.0000000  )
         7           C   tau(   7) = (  -0.2000000   0.3464102   0.0000000  )
         8           C   tau(   8) = (  -0.2000000   0.4618802   0.0000000  )
         9           C   tau(   9) = (  -0.3000000   0.5196152   0.0000000  )
        10           C   tau(  10) = (  -0.3000000   0.6350853   0.0000000  )
        11           C   tau(  11) = (  -0.4000000   0.6928203   0.0000000  )
        12           C   tau(  12) = (  -0.4000000   0.8082904   0.0000000  )
        13           C   tau(  13) = (   0.2000000   0.0000000   0.0000000  )
        14           C   tau(  14) = (   0.2000000   0.1154701   0.0000000  )
        15           C   tau(  15) = (   0.1000000   0.1732051   0.0000000  )
        16           C   tau(  16) = (   0.1000000   0.2886751   0.0000000  )
        17           C   tau(  17) = (   0.0000000   0.3464102   0.0000000  )
        18           C   tau(  18) = (   0.0000000   0.4618802   0.0000000  )
        19           C   tau(  19) = (  -0.1000000   0.5196152   0.0000000  )
        20           C   tau(  20) = (  -0.1000000   0.6350853   0.0000000  )
        21           C   tau(  21) = (  -0.2000000   0.6928203   0.0000000  )
        22           C   tau(  22) = (  -0.2000000   0.8082904   0.0000000  )
        23           C   tau(  23) = (   0.4000000   0.0000000   0.0000000  )
        24           C   tau(  24) = (   0.4000000   0.1154701   0.0000000  )
        25           C   tau(  25) = (   0.3000000   0.1732051   0.0000000  )
        26           C   tau(  26) = (   0.3000000   0.2886751   0.0000000  )
        27           C   tau(  27) = (   0.2000000   0.3464102   0.0000000  )
        28           V   tau(  28) = (   0.2000000   0.4618802   0.0000000  )
        29           C   tau(  29) = (   0.1000000   0.5196152   0.0000000  )
        30           C   tau(  30) = (   0.1000000   0.6350853   0.0000000  )
        31           C   tau(  31) = (   0.0000000   0.6928203   0.0000000  )
        32           C   tau(  32) = (   0.0000000   0.8082904   0.0000000  )
        33           C   tau(  33) = (   0.6000000   0.0000000   0.0000000  )
        34           C   tau(  34) = (   0.6000000   0.1154701   0.0000000  )
        35           C   tau(  35) = (   0.5000000   0.1732051   0.0000000  )
        36           C   tau(  36) = (   0.5000000   0.2886751   0.0000000  )
        37           C   tau(  37) = (   0.4000000   0.3464102   0.0000000  )
        38           C   tau(  38) = (   0.4000000   0.4618802   0.0000000  )
        39           C   tau(  39) = (   0.3000000   0.5196152   0.0000000  )
        40           C   tau(  40) = (   0.3000000   0.6350853   0.0000000  )
        41           C   tau(  41) = (   0.2000000   0.6928203   0.0000000  )
        42           C   tau(  42) = (   0.2000000   0.8082904   0.0000000  )
        43           C   tau(  43) = (   0.8000000   0.0000000   0.0000000  )
        44           C   tau(  44) = (   0.8000000   0.1154701   0.0000000  )
        45           C   tau(  45) = (   0.7000000   0.1732051   0.0000000  )
        46           C   tau(  46) = (   0.7000000   0.2886751   0.0000000  )
        47           C   tau(  47) = (   0.6000000   0.3464102   0.0000000  )
        48           C   tau(  48) = (   0.6000000   0.4618802   0.0000000  )
        49           C   tau(  49) = (   0.5000000   0.5196152   0.0000000  )
        50           C   tau(  50) = (   0.5000000   0.6350853   0.0000000  )
        51           C   tau(  51) = (   0.4000000   0.6928203   0.0000000  )
        52           C   tau(  52) = (   0.4000000   0.8082904   0.0000000  )

   Crystallographic axes

     site n.     atom                  positions (cryst. coord.)
         1           H   tau(   1) = (  0.5028270  0.5333333  0.1800000  )
         2           H   tau(   2) = (  0.5638397  0.5333333  0.1800000  )
         3           C   tau(   3) = (  0.0000000  0.0000000  0.0000000  )
         4           C   tau(   4) = (  0.0666667  0.1333333  0.0000000  )
         5           C   tau(   5) = (  0.0000000  0.2000000  0.0000000  )
         6           C   tau(   6) = (  0.0666667  0.3333333  0.0000000  )
         7           C   tau(   7) = (  0.0000000  0.4000000  0.0000000  )
         8           C   tau(   8) = (  0.0666667  0.5333333  0.0000000  )
         9           C   tau(   9) = (  0.0000000  0.6000000  0.0000000  )
        10           C   tau(  10) = (  0.0666667  0.7333333  0.0000000  )
        11           C   tau(  11) = (  0.0000000  0.8000000  0.0000000  )
        12           C   tau(  12) = (  0.0666667  0.9333333  0.0000000  )
        13           C   tau(  13) = (  0.2000000  0.0000000  0.0000000  )
        14           C   tau(  14) = (  0.2666667  0.1333333  0.0000000  )
        15           C   tau(  15) = (  0.2000000  0.2000000  0.0000000  )
        16           C   tau(  16) = (  0.2666667  0.3333333  0.0000000  )
        17           C   tau(  17) = (  0.2000000  0.4000000  0.0000000  )
        18           C   tau(  18) = (  0.2666667  0.5333333  0.0000000  )
        19           C   tau(  19) = (  0.2000000  0.6000000  0.0000000  )
        20           C   tau(  20) = (  0.2666667  0.7333333  0.0000000  )
        21           C   tau(  21) = (  0.2000000  0.8000000  0.0000000  )
        22           C   tau(  22) = (  0.2666667  0.9333333  0.0000000  )
        23           C   tau(  23) = (  0.4000000  0.0000000  0.0000000  )
        24           C   tau(  24) = (  0.4666667  0.1333333  0.0000000  )
        25           C   tau(  25) = (  0.4000000  0.2000000  0.0000000  )
        26           C   tau(  26) = (  0.4666667  0.3333333  0.0000000  )
        27           C   tau(  27) = (  0.4000000  0.4000000  0.0000000  )
        28           V   tau(  28) = (  0.4666667  0.5333333  0.0000000  )
        29           C   tau(  29) = (  0.4000000  0.6000000  0.0000000  )
        30           C   tau(  30) = (  0.4666667  0.7333333  0.0000000  )
        31           C   tau(  31) = (  0.4000000  0.8000000  0.0000000  )
        32           C   tau(  32) = (  0.4666667  0.9333333  0.0000000  )
        33           C   tau(  33) = (  0.6000000  0.0000000  0.0000000  )
        34           C   tau(  34) = (  0.6666667  0.1333333  0.0000000  )
        35           C   tau(  35) = (  0.6000000  0.2000000  0.0000000  )
        36           C   tau(  36) = (  0.6666667  0.3333333  0.0000000  )
        37           C   tau(  37) = (  0.6000000  0.4000000  0.0000000  )
        38           C   tau(  38) = (  0.6666667  0.5333333  0.0000000  )
        39           C   tau(  39) = (  0.6000000  0.6000000  0.0000000  )
        40           C   tau(  40) = (  0.6666667  0.7333333  0.0000000  )
        41           C   tau(  41) = (  0.6000000  0.8000000  0.0000000  )
        42           C   tau(  42) = (  0.6666667  0.9333333  0.0000000  )
        43           C   tau(  43) = (  0.8000000  0.0000000  0.0000000  )
        44           C   tau(  44) = (  0.8666667  0.1333333  0.0000000  )
        45           C   tau(  45) = (  0.8000000  0.2000000  0.0000000  )
        46           C   tau(  46) = (  0.8666667  0.3333333  0.0000000  )
        47           C   tau(  47) = (  0.8000000  0.4000000  0.0000000  )
        48           C   tau(  48) = (  0.8666667  0.5333333  0.0000000  )
        49           C   tau(  49) = (  0.8000000  0.6000000  0.0000000  )
        50           C   tau(  50) = (  0.8666667  0.7333333  0.0000000  )
        51           C   tau(  51) = (  0.8000000  0.8000000  0.0000000  )
        52           C   tau(  52) = (  0.8666667  0.9333333  0.0000000  )

     number of k points=     1  Marzari-Vanderbilt smearing, width (Ry)=  0.0010
                       cart. coord. in units 2pi/alat
        k(    1) = (   0.0000000   0.0000000   0.0000000), wk =   2.0000000

                       cryst. coord.
        k(    1) = (   0.0000000   0.0000000   0.0000000), wk =   2.0000000

     Dense  grid:  1626001 G-vectors     FFT dimensions: ( 180, 180, 135)

     Smooth grid:   702581 G-vectors     FFT dimensions: ( 125, 125, 108)

     Dynamical RAM for                 wfc:      28.36 MB

     Dynamical RAM for     wfc (w. buffer):      28.36 MB

     Dynamical RAM for           str. fact:      12.41 MB

     Dynamical RAM for           local pot:       0.00 MB

     Dynamical RAM for          nlocal pot:      92.46 MB

     Dynamical RAM for                qrad:      19.73 MB

     Dynamical RAM for          rho,v,vnew:      29.46 MB

     Dynamical RAM for               rhoin:       9.82 MB

     Dynamical RAM for            rho*nmix:      66.16 MB

     Dynamical RAM for           G-vectors:      16.40 MB

     Dynamical RAM for          h,s,v(r/c):      11.81 MB

     Dynamical RAM for          <psi|beta>:       0.80 MB

     Dynamical RAM for                 psi:     113.46 MB

     Dynamical RAM for                hpsi:     113.46 MB

     Dynamical RAM for                spsi:     113.46 MB

     Dynamical RAM for      wfcinit/wfcrot:      93.90 MB

     Dynamical RAM for           addusdens:     971.75 MB

     Estimated static dynamical RAM per process >     319.78 MB

     Estimated max dynamical RAM per process >       1.26 GB

     Estimated total dynamical RAM >       7.57 GB

     Check: negative core charge=   -0.000002

     Initial potential from superposition of free atoms

     starting charge  210.80465, renormalised to  211.00000

     negative rho (up, down):  1.539E-04 0.000E+00


---------------------------------------------------------------------------------
Carrying out rVV10 run using the following parameters:
Nqs =      20    Nr_points =    1024   r_max =   100.000
b_value =  6.30000    beta =  0.00901
     q_mesh =  0.00010000  0.00030000  0.00058939  0.00100810
               0.00161396  0.00249058  0.00375900  0.00559430
               0.00824984  0.01209221  0.01765183  0.02569619
               0.03733578  0.05417739  0.07854596  0.11380545
               0.16482331  0.23864234  0.34545298  0.50000000

Gradients computed in Reciprocal space

---------------------------------------------------------------------------------


     Starting wfcs are  208 randomized atomic wfcs

     total cpu time spent up to now is       56.0 secs

     Self-consistent Calculation

     iteration #  1     ecut=    70.00 Ry     beta= 0.70
     Davidson diagonalization with overlap
     ethr =  1.00E-02,  avg # of iterations =  3.0

     negative rho (up, down):  3.231E-04 0.000E+00

     total cpu time spent up to now is      137.8 secs

     total energy              =    -749.10423192 Ry
     Harris-Foulkes estimate   =    -760.96960758 Ry
     estimated scf accuracy    <      15.43201042 Ry

     iteration #  2     ecut=    70.00 Ry     beta= 0.70
     Davidson diagonalization with overlap
     ethr =  7.31E-03,  avg # of iterations =  6.0

     negative rho (up, down):  3.137E-03 0.000E+00

     total cpu time spent up to now is      214.4 secs

     total energy              =    -739.47057517 Ry
     Harris-Foulkes estimate   =    -781.03477009 Ry
     estimated scf accuracy    <     154.08423520 Ry

     iteration #  3     ecut=    70.00 Ry     beta= 0.70
     Davidson diagonalization with overlap
     ethr =  7.31E-03,  avg # of iterations =  5.0

     negative rho (up, down):  3.129E-02 0.000E+00

     total cpu time spent up to now is      310.2 secs

     total energy              =    -755.57825435 Ry
     Harris-Foulkes estimate   =    -758.89461383 Ry
     estimated scf accuracy    <       8.18709761 Ry

     iteration #  4     ecut=    70.00 Ry     beta= 0.70
     Davidson diagonalization with overlap
     ethr =  3.88E-03,  avg # of iterations =  3.0

     negative rho (up, down):  3.851E-02 0.000E+00

     total cpu time spent up to now is      379.3 secs

     total energy              =    -756.90641757 Ry
     Harris-Foulkes estimate   =    -757.48012001 Ry
     estimated scf accuracy    <       1.59181908 Ry

     iteration #  5     ecut=    70.00 Ry     beta= 0.70
     Davidson diagonalization with overlap
     ethr =  7.54E-04,  avg # of iterations =  5.0

     negative rho (up, down):  4.384E-02 0.000E+00

     total cpu time spent up to now is      445.6 secs

     total energy              =    -757.19609571 Ry
     Harris-Foulkes estimate   =    -757.36927619 Ry
     estimated scf accuracy    <       0.61182801 Ry

     iteration #  6     ecut=    70.00 Ry     beta= 0.70
     Davidson diagonalization with overlap
     ethr =  2.90E-04,  avg # of iterations =  3.0

     negative rho (up, down):  3.328E-02 0.000E+00

     total cpu time spent up to now is      505.8 secs

     total energy              =    -757.24880473 Ry
     Harris-Foulkes estimate   =    -757.28547311 Ry
     estimated scf accuracy    <       0.13810466 Ry

     iteration #  7     ecut=    70.00 Ry     beta= 0.70
     Davidson diagonalization with overlap
     ethr =  6.55E-05,  avg # of iterations = 13.0

     negative rho (up, down):  3.186E-02 0.000E+00

     total cpu time spent up to now is      577.6 secs

     total energy              =    -757.27398942 Ry
     Harris-Foulkes estimate   =    -757.28387575 Ry
     estimated scf accuracy    <       0.06131368 Ry

     iteration #  8     ecut=    70.00 Ry     beta= 0.70
     Davidson diagonalization with overlap
     ethr =  2.91E-05,  avg # of iterations =  5.0

     negative rho (up, down):  3.339E-02 0.000E+00

     total cpu time spent up to now is      644.7 secs

     total energy              =    -757.27895787 Ry
     Harris-Foulkes estimate   =    -757.28522708 Ry
     estimated scf accuracy    <       0.02980013 Ry

     iteration #  9     ecut=    70.00 Ry     beta= 0.70
     Davidson diagonalization with overlap
     ethr =  1.41E-05,  avg # of iterations =  4.0

     negative rho (up, down):  3.585E-02 0.000E+00

     total cpu time spent up to now is      711.0 secs

     total energy              =    -757.28366930 Ry
     Harris-Foulkes estimate   =    -757.28971839 Ry
     estimated scf accuracy    <       0.03511258 Ry

     iteration # 10     ecut=    70.00 Ry     beta= 0.70
     Davidson diagonalization with overlap
     ethr =  1.41E-05,  avg # of iterations =  2.0

     negative rho (up, down):  3.447E-02 0.000E+00

     total cpu time spent up to now is      770.7 secs

     total energy              =    -757.28649976 Ry
     Harris-Foulkes estimate   =    -757.28691467 Ry
     estimated scf accuracy    <       0.01272611 Ry

     iteration # 11     ecut=    70.00 Ry     beta= 0.70
     Davidson diagonalization with overlap
     ethr =  6.03E-06,  avg # of iterations =  3.0

     negative rho (up, down):  3.321E-02 0.000E+00

     total cpu time spent up to now is      831.8 secs

     total energy              =    -757.28797908 Ry
     Harris-Foulkes estimate   =    -757.28754873 Ry
     estimated scf accuracy    <       0.00672737 Ry

     iteration # 12     ecut=    70.00 Ry     beta= 0.70
     Davidson diagonalization with overlap
     ethr =  3.19E-06,  avg # of iterations = 13.0

     negative rho (up, down):  3.276E-02 0.000E+00

     total cpu time spent up to now is      897.5 secs

     total energy              =    -757.28880172 Ry
     Harris-Foulkes estimate   =    -757.28852693 Ry
     estimated scf accuracy    <       0.00266148 Ry

     iteration # 13     ecut=    70.00 Ry     beta= 0.70
     Davidson diagonalization with overlap
     ethr =  1.26E-06,  avg # of iterations = 10.0

     negative rho (up, down):  3.162E-02 0.000E+00

     total cpu time spent up to now is      960.5 secs

     total energy              =    -757.28988204 Ry
     Harris-Foulkes estimate   =    -757.28896507 Ry
     estimated scf accuracy    <       0.00050095 Ry

     iteration # 14     ecut=    70.00 Ry     beta= 0.70
     Davidson diagonalization with overlap
     ethr =  2.37E-07,  avg # of iterations = 11.0

     negative rho (up, down):  3.192E-02 0.000E+00

     total cpu time spent up to now is     1027.4 secs

     total energy              =    -757.29001981 Ry
     Harris-Foulkes estimate   =    -757.28999024 Ry
     estimated scf accuracy    <       0.00123841 Ry

     iteration # 15     ecut=    70.00 Ry     beta= 0.70
     Davidson diagonalization with overlap
     ethr =  2.37E-07,  avg # of iterations =  1.0

     negative rho (up, down):  3.209E-02 0.000E+00

     total cpu time spent up to now is     1086.0 secs

     total energy              =    -757.29005117 Ry
     Harris-Foulkes estimate   =    -757.29007900 Ry
     estimated scf accuracy    <       0.00018374 Ry

     iteration # 16     ecut=    70.00 Ry     beta= 0.70
     Davidson diagonalization with overlap
     ethr =  8.71E-08,  avg # of iterations =  3.0

     negative rho (up, down):  3.233E-02 0.000E+00

     total cpu time spent up to now is     1150.2 secs

     total energy              =    -757.29010622 Ry
     Harris-Foulkes estimate   =    -757.29006718 Ry
     estimated scf accuracy    <       0.00006427 Ry

     iteration # 17     ecut=    70.00 Ry     beta= 0.70
     Davidson diagonalization with overlap
     ethr =  3.05E-08,  avg # of iterations =  3.0

     negative rho (up, down):  3.235E-02 0.000E+00

     total cpu time spent up to now is     1222.0 secs

     total energy              =    -757.29010354 Ry
     Harris-Foulkes estimate   =    -757.29011078 Ry
     estimated scf accuracy    <       0.00000243 Ry

     iteration # 18     ecut=    70.00 Ry     beta= 0.70
     Davidson diagonalization with overlap
     ethr =  1.15E-09,  avg # of iterations =  4.0

     negative rho (up, down):  3.244E-02 0.000E+00

     total cpu time spent up to now is     1307.5 secs

     total energy              =    -757.29010864 Ry
     Harris-Foulkes estimate   =    -757.29010528 Ry
     estimated scf accuracy    <       0.00000595 Ry

     iteration # 19     ecut=    70.00 Ry     beta= 0.70
     Davidson diagonalization with overlap
     ethr =  1.15E-09,  avg # of iterations =  3.0

     negative rho (up, down):  3.247E-02 0.000E+00

     total cpu time spent up to now is     1383.5 secs

     total energy              =    -757.29010896 Ry
     Harris-Foulkes estimate   =    -757.29010945 Ry
     estimated scf accuracy    <       0.00000237 Ry

     iteration # 20     ecut=    70.00 Ry     beta= 0.70
     Davidson diagonalization with overlap
     ethr =  1.12E-09,  avg # of iterations =  1.0

     negative rho (up, down):  3.247E-02 0.000E+00

     total cpu time spent up to now is     1443.8 secs

     End of self-consistent calculation

          k = 0.0000 0.0000 0.0000 ( 87777 PWs)   bands (ev):

   -62.6820 -37.8212 -37.7758 -36.4144 -19.6192 -18.7806 -18.7698 -18.7071
   -18.6724 -18.6578 -18.2274 -16.9300 -16.9233 -16.9165 -16.7899 -16.7726
   -16.5069 -16.0693 -16.0611 -15.9761 -15.8323 -15.8131 -15.0855 -13.8785
   -13.8693 -13.8637 -13.8521 -13.8506 -13.1362 -12.9115 -12.9060 -12.8878
   -12.5134 -12.4922 -12.1099 -11.6397 -11.6288 -11.5092 -11.1560 -11.1252
   -10.2043  -9.4440  -9.3230  -9.2617  -9.1969  -9.1686  -9.1580  -9.0798
    -9.0543  -9.0515  -9.0411  -8.4524  -8.4356  -7.8831  -7.8801  -7.8464
    -7.7148  -7.6655  -7.2433  -7.2390  -6.9169  -6.8870  -6.8263  -6.6835
    -6.6700  -6.6551  -6.5818  -6.5746  -6.5331  -6.4254  -6.4213  -6.3827
    -6.3807  -6.3738  -6.3248  -6.0551  -5.2500  -5.2461  -5.1121  -4.9827
    -4.9370  -4.9297  -4.8259  -4.7375  -4.6000  -4.5892  -4.5751  -4.1697
    -3.9567  -3.9376  -3.7295  -3.7147  -3.6309  -3.5855  -3.4916  -3.4863
    -2.7538  -2.2336  -2.2218  -2.1676  -2.1559  -1.7043  -1.6722  -1.6664
    -0.4494  -0.1309  -0.1286   1.0431   1.0904   1.0967   1.6138   1.9096
     2.0775   2.1089   2.4838   2.9210   2.9376   2.9969   3.3766   3.5139
     3.7117   3.7670   3.7832   3.8413   3.9260   4.0176   4.0489

     occupation numbers 
     1.0000   1.0000   1.0000   1.0000   1.0000   1.0000   1.0000   1.0000
     1.0000   1.0000   1.0000   1.0000   1.0000   1.0000   1.0000   1.0000
     1.0000   1.0000   1.0000   1.0000   1.0000   1.0000   1.0000   1.0000
     1.0000   1.0000   1.0000   1.0000   1.0000   1.0000   1.0000   1.0000
     1.0000   1.0000   1.0000   1.0000   1.0000   1.0000   1.0000   1.0000
     1.0000   1.0000   1.0000   1.0000   1.0000   1.0000   1.0000   1.0000
     1.0000   1.0000   1.0000   1.0000   1.0000   1.0000   1.0000   1.0000
     1.0000   1.0000   1.0000   1.0000   1.0000   1.0000   1.0000   1.0000
     1.0000   1.0000   1.0000   1.0000   1.0000   1.0000   1.0000   1.0000
     1.0000   1.0000   1.0000   1.0000   1.0000   1.0000   1.0000   1.0000
     1.0000   1.0000   1.0000   1.0000   1.0000   1.0000   1.0000   1.0000
     1.0000   1.0000   1.0000   1.0000   1.0000   1.0000   1.0000   1.0000
     1.0000   1.0000   1.0000   1.0000   1.0000   1.0000   1.0000   1.0000
     1.0000   0.2945   0.2055   0.0000   0.0000   0.0000   0.0000   0.0000
     0.0000   0.0000   0.0000   0.0000   0.0000   0.0000   0.0000   0.0000
     0.0000   0.0000   0.0000   0.0000   0.0000   0.0000   0.0000

     the Fermi energy is    -0.1331 ev

!    total energy              =    -757.29010864 Ry
     Harris-Foulkes estimate   =    -757.29010911 Ry
     estimated scf accuracy    <       0.00000086 Ry

     The total energy is the sum of the following terms:

     one-electron contribution =   -2617.09212861 Ry
     hartree contribution      =    1355.35745591 Ry
     xc contribution           =    -252.74511601 Ry
     ewald contribution        =     757.19028613 Ry
     smearing contrib. (-TS)   =      -0.00060605 Ry

     convergence has been achieved in  20 iterations

     Writing output data file vanadio-baricentro-distance-1.8.save/

     init_run     :     53.22s CPU     54.50s WALL (       1 calls)
     electrons    :   1350.07s CPU   1387.91s WALL (       1 calls)

     Called by init_run:
     wfcinit      :     27.26s CPU     27.46s WALL (       1 calls)
     wfcinit:atom :      0.03s CPU      0.05s WALL (       1 calls)
     wfcinit:wfcr :     27.01s CPU     27.16s WALL (       1 calls)
     potinit      :     12.50s CPU     12.94s WALL (       1 calls)
     hinit0       :      7.65s CPU      7.67s WALL (       1 calls)

     Called by electrons:
     c_bands      :    833.14s CPU    839.34s WALL (      20 calls)
     sum_band     :    254.38s CPU    266.84s WALL (      20 calls)
     v_of_rho     :    164.31s CPU    173.06s WALL (      21 calls)
     v_h          :      1.87s CPU      1.91s WALL (      21 calls)
     v_xc         :    162.44s CPU    171.16s WALL (      21 calls)
     newd         :    103.14s CPU    114.30s WALL (      21 calls)
     mix_rho      :      5.16s CPU      5.26s WALL (      20 calls)

     Called by c_bands:
     init_us_2    :      2.07s CPU      2.10s WALL (      41 calls)
     cegterg      :    826.05s CPU    832.20s WALL (      20 calls)

     Called by sum_band:
     sum_band:bec :      0.02s CPU      0.02s WALL (      20 calls)
     addusdens    :    147.77s CPU    159.19s WALL (      20 calls)

     Called by *egterg:
     h_psi        :    452.85s CPU    457.05s WALL (     122 calls)
     s_psi        :    137.07s CPU    137.45s WALL (     122 calls)
     g_psi        :      0.45s CPU      0.46s WALL (     101 calls)
     cdiaghg      :     12.07s CPU     12.10s WALL (     121 calls)
     cegterg:over :    101.93s CPU    102.17s WALL (     101 calls)
     cegterg:upda :     61.76s CPU     62.18s WALL (     101 calls)
     cegterg:last :     39.34s CPU     39.45s WALL (      20 calls)

     Called by h_psi:
     h_psi:pot    :    452.36s CPU    456.04s WALL (     122 calls)
     h_psi:calbec :    140.01s CPU    140.35s WALL (     122 calls)
     vloc_psi     :    174.15s CPU    177.16s WALL (     122 calls)
     add_vuspsi   :    138.19s CPU    138.53s WALL (     122 calls)

     General routines
     calbec       :    197.73s CPU    198.32s WALL (     142 calls)
     fft          :     94.14s CPU     97.35s WALL (    1321 calls)
     ffts         :      1.13s CPU      1.16s WALL (      41 calls)
     fftw         :    186.84s CPU    190.06s WALL (   15134 calls)
     interpolate  :      2.22s CPU      2.30s WALL (      21 calls)

     Parallel routines
     fft_scatt_xy :     46.18s CPU     46.68s WALL (   16496 calls)
     fft_scatt_yz :    109.79s CPU    114.28s WALL (   16496 calls)

     PWSCF        :  23m24.89s CPU  24m 4.33s WALL


   This run was terminated on:  14:40:44  31Aug2022            

=------------------------------------------------------------------------------=
   JOB DONE.
=------------------------------------------------------------------------------=
