
     Program PWSCF v.6.4.1 starts on 31Aug2022 at 11:40:11 

     This program is part of the open-source Quantum ESPRESSO suite
     for quantum simulation of materials; please cite
         "P. Giannozzi et al., J. Phys.:Condens. Matter 21 395502 (2009);
         "P. Giannozzi et al., J. Phys.:Condens. Matter 29 465901 (2017);
          URL http://www.quantum-espresso.org", 
     in publications or presentations arising from this work. More details at
     http://www.quantum-espresso.org/quote

     Parallel version (MPI), running on     6 processors

     MPI processes distributed on     1 nodes
     R & G space division:  proc/nbgrp/npool/nimage =       6
     Reading input from distance-3.5.in

     Current dimensions of program PWSCF are:
     Max number of different atomic species (ntypx) = 10
     Max number of k-points (npk) =  40000
     Max angular momentum in pseudopotentials (lmaxx) =  3

     IMPORTANT: XC functional enforced from input :
     Exchange-correlation      = RVV10 ( 1  4 13  4 3 0)
     Any further DFT definition will be discarded
     Please, verify this is what you really want

               file H.pbe-rrkjus.UPF: wavefunction(s)  1S renormalized
               file V.pbe-spnl-rrkjus_psl.1.0.0.UPF: wavefunction(s)  3P 3D renormalized

     Subspace diagonalization in iterative solution of the eigenvalue problem:
     a serial algorithm will be used


     Parallelization info
     --------------------
     sticks:   dense  smooth     PW     G-vecs:    dense   smooth      PW
     Min        3051    1746    432               270999   117096   14629
     Max        3053    1747    437               271001   117099   14630
     Sum       18313   10477   2611              1626001   702581   87777



     bravais-lattice index     =            4
     lattice parameter (alat)  =      23.2937  a.u.
     unit-cell volume          =    8879.8548 (a.u.)^3
     number of atoms/cell      =           52
     number of atomic types    =            3
     number of electrons       =       211.00
     number of Kohn-Sham states=          127
     kinetic-energy cutoff     =      70.0000  Ry
     charge density cutoff     =     490.0000  Ry
     convergence threshold     =      1.0E-06
     mixing beta               =       0.7000
     number of iterations used =            8  plain     mixing
     Exchange-correlation      = RVV10 ( 1  4 13  4 3 0)

     celldm(1)=  23.293684  celldm(2)=   0.000000  celldm(3)=   0.811261
     celldm(4)=   0.000000  celldm(5)=   0.000000  celldm(6)=   0.000000

     crystal axes: (cart. coord. in units of alat)
               a(1) = (   1.000000   0.000000   0.000000 )  
               a(2) = (  -0.500000   0.866025   0.000000 )  
               a(3) = (   0.000000   0.000000   0.811261 )  

     reciprocal axes: (cart. coord. in units 2 pi/alat)
               b(1) = (  1.000000  0.577350 -0.000000 )  
               b(2) = (  0.000000  1.154701  0.000000 )  
               b(3) = (  0.000000 -0.000000  1.232649 )  


     PseudoPot. # 1 for H  read from file:
     /home/cristian/Escritorio/Proyecto_Grafeno/pseudopotenciales/H.pbe-rrkjus.UPF
     MD5 check sum: 7cc9d459525c9a0585f487a71c3c9563
     Pseudo is Ultrasoft, Zval =  1.0
     Generated by new atomic code, or converted to UPF format
     Using radial grid of 1061 points,  2 beta functions with: 
                l(1) =   0
                l(2) =   0
     Q(r) pseudized with 0 coefficients 


     PseudoPot. # 2 for C  read from file:
     /home/cristian/Escritorio/Proyecto_Grafeno/pseudopotenciales/C.pbe-n-rrkjus_psl.1.0.0.UPF
     MD5 check sum: 1fdd950c42eb37d8afe3dd2f8d12311e
     Pseudo is Ultrasoft + core correction, Zval =  4.0
     Generated using "atomic" code by A. Dal Corso v.6.3MaX
     Using radial grid of 1073 points,  4 beta functions with: 
                l(1) =   0
                l(2) =   0
                l(3) =   1
                l(4) =   1
     Q(r) pseudized with 0 coefficients 


     PseudoPot. # 3 for V  read from file:
     /home/cristian/Escritorio/Proyecto_Grafeno/pseudopotenciales/V.pbe-spnl-rrkjus_psl.1.0.0.UPF
     MD5 check sum: 79b3eb63147daf0b665d9f1bcc691206
     Pseudo is Ultrasoft + core correction, Zval = 13.0
     Generated using "atomic" code by A. Dal Corso v.6.2.2
     Using radial grid of 1181 points,  6 beta functions with: 
                l(1) =   0
                l(2) =   0
                l(3) =   1
                l(4) =   1
                l(5) =   2
                l(6) =   2
     Q(r) pseudized with 0 coefficients 


     vdW kernel table read from file rVV10_kernel_table
     MD5 check sum: b8e2538accc0c0b3206b45ba4daaba6c

     atomic species   valence    mass     pseudopotential
        H              1.00     1.00794     H ( 1.00)
        C              4.00    12.01070     C ( 1.00)
        V             13.00    50.94150     V ( 1.00)

     No symmetry found


                                    s                        frac. trans.

      isym =  1     identity                                     

 cryst.   s( 1) = (     1          0          0      )
                  (     0          1          0      )
                  (     0          0          1      )

 cart.    s( 1) = (  1.0000000  0.0000000  0.0000000 )
                  (  0.0000000  1.0000000  0.0000000 )
                  (  0.0000000  0.0000000  1.0000000 )


     point group C_1 (1)    
     there are  1 classes
     the character table:

       E    
A      1.00

     the symmetry operations in each class and the name of the first element:

     E        1
          identity                                               

   Cartesian axes

     site n.     atom                  positions (alat units)
         1           H   tau(   1) = (   0.2361603   0.4618802   0.2839414  )
         2           H   tau(   2) = (   0.2971730   0.4618802   0.2839414  )
         3           C   tau(   3) = (   0.0000000   0.0000000   0.0000000  )
         4           C   tau(   4) = (   0.0000000   0.1154701   0.0000000  )
         5           C   tau(   5) = (  -0.1000000   0.1732051   0.0000000  )
         6           C   tau(   6) = (  -0.1000000   0.2886751   0.0000000  )
         7           C   tau(   7) = (  -0.2000000   0.3464102   0.0000000  )
         8           C   tau(   8) = (  -0.2000000   0.4618802   0.0000000  )
         9           C   tau(   9) = (  -0.3000000   0.5196152   0.0000000  )
        10           C   tau(  10) = (  -0.3000000   0.6350853   0.0000000  )
        11           C   tau(  11) = (  -0.4000000   0.6928203   0.0000000  )
        12           C   tau(  12) = (  -0.4000000   0.8082904   0.0000000  )
        13           C   tau(  13) = (   0.2000000   0.0000000   0.0000000  )
        14           C   tau(  14) = (   0.2000000   0.1154701   0.0000000  )
        15           C   tau(  15) = (   0.1000000   0.1732051   0.0000000  )
        16           C   tau(  16) = (   0.1000000   0.2886751   0.0000000  )
        17           C   tau(  17) = (   0.0000000   0.3464102   0.0000000  )
        18           C   tau(  18) = (   0.0000000   0.4618802   0.0000000  )
        19           C   tau(  19) = (  -0.1000000   0.5196152   0.0000000  )
        20           C   tau(  20) = (  -0.1000000   0.6350853   0.0000000  )
        21           C   tau(  21) = (  -0.2000000   0.6928203   0.0000000  )
        22           C   tau(  22) = (  -0.2000000   0.8082904   0.0000000  )
        23           C   tau(  23) = (   0.4000000   0.0000000   0.0000000  )
        24           C   tau(  24) = (   0.4000000   0.1154701   0.0000000  )
        25           C   tau(  25) = (   0.3000000   0.1732051   0.0000000  )
        26           C   tau(  26) = (   0.3000000   0.2886751   0.0000000  )
        27           C   tau(  27) = (   0.2000000   0.3464102   0.0000000  )
        28           V   tau(  28) = (   0.2000000   0.4618802   0.0000000  )
        29           C   tau(  29) = (   0.1000000   0.5196152   0.0000000  )
        30           C   tau(  30) = (   0.1000000   0.6350853   0.0000000  )
        31           C   tau(  31) = (   0.0000000   0.6928203   0.0000000  )
        32           C   tau(  32) = (   0.0000000   0.8082904   0.0000000  )
        33           C   tau(  33) = (   0.6000000   0.0000000   0.0000000  )
        34           C   tau(  34) = (   0.6000000   0.1154701   0.0000000  )
        35           C   tau(  35) = (   0.5000000   0.1732051   0.0000000  )
        36           C   tau(  36) = (   0.5000000   0.2886751   0.0000000  )
        37           C   tau(  37) = (   0.4000000   0.3464102   0.0000000  )
        38           C   tau(  38) = (   0.4000000   0.4618802   0.0000000  )
        39           C   tau(  39) = (   0.3000000   0.5196152   0.0000000  )
        40           C   tau(  40) = (   0.3000000   0.6350853   0.0000000  )
        41           C   tau(  41) = (   0.2000000   0.6928203   0.0000000  )
        42           C   tau(  42) = (   0.2000000   0.8082904   0.0000000  )
        43           C   tau(  43) = (   0.8000000   0.0000000   0.0000000  )
        44           C   tau(  44) = (   0.8000000   0.1154701   0.0000000  )
        45           C   tau(  45) = (   0.7000000   0.1732051   0.0000000  )
        46           C   tau(  46) = (   0.7000000   0.2886751   0.0000000  )
        47           C   tau(  47) = (   0.6000000   0.3464102   0.0000000  )
        48           C   tau(  48) = (   0.6000000   0.4618802   0.0000000  )
        49           C   tau(  49) = (   0.5000000   0.5196152   0.0000000  )
        50           C   tau(  50) = (   0.5000000   0.6350853   0.0000000  )
        51           C   tau(  51) = (   0.4000000   0.6928203   0.0000000  )
        52           C   tau(  52) = (   0.4000000   0.8082904   0.0000000  )

   Crystallographic axes

     site n.     atom                  positions (cryst. coord.)
         1           H   tau(   1) = (  0.5028270  0.5333333  0.3500000  )
         2           H   tau(   2) = (  0.5638397  0.5333333  0.3500000  )
         3           C   tau(   3) = (  0.0000000  0.0000000  0.0000000  )
         4           C   tau(   4) = (  0.0666667  0.1333333  0.0000000  )
         5           C   tau(   5) = (  0.0000000  0.2000000  0.0000000  )
         6           C   tau(   6) = (  0.0666667  0.3333333  0.0000000  )
         7           C   tau(   7) = (  0.0000000  0.4000000  0.0000000  )
         8           C   tau(   8) = (  0.0666667  0.5333333  0.0000000  )
         9           C   tau(   9) = (  0.0000000  0.6000000  0.0000000  )
        10           C   tau(  10) = (  0.0666667  0.7333333  0.0000000  )
        11           C   tau(  11) = (  0.0000000  0.8000000  0.0000000  )
        12           C   tau(  12) = (  0.0666667  0.9333333  0.0000000  )
        13           C   tau(  13) = (  0.2000000  0.0000000  0.0000000  )
        14           C   tau(  14) = (  0.2666667  0.1333333  0.0000000  )
        15           C   tau(  15) = (  0.2000000  0.2000000  0.0000000  )
        16           C   tau(  16) = (  0.2666667  0.3333333  0.0000000  )
        17           C   tau(  17) = (  0.2000000  0.4000000  0.0000000  )
        18           C   tau(  18) = (  0.2666667  0.5333333  0.0000000  )
        19           C   tau(  19) = (  0.2000000  0.6000000  0.0000000  )
        20           C   tau(  20) = (  0.2666667  0.7333333  0.0000000  )
        21           C   tau(  21) = (  0.2000000  0.8000000  0.0000000  )
        22           C   tau(  22) = (  0.2666667  0.9333333  0.0000000  )
        23           C   tau(  23) = (  0.4000000  0.0000000  0.0000000  )
        24           C   tau(  24) = (  0.4666667  0.1333333  0.0000000  )
        25           C   tau(  25) = (  0.4000000  0.2000000  0.0000000  )
        26           C   tau(  26) = (  0.4666667  0.3333333  0.0000000  )
        27           C   tau(  27) = (  0.4000000  0.4000000  0.0000000  )
        28           V   tau(  28) = (  0.4666667  0.5333333  0.0000000  )
        29           C   tau(  29) = (  0.4000000  0.6000000  0.0000000  )
        30           C   tau(  30) = (  0.4666667  0.7333333  0.0000000  )
        31           C   tau(  31) = (  0.4000000  0.8000000  0.0000000  )
        32           C   tau(  32) = (  0.4666667  0.9333333  0.0000000  )
        33           C   tau(  33) = (  0.6000000  0.0000000  0.0000000  )
        34           C   tau(  34) = (  0.6666667  0.1333333  0.0000000  )
        35           C   tau(  35) = (  0.6000000  0.2000000  0.0000000  )
        36           C   tau(  36) = (  0.6666667  0.3333333  0.0000000  )
        37           C   tau(  37) = (  0.6000000  0.4000000  0.0000000  )
        38           C   tau(  38) = (  0.6666667  0.5333333  0.0000000  )
        39           C   tau(  39) = (  0.6000000  0.6000000  0.0000000  )
        40           C   tau(  40) = (  0.6666667  0.7333333  0.0000000  )
        41           C   tau(  41) = (  0.6000000  0.8000000  0.0000000  )
        42           C   tau(  42) = (  0.6666667  0.9333333  0.0000000  )
        43           C   tau(  43) = (  0.8000000  0.0000000  0.0000000  )
        44           C   tau(  44) = (  0.8666667  0.1333333  0.0000000  )
        45           C   tau(  45) = (  0.8000000  0.2000000  0.0000000  )
        46           C   tau(  46) = (  0.8666667  0.3333333  0.0000000  )
        47           C   tau(  47) = (  0.8000000  0.4000000  0.0000000  )
        48           C   tau(  48) = (  0.8666667  0.5333333  0.0000000  )
        49           C   tau(  49) = (  0.8000000  0.6000000  0.0000000  )
        50           C   tau(  50) = (  0.8666667  0.7333333  0.0000000  )
        51           C   tau(  51) = (  0.8000000  0.8000000  0.0000000  )
        52           C   tau(  52) = (  0.8666667  0.9333333  0.0000000  )

     number of k points=     1  Marzari-Vanderbilt smearing, width (Ry)=  0.0010
                       cart. coord. in units 2pi/alat
        k(    1) = (   0.0000000   0.0000000   0.0000000), wk =   2.0000000

                       cryst. coord.
        k(    1) = (   0.0000000   0.0000000   0.0000000), wk =   2.0000000

     Dense  grid:  1626001 G-vectors     FFT dimensions: ( 180, 180, 135)

     Smooth grid:   702581 G-vectors     FFT dimensions: ( 125, 125, 108)

     Dynamical RAM for                 wfc:      28.36 MB

     Dynamical RAM for     wfc (w. buffer):      28.36 MB

     Dynamical RAM for           str. fact:      12.41 MB

     Dynamical RAM for           local pot:       0.00 MB

     Dynamical RAM for          nlocal pot:      92.46 MB

     Dynamical RAM for                qrad:      19.73 MB

     Dynamical RAM for          rho,v,vnew:      29.46 MB

     Dynamical RAM for               rhoin:       9.82 MB

     Dynamical RAM for            rho*nmix:      66.16 MB

     Dynamical RAM for           G-vectors:      16.40 MB

     Dynamical RAM for          h,s,v(r/c):      11.81 MB

     Dynamical RAM for          <psi|beta>:       0.80 MB

     Dynamical RAM for                 psi:     113.46 MB

     Dynamical RAM for                hpsi:     113.46 MB

     Dynamical RAM for                spsi:     113.46 MB

     Dynamical RAM for      wfcinit/wfcrot:      93.90 MB

     Dynamical RAM for           addusdens:     971.75 MB

     Estimated static dynamical RAM per process >     319.78 MB

     Estimated max dynamical RAM per process >       1.26 GB

     Estimated total dynamical RAM >       7.57 GB

     Check: negative core charge=   -0.000002

     Initial potential from superposition of free atoms

     starting charge  210.80465, renormalised to  211.00000

     negative rho (up, down):  1.022E-04 0.000E+00


---------------------------------------------------------------------------------
Carrying out rVV10 run using the following parameters:
Nqs =      20    Nr_points =    1024   r_max =   100.000
b_value =  6.30000    beta =  0.00901
     q_mesh =  0.00010000  0.00030000  0.00058939  0.00100810
               0.00161396  0.00249058  0.00375900  0.00559430
               0.00824984  0.01209221  0.01765183  0.02569619
               0.03733578  0.05417739  0.07854596  0.11380545
               0.16482331  0.23864234  0.34545298  0.50000000

Gradients computed in Reciprocal space

---------------------------------------------------------------------------------


     Starting wfcs are  208 randomized atomic wfcs

     total cpu time spent up to now is       50.7 secs

     Self-consistent Calculation

     iteration #  1     ecut=    70.00 Ry     beta= 0.70
     Davidson diagonalization with overlap
     ethr =  1.00E-02,  avg # of iterations =  3.0

     negative rho (up, down):  2.730E-03 0.000E+00

     total cpu time spent up to now is      125.6 secs

     total energy              =    -755.12770647 Ry
     Harris-Foulkes estimate   =    -760.47508039 Ry
     estimated scf accuracy    <       8.09695876 Ry

     iteration #  2     ecut=    70.00 Ry     beta= 0.70
     Davidson diagonalization with overlap
     ethr =  3.84E-03,  avg # of iterations =  6.0

     negative rho (up, down):  2.268E-02 0.000E+00

     total cpu time spent up to now is      199.2 secs

     total energy              =    -748.50840883 Ry
     Harris-Foulkes estimate   =    -762.03525494 Ry
     estimated scf accuracy    <      45.64476097 Ry

     iteration #  3     ecut=    70.00 Ry     beta= 0.70
     Davidson diagonalization with overlap
     ethr =  3.84E-03,  avg # of iterations =  5.0

     negative rho (up, down):  3.731E-03 0.000E+00

     total cpu time spent up to now is      297.3 secs

     total energy              =    -755.40036215 Ry
     Harris-Foulkes estimate   =    -759.47797965 Ry
     estimated scf accuracy    <      21.10697855 Ry

     iteration #  4     ecut=    70.00 Ry     beta= 0.70
     Davidson diagonalization with overlap
     ethr =  3.84E-03,  avg # of iterations =  4.0

     negative rho (up, down):  4.236E-02 0.000E+00

     total cpu time spent up to now is      352.6 secs

     total energy              =    -757.11558850 Ry
     Harris-Foulkes estimate   =    -757.76017332 Ry
     estimated scf accuracy    <       1.87201028 Ry

     iteration #  5     ecut=    70.00 Ry     beta= 0.70
     Davidson diagonalization with overlap
     ethr =  8.87E-04,  avg # of iterations =  8.0

     negative rho (up, down):  6.446E-02 0.000E+00

     total cpu time spent up to now is      411.4 secs

     total energy              =    -757.27755259 Ry
     Harris-Foulkes estimate   =    -757.35519654 Ry
     estimated scf accuracy    <       0.28620169 Ry

     iteration #  6     ecut=    70.00 Ry     beta= 0.70
     Davidson diagonalization with overlap
     ethr =  1.36E-04,  avg # of iterations =  3.0

     negative rho (up, down):  5.729E-02 0.000E+00

     total cpu time spent up to now is      466.7 secs

     total energy              =    -757.29467467 Ry
     Harris-Foulkes estimate   =    -757.32619827 Ry
     estimated scf accuracy    <       0.19669179 Ry

     iteration #  7     ecut=    70.00 Ry     beta= 0.70
     Davidson diagonalization with overlap
     ethr =  9.32E-05,  avg # of iterations =  3.0

     negative rho (up, down):  4.110E-02 0.000E+00

     total cpu time spent up to now is      518.6 secs

     total energy              =    -757.30464355 Ry
     Harris-Foulkes estimate   =    -757.31452864 Ry
     estimated scf accuracy    <       0.10229457 Ry

     iteration #  8     ecut=    70.00 Ry     beta= 0.70
     Davidson diagonalization with overlap
     ethr =  4.85E-05,  avg # of iterations =  3.0

     negative rho (up, down):  3.417E-02 0.000E+00

     total cpu time spent up to now is      571.5 secs

     total energy              =    -757.31433745 Ry
     Harris-Foulkes estimate   =    -757.31429567 Ry
     estimated scf accuracy    <       0.03671579 Ry

     iteration #  9     ecut=    70.00 Ry     beta= 0.70
     Davidson diagonalization with overlap
     ethr =  1.74E-05,  avg # of iterations =  4.0

     negative rho (up, down):  3.444E-02 0.000E+00

     total cpu time spent up to now is      629.3 secs

     total energy              =    -757.32042044 Ry
     Harris-Foulkes estimate   =    -757.32599614 Ry
     estimated scf accuracy    <       0.04429531 Ry

     iteration # 10     ecut=    70.00 Ry     beta= 0.70
     Davidson diagonalization with overlap
     ethr =  1.74E-05,  avg # of iterations =  3.0

     negative rho (up, down):  3.448E-02 0.000E+00

     total cpu time spent up to now is      683.3 secs

     total energy              =    -757.32453802 Ry
     Harris-Foulkes estimate   =    -757.32537692 Ry
     estimated scf accuracy    <       0.01973124 Ry

     iteration # 11     ecut=    70.00 Ry     beta= 0.70
     Davidson diagonalization with overlap
     ethr =  9.35E-06,  avg # of iterations =  3.0

     negative rho (up, down):  3.377E-02 0.000E+00

     total cpu time spent up to now is      745.1 secs

     total energy              =    -757.32638219 Ry
     Harris-Foulkes estimate   =    -757.32622662 Ry
     estimated scf accuracy    <       0.01312512 Ry

     iteration # 12     ecut=    70.00 Ry     beta= 0.70
     Davidson diagonalization with overlap
     ethr =  6.22E-06,  avg # of iterations = 15.0

     negative rho (up, down):  3.297E-02 0.000E+00

     total cpu time spent up to now is      809.3 secs

     total energy              =    -757.32836958 Ry
     Harris-Foulkes estimate   =    -757.32721500 Ry
     estimated scf accuracy    <       0.00251540 Ry

     iteration # 13     ecut=    70.00 Ry     beta= 0.70
     Davidson diagonalization with overlap
     ethr =  1.19E-06,  avg # of iterations =  7.0

     negative rho (up, down):  3.385E-02 0.000E+00

     total cpu time spent up to now is      871.5 secs

     total energy              =    -757.32787593 Ry
     Harris-Foulkes estimate   =    -757.32867634 Ry
     estimated scf accuracy    <       0.00151158 Ry

     iteration # 14     ecut=    70.00 Ry     beta= 0.70
     Davidson diagonalization with overlap
     ethr =  7.16E-07,  avg # of iterations =  5.0

     negative rho (up, down):  3.363E-02 0.000E+00

     total cpu time spent up to now is      927.7 secs

     total energy              =    -757.32843157 Ry
     Harris-Foulkes estimate   =    -757.32805361 Ry
     estimated scf accuracy    <       0.00092826 Ry

     iteration # 15     ecut=    70.00 Ry     beta= 0.70
     Davidson diagonalization with overlap
     ethr =  4.40E-07,  avg # of iterations =  3.0

     negative rho (up, down):  3.371E-02 0.000E+00

     total cpu time spent up to now is      982.3 secs

     total energy              =    -757.32862664 Ry
     Harris-Foulkes estimate   =    -757.32851508 Ry
     estimated scf accuracy    <       0.00071906 Ry

     iteration # 16     ecut=    70.00 Ry     beta= 0.70
     Davidson diagonalization with overlap
     ethr =  3.41E-07,  avg # of iterations =  2.0

     negative rho (up, down):  3.390E-02 0.000E+00

     total cpu time spent up to now is     1037.9 secs

     total energy              =    -757.32870492 Ry
     Harris-Foulkes estimate   =    -757.32865882 Ry
     estimated scf accuracy    <       0.00004596 Ry

     iteration # 17     ecut=    70.00 Ry     beta= 0.70
     Davidson diagonalization with overlap
     ethr =  2.18E-08,  avg # of iterations =  3.0

     negative rho (up, down):  3.398E-02 0.000E+00

     total cpu time spent up to now is     1097.1 secs

     total energy              =    -757.32870821 Ry
     Harris-Foulkes estimate   =    -757.32871221 Ry
     estimated scf accuracy    <       0.00003775 Ry

     iteration # 18     ecut=    70.00 Ry     beta= 0.70
     Davidson diagonalization with overlap
     ethr =  1.79E-08,  avg # of iterations =  1.0

     negative rho (up, down):  3.402E-02 0.000E+00

     total cpu time spent up to now is     1154.8 secs

     total energy              =    -757.32870945 Ry
     Harris-Foulkes estimate   =    -757.32870964 Ry
     estimated scf accuracy    <       0.00000467 Ry

     iteration # 19     ecut=    70.00 Ry     beta= 0.70
     Davidson diagonalization with overlap
     ethr =  2.21E-09,  avg # of iterations =  3.0

     negative rho (up, down):  3.404E-02 0.000E+00

     total cpu time spent up to now is     1211.2 secs

     total energy              =    -757.32870938 Ry
     Harris-Foulkes estimate   =    -757.32870975 Ry
     estimated scf accuracy    <       0.00000162 Ry

     iteration # 20     ecut=    70.00 Ry     beta= 0.70
     Davidson diagonalization with overlap
     ethr =  7.67E-10,  avg # of iterations =  2.0

     negative rho (up, down):  3.405E-02 0.000E+00

     total cpu time spent up to now is     1272.0 secs

     total energy              =    -757.32870942 Ry
     Harris-Foulkes estimate   =    -757.32870959 Ry
     estimated scf accuracy    <       0.00000238 Ry

     iteration # 21     ecut=    70.00 Ry     beta= 0.70
     Davidson diagonalization with overlap
     ethr =  7.67E-10,  avg # of iterations =  1.0

     negative rho (up, down):  3.406E-02 0.000E+00

     total cpu time spent up to now is     1328.0 secs

     End of self-consistent calculation

          k = 0.0000 0.0000 0.0000 ( 87777 PWs)   bands (ev):

   -62.7546 -37.8552 -37.8544 -36.4860 -19.6216 -18.7790 -18.7789 -18.7091
   -18.6667 -18.6660 -18.2235 -16.9267 -16.9251 -16.9248 -16.7831 -16.7828
   -16.5070 -16.0680 -16.0679 -15.9795 -15.8221 -15.8216 -15.0741 -13.8751
   -13.8690 -13.8685 -13.8559 -13.8558 -13.1332 -12.9107 -12.9106 -12.8904
   -12.4998 -12.4996 -12.1018 -11.6352 -11.6350 -11.5126 -11.1319 -11.1317
   -10.1419  -9.3284  -9.3281  -9.2497  -9.1720  -9.1719  -9.0862  -9.0587
    -9.0586  -9.0448  -8.4584  -8.4583  -7.8874  -7.8872  -7.8545  -7.7751
    -7.6710  -7.2474  -7.2471  -6.9660  -6.9208  -6.8888  -6.8691  -6.6807
    -6.6797  -6.6715  -6.5842  -6.5841  -6.5388  -6.4280  -6.4278  -6.3853
    -6.3811  -6.3809  -6.3273  -6.2589  -5.2536  -5.2535  -5.1124  -5.1109
    -4.9386  -4.9383  -4.8298  -4.7417  -4.5972  -4.5809  -4.5806  -4.2213
    -3.9576  -3.9571  -3.7207  -3.7205  -3.6341  -3.6177  -3.4931  -3.4931
    -2.8780  -2.2246  -2.2240  -2.1933  -2.1926  -1.6987  -1.6717  -1.6714
    -0.5338  -0.1267  -0.1266   0.9403   1.0874   1.0928   1.0932   1.8315
     2.0863   2.0865   2.6046   2.9326   2.9334   2.9969   3.2969   3.4983
     3.6634   3.7617   3.7773   3.8271   3.9903   4.0372   4.0380

     occupation numbers 
     1.0000   1.0000   1.0000   1.0000   1.0000   1.0000   1.0000   1.0000
     1.0000   1.0000   1.0000   1.0000   1.0000   1.0000   1.0000   1.0000
     1.0000   1.0000   1.0000   1.0000   1.0000   1.0000   1.0000   1.0000
     1.0000   1.0000   1.0000   1.0000   1.0000   1.0000   1.0000   1.0000
     1.0000   1.0000   1.0000   1.0000   1.0000   1.0000   1.0000   1.0000
     1.0000   1.0000   1.0000   1.0000   1.0000   1.0000   1.0000   1.0000
     1.0000   1.0000   1.0000   1.0000   1.0000   1.0000   1.0000   1.0000
     1.0000   1.0000   1.0000   1.0000   1.0000   1.0000   1.0000   1.0000
     1.0000   1.0000   1.0000   1.0000   1.0000   1.0000   1.0000   1.0000
     1.0000   1.0000   1.0000   1.0000   1.0000   1.0000   1.0000   1.0000
     1.0000   1.0000   1.0000   1.0000   1.0000   1.0000   1.0000   1.0000
     1.0000   1.0000   1.0000   1.0000   1.0000   1.0000   1.0000   1.0000
     1.0000   1.0000   1.0000   1.0000   1.0000   1.0000   1.0000   1.0000
     1.0000   0.2518   0.2482   0.0000   0.0000   0.0000   0.0000   0.0000
     0.0000   0.0000   0.0000   0.0000   0.0000   0.0000   0.0000   0.0000
     0.0000   0.0000   0.0000   0.0000   0.0000   0.0000   0.0000

     the Fermi energy is    -0.1300 ev

!    total energy              =    -757.32870931 Ry
     Harris-Foulkes estimate   =    -757.32870953 Ry
     estimated scf accuracy    <       0.00000035 Ry

     The total energy is the sum of the following terms:

     one-electron contribution =   -2577.45345207 Ry
     hartree contribution      =    1335.56576651 Ry
     xc contribution           =    -252.65826008 Ry
     ewald contribution        =     737.21784981 Ry
     smearing contrib. (-TS)   =      -0.00061349 Ry

     convergence has been achieved in  21 iterations

     Writing output data file vanadio-baricentro-distance-3.5.save/

     init_run     :     48.33s CPU     49.52s WALL (       1 calls)
     electrons    :   1240.06s CPU   1277.37s WALL (       1 calls)

     Called by init_run:
     wfcinit      :     24.06s CPU     24.20s WALL (       1 calls)
     wfcinit:atom :      0.03s CPU      0.06s WALL (       1 calls)
     wfcinit:wfcr :     23.84s CPU     23.93s WALL (       1 calls)
     potinit      :     11.14s CPU     11.54s WALL (       1 calls)
     hinit0       :      7.44s CPU      7.50s WALL (       1 calls)

     Called by electrons:
     c_bands      :    753.25s CPU    757.16s WALL (      21 calls)
     sum_band     :    240.95s CPU    253.88s WALL (      21 calls)
     v_of_rho     :    147.83s CPU    156.54s WALL (      22 calls)
     v_h          :      1.81s CPU      1.88s WALL (      22 calls)
     v_xc         :    146.01s CPU    154.66s WALL (      22 calls)
     newd         :    102.67s CPU    115.17s WALL (      22 calls)
     mix_rho      :      4.73s CPU      4.80s WALL (      21 calls)

     Called by c_bands:
     init_us_2    :      2.09s CPU      2.13s WALL (      43 calls)
     cegterg      :    748.42s CPU    752.30s WALL (      21 calls)

     Called by sum_band:
     sum_band:bec :      0.02s CPU      0.02s WALL (      21 calls)
     addusdens    :    149.97s CPU    162.31s WALL (      21 calls)

     Called by *egterg:
     h_psi        :    399.80s CPU    402.49s WALL (     109 calls)
     s_psi        :    131.84s CPU    131.94s WALL (     109 calls)
     g_psi        :      0.39s CPU      0.39s WALL (      87 calls)
     cdiaghg      :      8.04s CPU      8.05s WALL (     108 calls)
     cegterg:over :     92.32s CPU     92.38s WALL (      87 calls)
     cegterg:upda :     58.33s CPU     58.62s WALL (      87 calls)
     cegterg:last :     38.79s CPU     38.80s WALL (      21 calls)

     Called by h_psi:
     h_psi:pot    :    399.31s CPU    401.51s WALL (     109 calls)
     h_psi:calbec :    133.72s CPU    133.78s WALL (     109 calls)
     vloc_psi     :    132.55s CPU    134.61s WALL (     109 calls)
     add_vuspsi   :    133.05s CPU    133.11s WALL (     109 calls)

     General routines
     calbec       :    189.14s CPU    189.24s WALL (     130 calls)
     fft          :     85.02s CPU     88.10s WALL (    1384 calls)
     ffts         :      0.86s CPU      0.89s WALL (      43 calls)
     fftw         :    139.32s CPU    141.59s WALL (   15447 calls)
     interpolate  :      2.08s CPU      2.14s WALL (      22 calls)

     Parallel routines
     fft_scatt_xy :     40.78s CPU     41.17s WALL (   16874 calls)
     fft_scatt_yz :     73.44s CPU     77.36s WALL (   16874 calls)

     PWSCF        :  21m29.70s CPU  22m 8.43s WALL


   This run was terminated on:  12: 2:19  31Aug2022            

=------------------------------------------------------------------------------=
   JOB DONE.
=------------------------------------------------------------------------------=
