
     Program PWSCF v.6.4.1 starts on 31Aug2022 at 10:40:41 

     This program is part of the open-source Quantum ESPRESSO suite
     for quantum simulation of materials; please cite
         "P. Giannozzi et al., J. Phys.:Condens. Matter 21 395502 (2009);
         "P. Giannozzi et al., J. Phys.:Condens. Matter 29 465901 (2017);
          URL http://www.quantum-espresso.org", 
     in publications or presentations arising from this work. More details at
     http://www.quantum-espresso.org/quote

     Parallel version (MPI), running on     6 processors

     MPI processes distributed on     1 nodes
     R & G space division:  proc/nbgrp/npool/nimage =       6
     Reading input from distance-5.0.in

     Current dimensions of program PWSCF are:
     Max number of different atomic species (ntypx) = 10
     Max number of k-points (npk) =  40000
     Max angular momentum in pseudopotentials (lmaxx) =  3

     IMPORTANT: XC functional enforced from input :
     Exchange-correlation      = RVV10 ( 1  4 13  4 3 0)
     Any further DFT definition will be discarded
     Please, verify this is what you really want

               file H.pbe-rrkjus.UPF: wavefunction(s)  1S renormalized
               file V.pbe-spnl-rrkjus_psl.1.0.0.UPF: wavefunction(s)  3P 3D renormalized

     Subspace diagonalization in iterative solution of the eigenvalue problem:
     a serial algorithm will be used


     Parallelization info
     --------------------
     sticks:   dense  smooth     PW     G-vecs:    dense   smooth      PW
     Min        3051    1746    432               270999   117096   14629
     Max        3053    1747    437               271001   117099   14630
     Sum       18313   10477   2611              1626001   702581   87777



     bravais-lattice index     =            4
     lattice parameter (alat)  =      23.2937  a.u.
     unit-cell volume          =    8879.8548 (a.u.)^3
     number of atoms/cell      =           52
     number of atomic types    =            3
     number of electrons       =       211.00
     number of Kohn-Sham states=          127
     kinetic-energy cutoff     =      70.0000  Ry
     charge density cutoff     =     490.0000  Ry
     convergence threshold     =      1.0E-06
     mixing beta               =       0.7000
     number of iterations used =            8  plain     mixing
     Exchange-correlation      = RVV10 ( 1  4 13  4 3 0)

     celldm(1)=  23.293684  celldm(2)=   0.000000  celldm(3)=   0.811261
     celldm(4)=   0.000000  celldm(5)=   0.000000  celldm(6)=   0.000000

     crystal axes: (cart. coord. in units of alat)
               a(1) = (   1.000000   0.000000   0.000000 )  
               a(2) = (  -0.500000   0.866025   0.000000 )  
               a(3) = (   0.000000   0.000000   0.811261 )  

     reciprocal axes: (cart. coord. in units 2 pi/alat)
               b(1) = (  1.000000  0.577350 -0.000000 )  
               b(2) = (  0.000000  1.154701  0.000000 )  
               b(3) = (  0.000000 -0.000000  1.232649 )  


     PseudoPot. # 1 for H  read from file:
     /home/cristian/Escritorio/Proyecto_Grafeno/pseudopotenciales/H.pbe-rrkjus.UPF
     MD5 check sum: 7cc9d459525c9a0585f487a71c3c9563
     Pseudo is Ultrasoft, Zval =  1.0
     Generated by new atomic code, or converted to UPF format
     Using radial grid of 1061 points,  2 beta functions with: 
                l(1) =   0
                l(2) =   0
     Q(r) pseudized with 0 coefficients 


     PseudoPot. # 2 for C  read from file:
     /home/cristian/Escritorio/Proyecto_Grafeno/pseudopotenciales/C.pbe-n-rrkjus_psl.1.0.0.UPF
     MD5 check sum: 1fdd950c42eb37d8afe3dd2f8d12311e
     Pseudo is Ultrasoft + core correction, Zval =  4.0
     Generated using "atomic" code by A. Dal Corso v.6.3MaX
     Using radial grid of 1073 points,  4 beta functions with: 
                l(1) =   0
                l(2) =   0
                l(3) =   1
                l(4) =   1
     Q(r) pseudized with 0 coefficients 


     PseudoPot. # 3 for V  read from file:
     /home/cristian/Escritorio/Proyecto_Grafeno/pseudopotenciales/V.pbe-spnl-rrkjus_psl.1.0.0.UPF
     MD5 check sum: 79b3eb63147daf0b665d9f1bcc691206
     Pseudo is Ultrasoft + core correction, Zval = 13.0
     Generated using "atomic" code by A. Dal Corso v.6.2.2
     Using radial grid of 1181 points,  6 beta functions with: 
                l(1) =   0
                l(2) =   0
                l(3) =   1
                l(4) =   1
                l(5) =   2
                l(6) =   2
     Q(r) pseudized with 0 coefficients 


     vdW kernel table read from file rVV10_kernel_table
     MD5 check sum: b8e2538accc0c0b3206b45ba4daaba6c

     atomic species   valence    mass     pseudopotential
        H              1.00     1.00794     H ( 1.00)
        C              4.00    12.01070     C ( 1.00)
        V             13.00    50.94150     V ( 1.00)

      2 Sym. Ops. (no inversion) found


                                    s                        frac. trans.

      isym =  1     identity                                     

 cryst.   s( 1) = (     1          0          0      )
                  (     0          1          0      )
                  (     0          0          1      )

 cart.    s( 1) = (  1.0000000  0.0000000  0.0000000 )
                  (  0.0000000  1.0000000  0.0000000 )
                  (  0.0000000  0.0000000  1.0000000 )


      isym =  2     inv. 180 deg rotation - cart. axis [0,0,1]   

 cryst.   s( 2) = (     1          0          0      )
                  (     0          1          0      )
                  (     0          0         -1      )

 cart.    s( 2) = (  1.0000000  0.0000000  0.0000000 )
                  (  0.0000000  1.0000000  0.0000000 )
                  (  0.0000000  0.0000000 -1.0000000 )


     point group C_s (m)    
     there are  2 classes
     the character table:

       E     s    
A'     1.00  1.00
A''    1.00 -1.00

     the symmetry operations in each class and the name of the first element:

     E        1
          identity                                               
     s        2
          inv. 180 deg rotation - cart. axis [0,0,1]             

   Cartesian axes

     site n.     atom                  positions (alat units)
         1           H   tau(   1) = (   0.2361603   0.4618802   0.4056306  )
         2           H   tau(   2) = (   0.2971730   0.4618802   0.4056306  )
         3           C   tau(   3) = (   0.0000000   0.0000000   0.0000000  )
         4           C   tau(   4) = (   0.0000000   0.1154701   0.0000000  )
         5           C   tau(   5) = (  -0.1000000   0.1732051   0.0000000  )
         6           C   tau(   6) = (  -0.1000000   0.2886751   0.0000000  )
         7           C   tau(   7) = (  -0.2000000   0.3464102   0.0000000  )
         8           C   tau(   8) = (  -0.2000000   0.4618802   0.0000000  )
         9           C   tau(   9) = (  -0.3000000   0.5196152   0.0000000  )
        10           C   tau(  10) = (  -0.3000000   0.6350853   0.0000000  )
        11           C   tau(  11) = (  -0.4000000   0.6928203   0.0000000  )
        12           C   tau(  12) = (  -0.4000000   0.8082904   0.0000000  )
        13           C   tau(  13) = (   0.2000000   0.0000000   0.0000000  )
        14           C   tau(  14) = (   0.2000000   0.1154701   0.0000000  )
        15           C   tau(  15) = (   0.1000000   0.1732051   0.0000000  )
        16           C   tau(  16) = (   0.1000000   0.2886751   0.0000000  )
        17           C   tau(  17) = (   0.0000000   0.3464102   0.0000000  )
        18           C   tau(  18) = (   0.0000000   0.4618802   0.0000000  )
        19           C   tau(  19) = (  -0.1000000   0.5196152   0.0000000  )
        20           C   tau(  20) = (  -0.1000000   0.6350853   0.0000000  )
        21           C   tau(  21) = (  -0.2000000   0.6928203   0.0000000  )
        22           C   tau(  22) = (  -0.2000000   0.8082904   0.0000000  )
        23           C   tau(  23) = (   0.4000000   0.0000000   0.0000000  )
        24           C   tau(  24) = (   0.4000000   0.1154701   0.0000000  )
        25           C   tau(  25) = (   0.3000000   0.1732051   0.0000000  )
        26           C   tau(  26) = (   0.3000000   0.2886751   0.0000000  )
        27           C   tau(  27) = (   0.2000000   0.3464102   0.0000000  )
        28           V   tau(  28) = (   0.2000000   0.4618802   0.0000000  )
        29           C   tau(  29) = (   0.1000000   0.5196152   0.0000000  )
        30           C   tau(  30) = (   0.1000000   0.6350853   0.0000000  )
        31           C   tau(  31) = (   0.0000000   0.6928203   0.0000000  )
        32           C   tau(  32) = (   0.0000000   0.8082904   0.0000000  )
        33           C   tau(  33) = (   0.6000000   0.0000000   0.0000000  )
        34           C   tau(  34) = (   0.6000000   0.1154701   0.0000000  )
        35           C   tau(  35) = (   0.5000000   0.1732051   0.0000000  )
        36           C   tau(  36) = (   0.5000000   0.2886751   0.0000000  )
        37           C   tau(  37) = (   0.4000000   0.3464102   0.0000000  )
        38           C   tau(  38) = (   0.4000000   0.4618802   0.0000000  )
        39           C   tau(  39) = (   0.3000000   0.5196152   0.0000000  )
        40           C   tau(  40) = (   0.3000000   0.6350853   0.0000000  )
        41           C   tau(  41) = (   0.2000000   0.6928203   0.0000000  )
        42           C   tau(  42) = (   0.2000000   0.8082904   0.0000000  )
        43           C   tau(  43) = (   0.8000000   0.0000000   0.0000000  )
        44           C   tau(  44) = (   0.8000000   0.1154701   0.0000000  )
        45           C   tau(  45) = (   0.7000000   0.1732051   0.0000000  )
        46           C   tau(  46) = (   0.7000000   0.2886751   0.0000000  )
        47           C   tau(  47) = (   0.6000000   0.3464102   0.0000000  )
        48           C   tau(  48) = (   0.6000000   0.4618802   0.0000000  )
        49           C   tau(  49) = (   0.5000000   0.5196152   0.0000000  )
        50           C   tau(  50) = (   0.5000000   0.6350853   0.0000000  )
        51           C   tau(  51) = (   0.4000000   0.6928203   0.0000000  )
        52           C   tau(  52) = (   0.4000000   0.8082904   0.0000000  )

   Crystallographic axes

     site n.     atom                  positions (cryst. coord.)
         1           H   tau(   1) = (  0.5028270  0.5333333  0.5000000  )
         2           H   tau(   2) = (  0.5638397  0.5333333  0.5000000  )
         3           C   tau(   3) = (  0.0000000  0.0000000  0.0000000  )
         4           C   tau(   4) = (  0.0666667  0.1333333  0.0000000  )
         5           C   tau(   5) = (  0.0000000  0.2000000  0.0000000  )
         6           C   tau(   6) = (  0.0666667  0.3333333  0.0000000  )
         7           C   tau(   7) = (  0.0000000  0.4000000  0.0000000  )
         8           C   tau(   8) = (  0.0666667  0.5333333  0.0000000  )
         9           C   tau(   9) = (  0.0000000  0.6000000  0.0000000  )
        10           C   tau(  10) = (  0.0666667  0.7333333  0.0000000  )
        11           C   tau(  11) = (  0.0000000  0.8000000  0.0000000  )
        12           C   tau(  12) = (  0.0666667  0.9333333  0.0000000  )
        13           C   tau(  13) = (  0.2000000  0.0000000  0.0000000  )
        14           C   tau(  14) = (  0.2666667  0.1333333  0.0000000  )
        15           C   tau(  15) = (  0.2000000  0.2000000  0.0000000  )
        16           C   tau(  16) = (  0.2666667  0.3333333  0.0000000  )
        17           C   tau(  17) = (  0.2000000  0.4000000  0.0000000  )
        18           C   tau(  18) = (  0.2666667  0.5333333  0.0000000  )
        19           C   tau(  19) = (  0.2000000  0.6000000  0.0000000  )
        20           C   tau(  20) = (  0.2666667  0.7333333  0.0000000  )
        21           C   tau(  21) = (  0.2000000  0.8000000  0.0000000  )
        22           C   tau(  22) = (  0.2666667  0.9333333  0.0000000  )
        23           C   tau(  23) = (  0.4000000  0.0000000  0.0000000  )
        24           C   tau(  24) = (  0.4666667  0.1333333  0.0000000  )
        25           C   tau(  25) = (  0.4000000  0.2000000  0.0000000  )
        26           C   tau(  26) = (  0.4666667  0.3333333  0.0000000  )
        27           C   tau(  27) = (  0.4000000  0.4000000  0.0000000  )
        28           V   tau(  28) = (  0.4666667  0.5333333  0.0000000  )
        29           C   tau(  29) = (  0.4000000  0.6000000  0.0000000  )
        30           C   tau(  30) = (  0.4666667  0.7333333  0.0000000  )
        31           C   tau(  31) = (  0.4000000  0.8000000  0.0000000  )
        32           C   tau(  32) = (  0.4666667  0.9333333  0.0000000  )
        33           C   tau(  33) = (  0.6000000  0.0000000  0.0000000  )
        34           C   tau(  34) = (  0.6666667  0.1333333  0.0000000  )
        35           C   tau(  35) = (  0.6000000  0.2000000  0.0000000  )
        36           C   tau(  36) = (  0.6666667  0.3333333  0.0000000  )
        37           C   tau(  37) = (  0.6000000  0.4000000  0.0000000  )
        38           C   tau(  38) = (  0.6666667  0.5333333  0.0000000  )
        39           C   tau(  39) = (  0.6000000  0.6000000  0.0000000  )
        40           C   tau(  40) = (  0.6666667  0.7333333  0.0000000  )
        41           C   tau(  41) = (  0.6000000  0.8000000  0.0000000  )
        42           C   tau(  42) = (  0.6666667  0.9333333  0.0000000  )
        43           C   tau(  43) = (  0.8000000  0.0000000  0.0000000  )
        44           C   tau(  44) = (  0.8666667  0.1333333  0.0000000  )
        45           C   tau(  45) = (  0.8000000  0.2000000  0.0000000  )
        46           C   tau(  46) = (  0.8666667  0.3333333  0.0000000  )
        47           C   tau(  47) = (  0.8000000  0.4000000  0.0000000  )
        48           C   tau(  48) = (  0.8666667  0.5333333  0.0000000  )
        49           C   tau(  49) = (  0.8000000  0.6000000  0.0000000  )
        50           C   tau(  50) = (  0.8666667  0.7333333  0.0000000  )
        51           C   tau(  51) = (  0.8000000  0.8000000  0.0000000  )
        52           C   tau(  52) = (  0.8666667  0.9333333  0.0000000  )

     number of k points=     1  Marzari-Vanderbilt smearing, width (Ry)=  0.0010
                       cart. coord. in units 2pi/alat
        k(    1) = (   0.0000000   0.0000000   0.0000000), wk =   2.0000000

                       cryst. coord.
        k(    1) = (   0.0000000   0.0000000   0.0000000), wk =   2.0000000

     Dense  grid:  1626001 G-vectors     FFT dimensions: ( 180, 180, 135)

     Smooth grid:   702581 G-vectors     FFT dimensions: ( 125, 125, 108)

     Dynamical RAM for                 wfc:      28.36 MB

     Dynamical RAM for     wfc (w. buffer):      28.36 MB

     Dynamical RAM for           str. fact:      12.41 MB

     Dynamical RAM for           local pot:       0.00 MB

     Dynamical RAM for          nlocal pot:      92.46 MB

     Dynamical RAM for                qrad:      19.73 MB

     Dynamical RAM for          rho,v,vnew:      29.46 MB

     Dynamical RAM for               rhoin:       9.82 MB

     Dynamical RAM for            rho*nmix:      66.16 MB

     Dynamical RAM for           G-vectors:      16.40 MB

     Dynamical RAM for          h,s,v(r/c):      11.81 MB

     Dynamical RAM for          <psi|beta>:       0.80 MB

     Dynamical RAM for                 psi:     113.46 MB

     Dynamical RAM for                hpsi:     113.46 MB

     Dynamical RAM for                spsi:     113.46 MB

     Dynamical RAM for      wfcinit/wfcrot:      93.90 MB

     Dynamical RAM for           addusdens:     971.75 MB

     Estimated static dynamical RAM per process >     319.78 MB

     Estimated max dynamical RAM per process >       1.26 GB

     Estimated total dynamical RAM >       7.57 GB

     Check: negative core charge=   -0.000002

     Initial potential from superposition of free atoms

     starting charge  210.80465, renormalised to  211.00000

     negative rho (up, down):  9.014E-05 0.000E+00


---------------------------------------------------------------------------------
Carrying out rVV10 run using the following parameters:
Nqs =      20    Nr_points =    1024   r_max =   100.000
b_value =  6.30000    beta =  0.00901
     q_mesh =  0.00010000  0.00030000  0.00058939  0.00100810
               0.00161396  0.00249058  0.00375900  0.00559430
               0.00824984  0.01209221  0.01765183  0.02569619
               0.03733578  0.05417739  0.07854596  0.11380545
               0.16482331  0.23864234  0.34545298  0.50000000

Gradients computed in Reciprocal space

---------------------------------------------------------------------------------


     Starting wfcs are  208 randomized atomic wfcs

     total cpu time spent up to now is       52.0 secs

     Self-consistent Calculation

     iteration #  1     ecut=    70.00 Ry     beta= 0.70
     Davidson diagonalization with overlap
     ethr =  1.00E-02,  avg # of iterations =  3.0

     negative rho (up, down):  2.856E-03 0.000E+00

     total cpu time spent up to now is      125.1 secs

     total energy              =    -755.31733862 Ry
     Harris-Foulkes estimate   =    -760.48176502 Ry
     estimated scf accuracy    <       7.90229694 Ry

     iteration #  2     ecut=    70.00 Ry     beta= 0.70
     Davidson diagonalization with overlap
     ethr =  3.75E-03,  avg # of iterations =  6.0

     negative rho (up, down):  1.815E-02 0.000E+00

     total cpu time spent up to now is      194.1 secs

     total energy              =    -748.71113210 Ry
     Harris-Foulkes estimate   =    -761.15338726 Ry
     estimated scf accuracy    <      41.32624828 Ry

     iteration #  3     ecut=    70.00 Ry     beta= 0.70
     Davidson diagonalization with overlap
     ethr =  3.75E-03,  avg # of iterations =  5.0

     negative rho (up, down):  3.565E-03 0.000E+00

     total cpu time spent up to now is      282.3 secs

     total energy              =    -755.35450393 Ry
     Harris-Foulkes estimate   =    -759.79409458 Ry
     estimated scf accuracy    <      23.48829598 Ry

     iteration #  4     ecut=    70.00 Ry     beta= 0.70
     Davidson diagonalization with overlap
     ethr =  3.75E-03,  avg # of iterations =  4.0

     negative rho (up, down):  3.729E-02 0.000E+00

     total cpu time spent up to now is      337.4 secs

     total energy              =    -757.11979924 Ry
     Harris-Foulkes estimate   =    -757.74797921 Ry
     estimated scf accuracy    <       1.81928731 Ry

     iteration #  5     ecut=    70.00 Ry     beta= 0.70
     Davidson diagonalization with overlap
     ethr =  8.62E-04,  avg # of iterations =  4.0

     negative rho (up, down):  5.878E-02 0.000E+00

     total cpu time spent up to now is      398.5 secs

     total energy              =    -757.28229191 Ry
     Harris-Foulkes estimate   =    -757.35891831 Ry
     estimated scf accuracy    <       0.30022334 Ry

     iteration #  6     ecut=    70.00 Ry     beta= 0.70
     Davidson diagonalization with overlap
     ethr =  1.42E-04,  avg # of iterations =  7.0

     negative rho (up, down):  5.334E-02 0.000E+00

     total cpu time spent up to now is      454.4 secs

     total energy              =    -757.29716552 Ry
     Harris-Foulkes estimate   =    -757.32906564 Ry
     estimated scf accuracy    <       0.20871813 Ry

     iteration #  7     ecut=    70.00 Ry     beta= 0.70
     Davidson diagonalization with overlap
     ethr =  9.89E-05,  avg # of iterations =  3.0

     negative rho (up, down):  3.832E-02 0.000E+00

     total cpu time spent up to now is      507.5 secs

     total energy              =    -757.30424441 Ry
     Harris-Foulkes estimate   =    -757.31665562 Ry
     estimated scf accuracy    <       0.11810215 Ry

     iteration #  8     ecut=    70.00 Ry     beta= 0.70
     Davidson diagonalization with overlap
     ethr =  5.60E-05,  avg # of iterations =  3.0

     negative rho (up, down):  2.995E-02 0.000E+00

     total cpu time spent up to now is      559.0 secs

     total energy              =    -757.31358954 Ry
     Harris-Foulkes estimate   =    -757.31374493 Ry
     estimated scf accuracy    <       0.04338834 Ry

     iteration #  9     ecut=    70.00 Ry     beta= 0.70
     Davidson diagonalization with overlap
     ethr =  2.06E-05,  avg # of iterations =  4.0

     negative rho (up, down):  3.386E-02 0.000E+00

     total cpu time spent up to now is      616.3 secs

     total energy              =    -757.31808479 Ry
     Harris-Foulkes estimate   =    -757.32392273 Ry
     estimated scf accuracy    <       0.03681156 Ry

     iteration # 10     ecut=    70.00 Ry     beta= 0.70
     Davidson diagonalization with overlap
     ethr =  1.74E-05,  avg # of iterations =  3.0

     negative rho (up, down):  3.358E-02 0.000E+00

     total cpu time spent up to now is      668.0 secs

     total energy              =    -757.32189972 Ry
     Harris-Foulkes estimate   =    -757.32329178 Ry
     estimated scf accuracy    <       0.02369684 Ry

     iteration # 11     ecut=    70.00 Ry     beta= 0.70
     Davidson diagonalization with overlap
     ethr =  1.12E-05,  avg # of iterations =  3.0

     negative rho (up, down):  3.295E-02 0.000E+00

     total cpu time spent up to now is      722.6 secs

     total energy              =    -757.32393886 Ry
     Harris-Foulkes estimate   =    -757.32360829 Ry
     estimated scf accuracy    <       0.01347626 Ry

     iteration # 12     ecut=    70.00 Ry     beta= 0.70
     Davidson diagonalization with overlap
     ethr =  6.39E-06,  avg # of iterations =  4.0

     negative rho (up, down):  3.290E-02 0.000E+00

     total cpu time spent up to now is      776.5 secs

     total energy              =    -757.32580494 Ry
     Harris-Foulkes estimate   =    -757.32491010 Ry
     estimated scf accuracy    <       0.00398011 Ry

     iteration # 13     ecut=    70.00 Ry     beta= 0.70
     Davidson diagonalization with overlap
     ethr =  1.89E-06,  avg # of iterations =  4.0

     negative rho (up, down):  3.332E-02 0.000E+00

     total cpu time spent up to now is      832.9 secs

     total energy              =    -757.32553048 Ry
     Harris-Foulkes estimate   =    -757.32606775 Ry
     estimated scf accuracy    <       0.00128554 Ry

     iteration # 14     ecut=    70.00 Ry     beta= 0.70
     Davidson diagonalization with overlap
     ethr =  6.09E-07,  avg # of iterations =  3.0

     negative rho (up, down):  3.346E-02 0.000E+00

     total cpu time spent up to now is      887.5 secs

     total energy              =    -757.32572515 Ry
     Harris-Foulkes estimate   =    -757.32570586 Ry
     estimated scf accuracy    <       0.00164127 Ry

     iteration # 15     ecut=    70.00 Ry     beta= 0.70
     Davidson diagonalization with overlap
     ethr =  6.09E-07,  avg # of iterations =  1.0

     negative rho (up, down):  3.356E-02 0.000E+00

     total cpu time spent up to now is      938.7 secs

     total energy              =    -757.32601467 Ry
     Harris-Foulkes estimate   =    -757.32581309 Ry
     estimated scf accuracy    <       0.00042062 Ry

     iteration # 16     ecut=    70.00 Ry     beta= 0.70
     Davidson diagonalization with overlap
     ethr =  1.99E-07,  avg # of iterations =  3.0

     negative rho (up, down):  3.378E-02 0.000E+00

     total cpu time spent up to now is      991.6 secs

     total energy              =    -757.32605847 Ry
     Harris-Foulkes estimate   =    -757.32603258 Ry
     estimated scf accuracy    <       0.00001458 Ry

     iteration # 17     ecut=    70.00 Ry     beta= 0.70
     Davidson diagonalization with overlap
     ethr =  6.91E-09,  avg # of iterations =  4.0

     negative rho (up, down):  3.383E-02 0.000E+00

     total cpu time spent up to now is     1046.6 secs

     total energy              =    -757.32605969 Ry
     Harris-Foulkes estimate   =    -757.32606194 Ry
     estimated scf accuracy    <       0.00002399 Ry

     iteration # 18     ecut=    70.00 Ry     beta= 0.70
     Davidson diagonalization with overlap
     ethr =  6.91E-09,  avg # of iterations =  1.0

     negative rho (up, down):  3.387E-02 0.000E+00

     total cpu time spent up to now is     1099.2 secs

     total energy              =    -757.32606049 Ry
     Harris-Foulkes estimate   =    -757.32606052 Ry
     estimated scf accuracy    <       0.00000276 Ry

     iteration # 19     ecut=    70.00 Ry     beta= 0.70
     Davidson diagonalization with overlap
     ethr =  1.31E-09,  avg # of iterations =  3.0

     negative rho (up, down):  3.389E-02 0.000E+00

     total cpu time spent up to now is     1151.1 secs

     End of self-consistent calculation

          k = 0.0000 0.0000 0.0000 ( 87777 PWs)   bands (ev):

   -62.7610 -37.8611 -37.8607 -36.4932 -19.6253 -18.7827 -18.7826 -18.7126
   -18.6702 -18.6700 -18.2279 -16.9303 -16.9287 -16.9287 -16.7869 -16.7868
   -16.5107 -16.0718 -16.0717 -15.9832 -15.8260 -15.8259 -15.0784 -13.8791
   -13.8729 -13.8728 -13.8595 -13.8595 -13.1372 -12.9144 -12.9144 -12.8942
   -12.5037 -12.5037 -12.1056 -11.6392 -11.6391 -11.5164 -11.1358 -11.1358
   -10.1460  -9.3326  -9.3325  -9.2540  -9.1758  -9.1757  -9.0899  -9.0623
    -9.0622  -9.0484  -8.4622  -8.4622  -7.8914  -7.8913  -7.8584  -7.7762
    -7.6749  -7.2510  -7.2509  -6.9258  -6.9250  -6.8895  -6.7021  -6.6840
    -6.6835  -6.6779  -6.5882  -6.5882  -6.5430  -6.4316  -6.4316  -6.3891
    -6.3847  -6.3847  -6.3311  -6.2789  -5.2574  -5.2574  -5.1173  -5.1168
    -4.9423  -4.9422  -4.8337  -4.7454  -4.6005  -4.5841  -4.5840  -4.2260
    -3.9612  -3.9610  -3.7241  -3.7239  -3.6374  -3.6246  -3.4969  -3.4968
    -2.8845  -2.2284  -2.2282  -2.1990  -2.1989  -1.7023  -1.6750  -1.6748
    -0.5400  -0.1310  -0.1309   0.8954   1.0839   1.0897   1.0899   1.8268
     2.0828   2.0828   2.6332   2.9299   2.9301   2.9937   3.3539   3.5229
     3.6185   3.7640   3.7784   3.8273   3.9956   4.0351   4.3661

     occupation numbers 
     1.0000   1.0000   1.0000   1.0000   1.0000   1.0000   1.0000   1.0000
     1.0000   1.0000   1.0000   1.0000   1.0000   1.0000   1.0000   1.0000
     1.0000   1.0000   1.0000   1.0000   1.0000   1.0000   1.0000   1.0000
     1.0000   1.0000   1.0000   1.0000   1.0000   1.0000   1.0000   1.0000
     1.0000   1.0000   1.0000   1.0000   1.0000   1.0000   1.0000   1.0000
     1.0000   1.0000   1.0000   1.0000   1.0000   1.0000   1.0000   1.0000
     1.0000   1.0000   1.0000   1.0000   1.0000   1.0000   1.0000   1.0000
     1.0000   1.0000   1.0000   1.0000   1.0000   1.0000   1.0000   1.0000
     1.0000   1.0000   1.0000   1.0000   1.0000   1.0000   1.0000   1.0000
     1.0000   1.0000   1.0000   1.0000   1.0000   1.0000   1.0000   1.0000
     1.0000   1.0000   1.0000   1.0000   1.0000   1.0000   1.0000   1.0000
     1.0000   1.0000   1.0000   1.0000   1.0000   1.0000   1.0000   1.0000
     1.0000   1.0000   1.0000   1.0000   1.0000   1.0000   1.0000   1.0000
     1.0000   0.2507   0.2493   0.0000   0.0000   0.0000   0.0000   0.0000
     0.0000   0.0000   0.0000   0.0000   0.0000   0.0000   0.0000   0.0000
     0.0000   0.0000   0.0000   0.0000   0.0000   0.0000   0.0000

     the Fermi energy is    -0.1343 ev

!    total energy              =    -757.32606038 Ry
     Harris-Foulkes estimate   =    -757.32606064 Ry
     estimated scf accuracy    <       0.00000036 Ry

     The total energy is the sum of the following terms:

     one-electron contribution =   -2566.88381143 Ry
     hartree contribution      =    1330.26255029 Ry
     xc contribution           =    -252.65689868 Ry
     ewald contribution        =     731.95271293 Ry
     smearing contrib. (-TS)   =      -0.00061350 Ry

     convergence has been achieved in  19 iterations

     Writing output data file vanadio-baricentro-distance-5.0.save/

     init_run     :     48.27s CPU     50.89s WALL (       1 calls)
     electrons    :   1066.98s CPU   1099.17s WALL (       1 calls)

     Called by init_run:
     wfcinit      :     22.88s CPU     23.04s WALL (       1 calls)
     wfcinit:atom :      0.03s CPU      0.05s WALL (       1 calls)
     wfcinit:wfcr :     22.69s CPU     22.79s WALL (       1 calls)
     potinit      :     11.67s CPU     12.78s WALL (       1 calls)
     hinit0       :      8.46s CPU      8.58s WALL (       1 calls)

     Called by electrons:
     c_bands      :    650.21s CPU    653.18s WALL (      19 calls)
     sum_band     :    206.74s CPU    218.13s WALL (      19 calls)
     v_of_rho     :    126.51s CPU    134.80s WALL (      20 calls)
     v_h          :      1.51s CPU      1.55s WALL (      20 calls)
     v_xc         :    124.99s CPU    133.25s WALL (      20 calls)
     newd         :     88.43s CPU     99.99s WALL (      20 calls)
     mix_rho      :      3.81s CPU      3.87s WALL (      19 calls)

     Called by c_bands:
     init_us_2    :      1.74s CPU      1.78s WALL (      39 calls)
     cegterg      :    645.47s CPU    648.43s WALL (      19 calls)

     Called by sum_band:
     sum_band:bec :      0.02s CPU      0.02s WALL (      19 calls)
     addusdens    :    128.83s CPU    139.65s WALL (      19 calls)

     Called by *egterg:
     h_psi        :    343.18s CPU    345.15s WALL (      88 calls)
     s_psi        :    116.13s CPU    116.16s WALL (      88 calls)
     g_psi        :      0.36s CPU      0.36s WALL (      68 calls)
     cdiaghg      :      6.22s CPU      6.23s WALL (      87 calls)
     cegterg:over :     79.55s CPU     79.56s WALL (      68 calls)
     cegterg:upda :     51.23s CPU     51.54s WALL (      68 calls)
     cegterg:last :     33.89s CPU     33.89s WALL (      19 calls)

     Called by h_psi:
     h_psi:pot    :    342.77s CPU    344.32s WALL (      88 calls)
     h_psi:calbec :    114.77s CPU    114.79s WALL (      88 calls)
     vloc_psi     :    111.42s CPU    112.92s WALL (      88 calls)
     add_vuspsi   :    116.58s CPU    116.61s WALL (      88 calls)

     General routines
     calbec       :    162.23s CPU    162.27s WALL (     107 calls)
     fft          :     71.44s CPU     74.14s WALL (    1258 calls)
     ffts         :      0.74s CPU      0.77s WALL (      39 calls)
     fftw         :    116.47s CPU    118.16s WALL (   14067 calls)
     interpolate  :      1.79s CPU      1.84s WALL (      20 calls)

     Parallel routines
     fft_scatt_xy :     34.09s CPU     34.41s WALL (   15364 calls)
     fft_scatt_yz :     59.55s CPU     62.75s WALL (   15364 calls)

     PWSCF        :  18m36.47s CPU  19m11.53s WALL


   This run was terminated on:  10:59:53  31Aug2022            

=------------------------------------------------------------------------------=
   JOB DONE.
=------------------------------------------------------------------------------=
