
     Program PWSCF v.6.4.1 starts on 22Jul2022 at 17:51: 7 

     This program is part of the open-source Quantum ESPRESSO suite
     for quantum simulation of materials; please cite
         "P. Giannozzi et al., J. Phys.:Condens. Matter 21 395502 (2009);
         "P. Giannozzi et al., J. Phys.:Condens. Matter 29 465901 (2017);
          URL http://www.quantum-espresso.org", 
     in publications or presentations arising from this work. More details at
     http://www.quantum-espresso.org/quote

     Parallel version (MPI), running on     6 processors

     MPI processes distributed on     1 nodes
     R & G space division:  proc/nbgrp/npool/nimage =       6
     Reading input from distance-2.6.in

     Current dimensions of program PWSCF are:
     Max number of different atomic species (ntypx) = 10
     Max number of k-points (npk) =  40000
     Max angular momentum in pseudopotentials (lmaxx) =  3

     IMPORTANT: XC functional enforced from input :
     Exchange-correlation      = RVV10 ( 1  4 13  4 3 0)
     Any further DFT definition will be discarded
     Please, verify this is what you really want

               file H.pbe-rrkjus.UPF: wavefunction(s)  1S renormalized
               file Mn.pbe-spn-rrkjus_psl.0.3.1.UPF: wavefunction(s)  3D renormalized

     Subspace diagonalization in iterative solution of the eigenvalue problem:
     a serial algorithm will be used


     Parallelization info
     --------------------
     sticks:   dense  smooth     PW     G-vecs:    dense   smooth      PW
     Min        3051    1746    432               270999   117096   14629
     Max        3053    1747    437               271001   117099   14630
     Sum       18313   10477   2611              1626001   702581   87777



     bravais-lattice index     =            4
     lattice parameter (alat)  =      23.2937  a.u.
     unit-cell volume          =    8879.8548 (a.u.)^3
     number of atoms/cell      =           52
     number of atomic types    =            3
     number of electrons       =       213.00
     number of Kohn-Sham states=          128
     kinetic-energy cutoff     =      70.0000  Ry
     charge density cutoff     =     490.0000  Ry
     convergence threshold     =      1.0E-06
     mixing beta               =       0.7000
     number of iterations used =            8  plain     mixing
     Exchange-correlation      = RVV10 ( 1  4 13  4 3 0)

     celldm(1)=  23.293684  celldm(2)=   0.000000  celldm(3)=   0.811261
     celldm(4)=   0.000000  celldm(5)=   0.000000  celldm(6)=   0.000000

     crystal axes: (cart. coord. in units of alat)
               a(1) = (   1.000000   0.000000   0.000000 )  
               a(2) = (  -0.500000   0.866025   0.000000 )  
               a(3) = (   0.000000   0.000000   0.811261 )  

     reciprocal axes: (cart. coord. in units 2 pi/alat)
               b(1) = (  1.000000  0.577350 -0.000000 )  
               b(2) = (  0.000000  1.154701  0.000000 )  
               b(3) = (  0.000000 -0.000000  1.232649 )  


     PseudoPot. # 1 for H  read from file:
     /home/cristian/Escritorio/Proyecto_Grafeno/pseudopotenciales/H.pbe-rrkjus.UPF
     MD5 check sum: 7cc9d459525c9a0585f487a71c3c9563
     Pseudo is Ultrasoft, Zval =  1.0
     Generated by new atomic code, or converted to UPF format
     Using radial grid of 1061 points,  2 beta functions with: 
                l(1) =   0
                l(2) =   0
     Q(r) pseudized with 0 coefficients 


     PseudoPot. # 2 for C  read from file:
     /home/cristian/Escritorio/Proyecto_Grafeno/pseudopotenciales/C.pbe-n-rrkjus_psl.1.0.0.UPF
     MD5 check sum: 1fdd950c42eb37d8afe3dd2f8d12311e
     Pseudo is Ultrasoft + core correction, Zval =  4.0
     Generated using "atomic" code by A. Dal Corso v.6.3MaX
     Using radial grid of 1073 points,  4 beta functions with: 
                l(1) =   0
                l(2) =   0
                l(3) =   1
                l(4) =   1
     Q(r) pseudized with 0 coefficients 


     PseudoPot. # 3 for Mn read from file:
     /home/cristian/Escritorio/Proyecto_Grafeno/pseudopotenciales/Mn.pbe-spn-rrkjus_psl.0.3.1.UPF
     MD5 check sum: e1cac159bdd2ba70c18e85765a5d4279
     Pseudo is Ultrasoft + core correction, Zval = 15.0
     Generated using "atomic" code by A. Dal Corso v.6.2.2
     Using radial grid of 1187 points,  6 beta functions with: 
                l(1) =   0
                l(2) =   0
                l(3) =   1
                l(4) =   1
                l(5) =   2
                l(6) =   2
     Q(r) pseudized with 0 coefficients 


     vdW kernel table read from file rVV10_kernel_table
     MD5 check sum: b8e2538accc0c0b3206b45ba4daaba6c

     atomic species   valence    mass     pseudopotential
        H              1.00     1.00794     H ( 1.00)
        C              4.00    12.01070     C ( 1.00)
        Mn            15.00    54.93804     Mn( 1.00)

      2 Sym. Ops. (no inversion) found


                                    s                        frac. trans.

      isym =  1     identity                                     

 cryst.   s( 1) = (     1          0          0      )
                  (     0          1          0      )
                  (     0          0          1      )

 cart.    s( 1) = (  1.0000000  0.0000000  0.0000000 )
                  (  0.0000000  1.0000000  0.0000000 )
                  (  0.0000000  0.0000000  1.0000000 )


      isym =  2     inv. 180 deg rotation - cryst. axis [1,1,0]  

 cryst.   s( 2) = (     0         -1          0      )
                  (    -1          0          0      )
                  (     0          0          1      )

 cart.    s( 2) = (  0.5000000 -0.8660254  0.0000000 )
                  ( -0.8660254 -0.5000000  0.0000000 )
                  (  0.0000000  0.0000000  1.0000000 )


     point group C_s (m)    
     there are  2 classes
     the character table:

       E     s    
A'     1.00  1.00
A''    1.00 -1.00

     the symmetry operations in each class and the name of the first element:

     E        1
          identity                                               
     s        2
          inv. 180 deg rotation - cryst. axis [1,1,0]            

   Cartesian axes

     site n.     atom                  positions (alat units)
         1           H   tau(   1) = (   0.2500000   0.4330127   0.2109279  )
         2           H   tau(   2) = (   0.2500000   0.4330127   0.2719406  )
         3           C   tau(   3) = (   0.0000000   0.0000000   0.0000000  )
         4           C   tau(   4) = (   0.0000000   0.1154701   0.0000000  )
         5           C   tau(   5) = (  -0.1000000   0.1732051   0.0000000  )
         6           C   tau(   6) = (  -0.1000000   0.2886751   0.0000000  )
         7           C   tau(   7) = (  -0.2000000   0.3464102   0.0000000  )
         8           C   tau(   8) = (  -0.2000000   0.4618802   0.0000000  )
         9           C   tau(   9) = (  -0.3000000   0.5196152   0.0000000  )
        10           C   tau(  10) = (  -0.3000000   0.6350853   0.0000000  )
        11           C   tau(  11) = (  -0.4000000   0.6928203   0.0000000  )
        12           C   tau(  12) = (  -0.4000000   0.8082904   0.0000000  )
        13           C   tau(  13) = (   0.2000000   0.0000000   0.0000000  )
        14           C   tau(  14) = (   0.2000000   0.1154701   0.0000000  )
        15           C   tau(  15) = (   0.1000000   0.1732051   0.0000000  )
        16           C   tau(  16) = (   0.1000000   0.2886751   0.0000000  )
        17           C   tau(  17) = (   0.0000000   0.3464102   0.0000000  )
        18           C   tau(  18) = (   0.0000000   0.4618802   0.0000000  )
        19           C   tau(  19) = (  -0.1000000   0.5196152   0.0000000  )
        20           C   tau(  20) = (  -0.1000000   0.6350853   0.0000000  )
        21           C   tau(  21) = (  -0.2000000   0.6928203   0.0000000  )
        22           C   tau(  22) = (  -0.2000000   0.8082904   0.0000000  )
        23           C   tau(  23) = (   0.4000000   0.0000000   0.0000000  )
        24           C   tau(  24) = (   0.4000000   0.1154701   0.0000000  )
        25           C   tau(  25) = (   0.3000000   0.1732051   0.0000000  )
        26           C   tau(  26) = (   0.3000000   0.2886751   0.0000000  )
        27           C   tau(  27) = (   0.2000000   0.3464102   0.0000000  )
        28           Mn  tau(  28) = (   0.2000000   0.4618802   0.0000000  )
        29           C   tau(  29) = (   0.1000000   0.5196152   0.0000000  )
        30           C   tau(  30) = (   0.1000000   0.6350853   0.0000000  )
        31           C   tau(  31) = (   0.0000000   0.6928203   0.0000000  )
        32           C   tau(  32) = (   0.0000000   0.8082904   0.0000000  )
        33           C   tau(  33) = (   0.6000000   0.0000000   0.0000000  )
        34           C   tau(  34) = (   0.6000000   0.1154701   0.0000000  )
        35           C   tau(  35) = (   0.5000000   0.1732051   0.0000000  )
        36           C   tau(  36) = (   0.5000000   0.2886751   0.0000000  )
        37           C   tau(  37) = (   0.4000000   0.3464102   0.0000000  )
        38           C   tau(  38) = (   0.4000000   0.4618802   0.0000000  )
        39           C   tau(  39) = (   0.3000000   0.5196152   0.0000000  )
        40           C   tau(  40) = (   0.3000000   0.6350853   0.0000000  )
        41           C   tau(  41) = (   0.2000000   0.6928203   0.0000000  )
        42           C   tau(  42) = (   0.2000000   0.8082904   0.0000000  )
        43           C   tau(  43) = (   0.8000000   0.0000000   0.0000000  )
        44           C   tau(  44) = (   0.8000000   0.1154701   0.0000000  )
        45           C   tau(  45) = (   0.7000000   0.1732051   0.0000000  )
        46           C   tau(  46) = (   0.7000000   0.2886751   0.0000000  )
        47           C   tau(  47) = (   0.6000000   0.3464102   0.0000000  )
        48           C   tau(  48) = (   0.6000000   0.4618802   0.0000000  )
        49           C   tau(  49) = (   0.5000000   0.5196152   0.0000000  )
        50           C   tau(  50) = (   0.5000000   0.6350853   0.0000000  )
        51           C   tau(  51) = (   0.4000000   0.6928203   0.0000000  )
        52           C   tau(  52) = (   0.4000000   0.8082904   0.0000000  )

   Crystallographic axes

     site n.     atom                  positions (cryst. coord.)
         1           H   tau(   1) = (  0.5000000  0.5000000  0.2600000  )
         2           H   tau(   2) = (  0.5000000  0.5000000  0.3352072  )
         3           C   tau(   3) = (  0.0000000  0.0000000  0.0000000  )
         4           C   tau(   4) = (  0.0666667  0.1333333  0.0000000  )
         5           C   tau(   5) = (  0.0000000  0.2000000  0.0000000  )
         6           C   tau(   6) = (  0.0666667  0.3333333  0.0000000  )
         7           C   tau(   7) = (  0.0000000  0.4000000  0.0000000  )
         8           C   tau(   8) = (  0.0666667  0.5333333  0.0000000  )
         9           C   tau(   9) = (  0.0000000  0.6000000  0.0000000  )
        10           C   tau(  10) = (  0.0666667  0.7333333  0.0000000  )
        11           C   tau(  11) = (  0.0000000  0.8000000  0.0000000  )
        12           C   tau(  12) = (  0.0666667  0.9333333  0.0000000  )
        13           C   tau(  13) = (  0.2000000  0.0000000  0.0000000  )
        14           C   tau(  14) = (  0.2666667  0.1333333  0.0000000  )
        15           C   tau(  15) = (  0.2000000  0.2000000  0.0000000  )
        16           C   tau(  16) = (  0.2666667  0.3333333  0.0000000  )
        17           C   tau(  17) = (  0.2000000  0.4000000  0.0000000  )
        18           C   tau(  18) = (  0.2666667  0.5333333  0.0000000  )
        19           C   tau(  19) = (  0.2000000  0.6000000  0.0000000  )
        20           C   tau(  20) = (  0.2666667  0.7333333  0.0000000  )
        21           C   tau(  21) = (  0.2000000  0.8000000  0.0000000  )
        22           C   tau(  22) = (  0.2666667  0.9333333  0.0000000  )
        23           C   tau(  23) = (  0.4000000  0.0000000  0.0000000  )
        24           C   tau(  24) = (  0.4666667  0.1333333  0.0000000  )
        25           C   tau(  25) = (  0.4000000  0.2000000  0.0000000  )
        26           C   tau(  26) = (  0.4666667  0.3333333  0.0000000  )
        27           C   tau(  27) = (  0.4000000  0.4000000  0.0000000  )
        28           Mn  tau(  28) = (  0.4666667  0.5333333  0.0000000  )
        29           C   tau(  29) = (  0.4000000  0.6000000  0.0000000  )
        30           C   tau(  30) = (  0.4666667  0.7333333  0.0000000  )
        31           C   tau(  31) = (  0.4000000  0.8000000  0.0000000  )
        32           C   tau(  32) = (  0.4666667  0.9333333  0.0000000  )
        33           C   tau(  33) = (  0.6000000  0.0000000  0.0000000  )
        34           C   tau(  34) = (  0.6666667  0.1333333  0.0000000  )
        35           C   tau(  35) = (  0.6000000  0.2000000  0.0000000  )
        36           C   tau(  36) = (  0.6666667  0.3333333  0.0000000  )
        37           C   tau(  37) = (  0.6000000  0.4000000  0.0000000  )
        38           C   tau(  38) = (  0.6666667  0.5333333  0.0000000  )
        39           C   tau(  39) = (  0.6000000  0.6000000  0.0000000  )
        40           C   tau(  40) = (  0.6666667  0.7333333  0.0000000  )
        41           C   tau(  41) = (  0.6000000  0.8000000  0.0000000  )
        42           C   tau(  42) = (  0.6666667  0.9333333  0.0000000  )
        43           C   tau(  43) = (  0.8000000  0.0000000  0.0000000  )
        44           C   tau(  44) = (  0.8666667  0.1333333  0.0000000  )
        45           C   tau(  45) = (  0.8000000  0.2000000  0.0000000  )
        46           C   tau(  46) = (  0.8666667  0.3333333  0.0000000  )
        47           C   tau(  47) = (  0.8000000  0.4000000  0.0000000  )
        48           C   tau(  48) = (  0.8666667  0.5333333  0.0000000  )
        49           C   tau(  49) = (  0.8000000  0.6000000  0.0000000  )
        50           C   tau(  50) = (  0.8666667  0.7333333  0.0000000  )
        51           C   tau(  51) = (  0.8000000  0.8000000  0.0000000  )
        52           C   tau(  52) = (  0.8666667  0.9333333  0.0000000  )

     number of k points=     1  Marzari-Vanderbilt smearing, width (Ry)=  0.0010
                       cart. coord. in units 2pi/alat
        k(    1) = (   0.0000000   0.0000000   0.0000000), wk =   2.0000000

                       cryst. coord.
        k(    1) = (   0.0000000   0.0000000   0.0000000), wk =   2.0000000

     Dense  grid:  1626001 G-vectors     FFT dimensions: ( 180, 180, 135)

     Smooth grid:   702581 G-vectors     FFT dimensions: ( 125, 125, 108)

     Dynamical RAM for                 wfc:      28.59 MB

     Dynamical RAM for     wfc (w. buffer):      28.59 MB

     Dynamical RAM for           str. fact:      12.41 MB

     Dynamical RAM for           local pot:       0.00 MB

     Dynamical RAM for          nlocal pot:      92.46 MB

     Dynamical RAM for                qrad:      19.73 MB

     Dynamical RAM for          rho,v,vnew:      29.46 MB

     Dynamical RAM for               rhoin:       9.82 MB

     Dynamical RAM for            rho*nmix:      66.16 MB

     Dynamical RAM for           G-vectors:      16.40 MB

     Dynamical RAM for          h,s,v(r/c):      12.00 MB

     Dynamical RAM for          <psi|beta>:       0.81 MB

     Dynamical RAM for                 psi:     114.35 MB

     Dynamical RAM for                hpsi:     114.35 MB

     Dynamical RAM for                spsi:     114.35 MB

     Dynamical RAM for      wfcinit/wfcrot:      93.90 MB

     Dynamical RAM for           addusdens:     971.75 MB

     Estimated static dynamical RAM per process >     320.00 MB

     Estimated max dynamical RAM per process >       1.26 GB

     Estimated total dynamical RAM >       7.57 GB

     Check: negative core charge=   -0.000002

     Initial potential from superposition of free atoms

     starting charge  212.80506, renormalised to  213.00000

     negative rho (up, down):  7.006E-05 0.000E+00


---------------------------------------------------------------------------------
Carrying out rVV10 run using the following parameters:
Nqs =      20    Nr_points =    1024   r_max =   100.000
b_value =  6.30000    beta =  0.00901
     q_mesh =  0.00010000  0.00030000  0.00058939  0.00100810
               0.00161396  0.00249058  0.00375900  0.00559430
               0.00824984  0.01209221  0.01765183  0.02569619
               0.03733578  0.05417739  0.07854596  0.11380545
               0.16482331  0.23864234  0.34545298  0.50000000

Gradients computed in Reciprocal space

---------------------------------------------------------------------------------


     Starting wfcs are  208 randomized atomic wfcs

     total cpu time spent up to now is       47.7 secs

     Self-consistent Calculation

     iteration #  1     ecut=    70.00 Ry     beta= 0.70
     Davidson diagonalization with overlap
     ethr =  1.00E-02,  avg # of iterations =  2.0

     negative rho (up, down):  1.401E-04 0.000E+00

     total cpu time spent up to now is      116.7 secs

     total energy              =    -823.06033599 Ry
     Harris-Foulkes estimate   =    -828.82284159 Ry
     estimated scf accuracy    <       8.46371468 Ry

     iteration #  2     ecut=    70.00 Ry     beta= 0.70
     Davidson diagonalization with overlap
     ethr =  3.97E-03,  avg # of iterations =  8.0

     negative rho (up, down):  1.718E-04 0.000E+00

     total cpu time spent up to now is      186.3 secs

     total energy              =    -815.46239026 Ry
     Harris-Foulkes estimate   =    -835.25794502 Ry
     estimated scf accuracy    <      81.29705561 Ry

     iteration #  3     ecut=    70.00 Ry     beta= 0.70
     Davidson diagonalization with overlap
     ethr =  3.97E-03,  avg # of iterations =  6.0

     negative rho (up, down):  2.284E-04 0.000E+00

     total cpu time spent up to now is      283.4 secs

     total energy              =    -825.01072858 Ry
     Harris-Foulkes estimate   =    -826.91583078 Ry
     estimated scf accuracy    <       8.94404260 Ry

     iteration #  4     ecut=    70.00 Ry     beta= 0.70
     Davidson diagonalization with overlap
     ethr =  3.97E-03,  avg # of iterations =  3.0

     negative rho (up, down):  2.568E-04 0.000E+00

     total cpu time spent up to now is      335.9 secs

     total energy              =    -825.69023217 Ry
     Harris-Foulkes estimate   =    -826.21009212 Ry
     estimated scf accuracy    <       1.50012366 Ry

     iteration #  5     ecut=    70.00 Ry     beta= 0.70
     Davidson diagonalization with overlap
     ethr =  7.04E-04,  avg # of iterations =  6.0

     negative rho (up, down):  2.775E-04 0.000E+00

     total cpu time spent up to now is      392.9 secs

     total energy              =    -825.86613842 Ry
     Harris-Foulkes estimate   =    -825.95596991 Ry
     estimated scf accuracy    <       0.31618227 Ry

     iteration #  6     ecut=    70.00 Ry     beta= 0.70
     Davidson diagonalization with overlap
     ethr =  1.48E-04,  avg # of iterations =  6.0

     negative rho (up, down):  2.975E-04 0.000E+00

     total cpu time spent up to now is      447.3 secs

     total energy              =    -825.88634017 Ry
     Harris-Foulkes estimate   =    -825.91535707 Ry
     estimated scf accuracy    <       0.19186440 Ry

     iteration #  7     ecut=    70.00 Ry     beta= 0.70
     Davidson diagonalization with overlap
     ethr =  9.01E-05,  avg # of iterations =  2.0

     negative rho (up, down):  3.343E-04 0.000E+00

     total cpu time spent up to now is      499.2 secs

     total energy              =    -825.86499688 Ry
     Harris-Foulkes estimate   =    -825.92199047 Ry
     estimated scf accuracy    <       0.47882024 Ry

     iteration #  8     ecut=    70.00 Ry     beta= 0.70
     Davidson diagonalization with overlap
     ethr =  9.01E-05,  avg # of iterations =  2.0

     negative rho (up, down):  4.650E-04 0.000E+00

     total cpu time spent up to now is      551.1 secs

     total energy              =    -825.89989283 Ry
     Harris-Foulkes estimate   =    -825.92255828 Ry
     estimated scf accuracy    <       0.31392574 Ry

     iteration #  9     ecut=    70.00 Ry     beta= 0.70
     Davidson diagonalization with overlap
     ethr =  9.01E-05,  avg # of iterations =  1.0

     negative rho (up, down):  5.628E-04 0.000E+00

     total cpu time spent up to now is      602.2 secs

     total energy              =    -825.89679567 Ry
     Harris-Foulkes estimate   =    -825.90511419 Ry
     estimated scf accuracy    <       0.20609703 Ry

     iteration # 10     ecut=    70.00 Ry     beta= 0.70
     Davidson diagonalization with overlap
     ethr =  9.01E-05,  avg # of iterations =  1.0

     negative rho (up, down):  6.298E-04 0.000E+00

     total cpu time spent up to now is      653.1 secs

     total energy              =    -825.89494664 Ry
     Harris-Foulkes estimate   =    -825.89847145 Ry
     estimated scf accuracy    <       0.04586469 Ry

     iteration # 11     ecut=    70.00 Ry     beta= 0.70
     Davidson diagonalization with overlap
     ethr =  2.15E-05,  avg # of iterations =  1.0

     negative rho (up, down):  5.901E-04 0.000E+00

     total cpu time spent up to now is      704.1 secs

     total energy              =    -825.89548617 Ry
     Harris-Foulkes estimate   =    -825.89824307 Ry
     estimated scf accuracy    <       0.15012332 Ry

     iteration # 12     ecut=    70.00 Ry     beta= 0.70
     Davidson diagonalization with overlap
     ethr =  2.15E-05,  avg # of iterations =  1.0

     negative rho (up, down):  5.946E-04 0.000E+00

     total cpu time spent up to now is      755.1 secs

     total energy              =    -825.89540798 Ry
     Harris-Foulkes estimate   =    -825.89719539 Ry
     estimated scf accuracy    <       0.04125996 Ry

     iteration # 13     ecut=    70.00 Ry     beta= 0.70
     Davidson diagonalization with overlap
     ethr =  1.94E-05,  avg # of iterations =  1.0

     negative rho (up, down):  6.188E-04 0.000E+00

     total cpu time spent up to now is      806.1 secs

     total energy              =    -825.89421158 Ry
     Harris-Foulkes estimate   =    -825.90049335 Ry
     estimated scf accuracy    <       0.39554108 Ry

     iteration # 14     ecut=    70.00 Ry     beta= 0.70
     Davidson diagonalization with overlap
     ethr =  1.94E-05,  avg # of iterations =  1.0

     negative rho (up, down):  6.302E-04 0.000E+00

     total cpu time spent up to now is      857.0 secs

     total energy              =    -825.89477575 Ry
     Harris-Foulkes estimate   =    -825.89900722 Ry
     estimated scf accuracy    <       0.27208742 Ry

     iteration # 15     ecut=    70.00 Ry     beta= 0.70
     Davidson diagonalization with overlap
     ethr =  1.94E-05,  avg # of iterations =  1.0

     negative rho (up, down):  6.365E-04 0.000E+00

     total cpu time spent up to now is      908.3 secs

     total energy              =    -825.89649964 Ry
     Harris-Foulkes estimate   =    -825.89787952 Ry
     estimated scf accuracy    <       0.11602577 Ry

     iteration # 16     ecut=    70.00 Ry     beta= 0.70
     Davidson diagonalization with overlap
     ethr =  1.94E-05,  avg # of iterations =  1.0

     negative rho (up, down):  6.305E-04 0.000E+00

     total cpu time spent up to now is      959.2 secs

     total energy              =    -825.89706301 Ry
     Harris-Foulkes estimate   =    -825.89721603 Ry
     estimated scf accuracy    <       0.00326495 Ry

     iteration # 17     ecut=    70.00 Ry     beta= 0.70
     Davidson diagonalization with overlap
     ethr =  1.53E-06,  avg # of iterations =  1.0

     negative rho (up, down):  6.376E-04 0.000E+00

     total cpu time spent up to now is     1010.2 secs

     total energy              =    -825.89710241 Ry
     Harris-Foulkes estimate   =    -825.89720459 Ry
     estimated scf accuracy    <       0.00237938 Ry

     iteration # 18     ecut=    70.00 Ry     beta= 0.70
     Davidson diagonalization with overlap
     ethr =  1.12E-06,  avg # of iterations =  1.0

     negative rho (up, down):  6.435E-04 0.000E+00

     total cpu time spent up to now is     1061.3 secs

     total energy              =    -825.89706961 Ry
     Harris-Foulkes estimate   =    -825.89713114 Ry
     estimated scf accuracy    <       0.00165077 Ry

     iteration # 19     ecut=    70.00 Ry     beta= 0.70
     Davidson diagonalization with overlap
     ethr =  7.75E-07,  avg # of iterations =  1.0

     negative rho (up, down):  6.442E-04 0.000E+00

     total cpu time spent up to now is     1112.6 secs

     total energy              =    -825.89704412 Ry
     Harris-Foulkes estimate   =    -825.89707541 Ry
     estimated scf accuracy    <       0.00218888 Ry

     iteration # 20     ecut=    70.00 Ry     beta= 0.70
     Davidson diagonalization with overlap
     ethr =  7.75E-07,  avg # of iterations =  1.0

     negative rho (up, down):  6.449E-04 0.000E+00

     total cpu time spent up to now is     1163.4 secs

     total energy              =    -825.89702233 Ry
     Harris-Foulkes estimate   =    -825.89705770 Ry
     estimated scf accuracy    <       0.00179138 Ry

     iteration # 21     ecut=    70.00 Ry     beta= 0.70
     Davidson diagonalization with overlap
     ethr =  7.75E-07,  avg # of iterations =  1.0

     negative rho (up, down):  6.449E-04 0.000E+00

     total cpu time spent up to now is     1214.4 secs

     total energy              =    -825.89701132 Ry
     Harris-Foulkes estimate   =    -825.89703482 Ry
     estimated scf accuracy    <       0.00087368 Ry

     iteration # 22     ecut=    70.00 Ry     beta= 0.70
     Davidson diagonalization with overlap
     ethr =  4.10E-07,  avg # of iterations =  1.0

     negative rho (up, down):  6.473E-04 0.000E+00

     total cpu time spent up to now is     1265.4 secs

     total energy              =    -825.89699774 Ry
     Harris-Foulkes estimate   =    -825.89701985 Ry
     estimated scf accuracy    <       0.00052986 Ry

     iteration # 23     ecut=    70.00 Ry     beta= 0.70
     Davidson diagonalization with overlap
     ethr =  2.49E-07,  avg # of iterations =  1.0

     negative rho (up, down):  6.459E-04 0.000E+00

     total cpu time spent up to now is     1316.3 secs

     total energy              =    -825.89693319 Ry
     Harris-Foulkes estimate   =    -825.89706448 Ry
     estimated scf accuracy    <       0.00465317 Ry

     iteration # 24     ecut=    70.00 Ry     beta= 0.70
     Davidson diagonalization with overlap
     ethr =  2.49E-07,  avg # of iterations =  1.0

     negative rho (up, down):  6.469E-04 0.000E+00

     total cpu time spent up to now is     1367.4 secs

     total energy              =    -825.89699906 Ry
     Harris-Foulkes estimate   =    -825.89702266 Ry
     estimated scf accuracy    <       0.00156030 Ry

     iteration # 25     ecut=    70.00 Ry     beta= 0.70
     Davidson diagonalization with overlap
     ethr =  2.49E-07,  avg # of iterations =  1.0

     negative rho (up, down):  6.463E-04 0.000E+00

     total cpu time spent up to now is     1418.3 secs

     total energy              =    -825.89700755 Ry
     Harris-Foulkes estimate   =    -825.89702380 Ry
     estimated scf accuracy    <       0.00116662 Ry

     iteration # 26     ecut=    70.00 Ry     beta= 0.70
     Davidson diagonalization with overlap
     ethr =  2.49E-07,  avg # of iterations =  1.0

     negative rho (up, down):  6.462E-04 0.000E+00

     total cpu time spent up to now is     1469.2 secs

     total energy              =    -825.89701616 Ry
     Harris-Foulkes estimate   =    -825.89701610 Ry
     estimated scf accuracy    <       0.00000309 Ry

     iteration # 27     ecut=    70.00 Ry     beta= 0.70
     Davidson diagonalization with overlap
     ethr =  1.45E-09,  avg # of iterations =  1.0

     negative rho (up, down):  6.462E-04 0.000E+00

     total cpu time spent up to now is     1520.4 secs

     total energy              =    -825.89701618 Ry
     Harris-Foulkes estimate   =    -825.89701633 Ry
     estimated scf accuracy    <       0.00001243 Ry

     iteration # 28     ecut=    70.00 Ry     beta= 0.70
     Davidson diagonalization with overlap
     ethr =  1.45E-09,  avg # of iterations =  1.0

     negative rho (up, down):  6.462E-04 0.000E+00

     total cpu time spent up to now is     1571.3 secs

     total energy              =    -825.89701610 Ry
     Harris-Foulkes estimate   =    -825.89701624 Ry
     estimated scf accuracy    <       0.00000745 Ry

     iteration # 29     ecut=    70.00 Ry     beta= 0.70
     Davidson diagonalization with overlap
     ethr =  1.45E-09,  avg # of iterations =  1.0

     negative rho (up, down):  6.462E-04 0.000E+00

     total cpu time spent up to now is     1622.4 secs

     total energy              =    -825.89701614 Ry
     Harris-Foulkes estimate   =    -825.89701616 Ry
     estimated scf accuracy    <       0.00000138 Ry

     iteration # 30     ecut=    70.00 Ry     beta= 0.70
     Davidson diagonalization with overlap
     ethr =  6.47E-10,  avg # of iterations =  1.0

     negative rho (up, down):  6.463E-04 0.000E+00

     total cpu time spent up to now is     1673.1 secs

     End of self-consistent calculation

          k = 0.0000 0.0000 0.0000 ( 87777 PWs)   bands (ev):

   -80.0397 -49.6791 -49.6788 -48.2611 -19.7581 -18.9206 -18.9188 -18.8319
   -18.8170 -18.8170 -18.4595 -17.0616 -17.0614 -17.0598 -16.9694 -16.9686
   -16.6717 -16.2106 -16.2097 -16.1110 -16.0480 -16.0478 -15.3554 -14.0948
   -14.0937 -14.0226 -13.9873 -13.9870 -13.3309 -13.0549 -13.0542 -13.0247
   -12.7301 -12.7298 -12.3009 -11.8263 -11.8257 -11.6469 -11.3741 -11.3738
   -10.4557  -9.6429  -9.6428  -9.4288  -9.3022  -9.3019  -9.2197  -9.1861
    -9.1859  -9.1763  -8.6895  -8.6894  -8.1442  -8.1435  -8.0473  -7.9033
    -7.8245  -7.4213  -7.4203  -7.1699  -7.1360  -7.1012  -6.8897  -6.8896
    -6.8531  -6.7982  -6.7953  -6.7451  -6.7092  -6.5525  -6.5516  -6.5273
    -6.5178  -6.5168  -6.4696  -6.3199  -5.5134  -5.5064  -5.5044  -5.5008
    -5.2832  -5.2832  -4.9790  -4.8768  -4.8508  -4.7128  -4.6828  -4.6822
    -4.3655  -4.1666  -4.1655  -4.1224  -4.1217  -3.8224  -3.8215  -3.7470
    -3.6612  -3.6605  -3.1145  -2.6252  -2.6242  -1.8118  -1.7907  -1.7905
    -0.8428  -0.8328  -0.8324  -0.8304   0.9731   0.9811   0.9825   1.6456
     1.6468   1.6507   2.5595   2.8211   2.8222   2.8861   3.1432   3.1445
     3.5166   3.5539   3.5539   3.6997   3.7113   3.7839   3.7918   3.7973

     occupation numbers 
     1.0000   1.0000   1.0000   1.0000   1.0000   1.0000   1.0000   1.0000
     1.0000   1.0000   1.0000   1.0000   1.0000   1.0000   1.0000   1.0000
     1.0000   1.0000   1.0000   1.0000   1.0000   1.0000   1.0000   1.0000
     1.0000   1.0000   1.0000   1.0000   1.0000   1.0000   1.0000   1.0000
     1.0000   1.0000   1.0000   1.0000   1.0000   1.0000   1.0000   1.0000
     1.0000   1.0000   1.0000   1.0000   1.0000   1.0000   1.0000   1.0000
     1.0000   1.0000   1.0000   1.0000   1.0000   1.0000   1.0000   1.0000
     1.0000   1.0000   1.0000   1.0000   1.0000   1.0000   1.0000   1.0000
     1.0000   1.0000   1.0000   1.0000   1.0000   1.0000   1.0000   1.0000
     1.0000   1.0000   1.0000   1.0000   1.0000   1.0000   1.0000   1.0000
     1.0000   1.0000   1.0000   1.0000   1.0000   1.0000   1.0000   1.0000
     1.0000   1.0000   1.0000   1.0000   1.0000   1.0000   1.0000   1.0000
     1.0000   1.0000   1.0000   1.0000   1.0000   1.0000   1.0000   1.0000
     1.0079   0.5496   0.5249   0.4176   0.0000   0.0000   0.0000   0.0000
     0.0000   0.0000   0.0000   0.0000   0.0000   0.0000   0.0000   0.0000
     0.0000   0.0000   0.0000   0.0000   0.0000   0.0000   0.0000   0.0000

     the Fermi energy is    -0.8300 ev

!    total energy              =    -825.89701527 Ry
     Harris-Foulkes estimate   =    -825.89701615 Ry
     estimated scf accuracy    <       0.00000097 Ry

     The total energy is the sum of the following terms:

     one-electron contribution =   -2724.09211376 Ry
     hartree contribution      =    1406.85886553 Ry
     xc contribution           =    -259.59719268 Ry
     ewald contribution        =     750.93422104 Ry
     smearing contrib. (-TS)   =      -0.00079540 Ry

     convergence has been achieved in  30 iterations

     Writing output data file gr-12-bridge2.save/

     init_run     :     45.45s CPU     46.59s WALL (       1 calls)
     electrons    :   1574.82s CPU   1625.53s WALL (       1 calls)

     Called by init_run:
     wfcinit      :     21.91s CPU     22.08s WALL (       1 calls)
     wfcinit:atom :      0.03s CPU      0.05s WALL (       1 calls)
     wfcinit:wfcr :     21.71s CPU     21.83s WALL (       1 calls)
     potinit      :     10.76s CPU     11.15s WALL (       1 calls)
     hinit0       :      7.86s CPU      7.91s WALL (       1 calls)

     Called by electrons:
     c_bands      :    933.48s CPU    938.63s WALL (      30 calls)
     sum_band     :    319.31s CPU    336.85s WALL (      30 calls)
     v_of_rho     :    193.35s CPU    205.27s WALL (      31 calls)
     v_h          :      2.21s CPU      2.32s WALL (      31 calls)
     v_xc         :    191.14s CPU    202.95s WALL (      31 calls)
     newd         :    129.23s CPU    145.94s WALL (      31 calls)
     mix_rho      :      6.43s CPU      6.55s WALL (      30 calls)

     Called by c_bands:
     init_us_2    :      2.71s CPU      2.75s WALL (      61 calls)
     cegterg      :    926.50s CPU    931.63s WALL (      30 calls)

     Called by sum_band:
     sum_band:bec :      0.03s CPU      0.03s WALL (      30 calls)
     addusdens    :    194.08s CPU    210.44s WALL (      30 calls)

     Called by *egterg:
     h_psi        :    496.68s CPU    500.35s WALL (      88 calls)
     s_psi        :    165.03s CPU    165.10s WALL (      88 calls)
     g_psi        :      0.48s CPU      0.48s WALL (      57 calls)
     cdiaghg      :      5.58s CPU      5.58s WALL (      87 calls)
     cegterg:over :    108.85s CPU    108.92s WALL (      57 calls)
     cegterg:upda :     60.81s CPU     61.21s WALL (      57 calls)
     cegterg:last :     55.14s CPU     55.16s WALL (      31 calls)

     Called by h_psi:
     h_psi:pot    :    496.08s CPU    499.15s WALL (      88 calls)
     h_psi:calbec :    165.08s CPU    165.19s WALL (      88 calls)
     vloc_psi     :    166.44s CPU    169.35s WALL (      88 calls)
     add_vuspsi   :    164.55s CPU    164.61s WALL (      88 calls)

     General routines
     calbec       :    239.96s CPU    240.10s WALL (     118 calls)
     fft          :    107.67s CPU    112.10s WALL (    1951 calls)
     ffts         :      1.14s CPU      1.17s WALL (      61 calls)
     fftw         :    179.06s CPU    182.50s WALL (   20836 calls)
     interpolate  :      2.65s CPU      2.74s WALL (      31 calls)

     Parallel routines
     fft_scatt_xy :     51.09s CPU     51.77s WALL (   22848 calls)
     fft_scatt_yz :     97.35s CPU    102.93s WALL (   22848 calls)

     PWSCF        :  27m 1.45s CPU  27m53.61s WALL


   This run was terminated on:  18:19: 1  22Jul2022            

=------------------------------------------------------------------------------=
   JOB DONE.
=------------------------------------------------------------------------------=
