
     Program PWSCF v.6.4.1 starts on 22Jul2022 at 15:17:50 

     This program is part of the open-source Quantum ESPRESSO suite
     for quantum simulation of materials; please cite
         "P. Giannozzi et al., J. Phys.:Condens. Matter 21 395502 (2009);
         "P. Giannozzi et al., J. Phys.:Condens. Matter 29 465901 (2017);
          URL http://www.quantum-espresso.org", 
     in publications or presentations arising from this work. More details at
     http://www.quantum-espresso.org/quote

     Parallel version (MPI), running on     6 processors

     MPI processes distributed on     1 nodes
     R & G space division:  proc/nbgrp/npool/nimage =       6
     Reading input from distance-4.0.in

     Current dimensions of program PWSCF are:
     Max number of different atomic species (ntypx) = 10
     Max number of k-points (npk) =  40000
     Max angular momentum in pseudopotentials (lmaxx) =  3

     IMPORTANT: XC functional enforced from input :
     Exchange-correlation      = RVV10 ( 1  4 13  4 3 0)
     Any further DFT definition will be discarded
     Please, verify this is what you really want

               file H.pbe-rrkjus.UPF: wavefunction(s)  1S renormalized
               file Mn.pbe-spn-rrkjus_psl.0.3.1.UPF: wavefunction(s)  3D renormalized

     Subspace diagonalization in iterative solution of the eigenvalue problem:
     a serial algorithm will be used


     Parallelization info
     --------------------
     sticks:   dense  smooth     PW     G-vecs:    dense   smooth      PW
     Min        3051    1746    432               270999   117096   14629
     Max        3053    1747    437               271001   117099   14630
     Sum       18313   10477   2611              1626001   702581   87777



     bravais-lattice index     =            4
     lattice parameter (alat)  =      23.2937  a.u.
     unit-cell volume          =    8879.8548 (a.u.)^3
     number of atoms/cell      =           52
     number of atomic types    =            3
     number of electrons       =       213.00
     number of Kohn-Sham states=          128
     kinetic-energy cutoff     =      70.0000  Ry
     charge density cutoff     =     490.0000  Ry
     convergence threshold     =      1.0E-06
     mixing beta               =       0.7000
     number of iterations used =            8  plain     mixing
     Exchange-correlation      = RVV10 ( 1  4 13  4 3 0)

     celldm(1)=  23.293684  celldm(2)=   0.000000  celldm(3)=   0.811261
     celldm(4)=   0.000000  celldm(5)=   0.000000  celldm(6)=   0.000000

     crystal axes: (cart. coord. in units of alat)
               a(1) = (   1.000000   0.000000   0.000000 )  
               a(2) = (  -0.500000   0.866025   0.000000 )  
               a(3) = (   0.000000   0.000000   0.811261 )  

     reciprocal axes: (cart. coord. in units 2 pi/alat)
               b(1) = (  1.000000  0.577350 -0.000000 )  
               b(2) = (  0.000000  1.154701  0.000000 )  
               b(3) = (  0.000000 -0.000000  1.232649 )  


     PseudoPot. # 1 for H  read from file:
     /home/cristian/Escritorio/Proyecto_Grafeno/pseudopotenciales/H.pbe-rrkjus.UPF
     MD5 check sum: 7cc9d459525c9a0585f487a71c3c9563
     Pseudo is Ultrasoft, Zval =  1.0
     Generated by new atomic code, or converted to UPF format
     Using radial grid of 1061 points,  2 beta functions with: 
                l(1) =   0
                l(2) =   0
     Q(r) pseudized with 0 coefficients 


     PseudoPot. # 2 for C  read from file:
     /home/cristian/Escritorio/Proyecto_Grafeno/pseudopotenciales/C.pbe-n-rrkjus_psl.1.0.0.UPF
     MD5 check sum: 1fdd950c42eb37d8afe3dd2f8d12311e
     Pseudo is Ultrasoft + core correction, Zval =  4.0
     Generated using "atomic" code by A. Dal Corso v.6.3MaX
     Using radial grid of 1073 points,  4 beta functions with: 
                l(1) =   0
                l(2) =   0
                l(3) =   1
                l(4) =   1
     Q(r) pseudized with 0 coefficients 


     PseudoPot. # 3 for Mn read from file:
     /home/cristian/Escritorio/Proyecto_Grafeno/pseudopotenciales/Mn.pbe-spn-rrkjus_psl.0.3.1.UPF
     MD5 check sum: e1cac159bdd2ba70c18e85765a5d4279
     Pseudo is Ultrasoft + core correction, Zval = 15.0
     Generated using "atomic" code by A. Dal Corso v.6.2.2
     Using radial grid of 1187 points,  6 beta functions with: 
                l(1) =   0
                l(2) =   0
                l(3) =   1
                l(4) =   1
                l(5) =   2
                l(6) =   2
     Q(r) pseudized with 0 coefficients 


     vdW kernel table read from file rVV10_kernel_table
     MD5 check sum: b8e2538accc0c0b3206b45ba4daaba6c

     atomic species   valence    mass     pseudopotential
        H              1.00     1.00794     H ( 1.00)
        C              4.00    12.01070     C ( 1.00)
        Mn            15.00    54.93804     Mn( 1.00)

      2 Sym. Ops. (no inversion) found


                                    s                        frac. trans.

      isym =  1     identity                                     

 cryst.   s( 1) = (     1          0          0      )
                  (     0          1          0      )
                  (     0          0          1      )

 cart.    s( 1) = (  1.0000000  0.0000000  0.0000000 )
                  (  0.0000000  1.0000000  0.0000000 )
                  (  0.0000000  0.0000000  1.0000000 )


      isym =  2     inv. 180 deg rotation - cryst. axis [1,1,0]  

 cryst.   s( 2) = (     0         -1          0      )
                  (    -1          0          0      )
                  (     0          0          1      )

 cart.    s( 2) = (  0.5000000 -0.8660254  0.0000000 )
                  ( -0.8660254 -0.5000000  0.0000000 )
                  (  0.0000000  0.0000000  1.0000000 )


     point group C_s (m)    
     there are  2 classes
     the character table:

       E     s    
A'     1.00  1.00
A''    1.00 -1.00

     the symmetry operations in each class and the name of the first element:

     E        1
          identity                                               
     s        2
          inv. 180 deg rotation - cryst. axis [1,1,0]            

   Cartesian axes

     site n.     atom                  positions (alat units)
         1           H   tau(   1) = (   0.2500000   0.4330127   0.3245045  )
         2           H   tau(   2) = (   0.2500000   0.4330127   0.3855171  )
         3           C   tau(   3) = (   0.0000000   0.0000000   0.0000000  )
         4           C   tau(   4) = (   0.0000000   0.1154701   0.0000000  )
         5           C   tau(   5) = (  -0.1000000   0.1732051   0.0000000  )
         6           C   tau(   6) = (  -0.1000000   0.2886751   0.0000000  )
         7           C   tau(   7) = (  -0.2000000   0.3464102   0.0000000  )
         8           C   tau(   8) = (  -0.2000000   0.4618802   0.0000000  )
         9           C   tau(   9) = (  -0.3000000   0.5196152   0.0000000  )
        10           C   tau(  10) = (  -0.3000000   0.6350853   0.0000000  )
        11           C   tau(  11) = (  -0.4000000   0.6928203   0.0000000  )
        12           C   tau(  12) = (  -0.4000000   0.8082904   0.0000000  )
        13           C   tau(  13) = (   0.2000000   0.0000000   0.0000000  )
        14           C   tau(  14) = (   0.2000000   0.1154701   0.0000000  )
        15           C   tau(  15) = (   0.1000000   0.1732051   0.0000000  )
        16           C   tau(  16) = (   0.1000000   0.2886751   0.0000000  )
        17           C   tau(  17) = (   0.0000000   0.3464102   0.0000000  )
        18           C   tau(  18) = (   0.0000000   0.4618802   0.0000000  )
        19           C   tau(  19) = (  -0.1000000   0.5196152   0.0000000  )
        20           C   tau(  20) = (  -0.1000000   0.6350853   0.0000000  )
        21           C   tau(  21) = (  -0.2000000   0.6928203   0.0000000  )
        22           C   tau(  22) = (  -0.2000000   0.8082904   0.0000000  )
        23           C   tau(  23) = (   0.4000000   0.0000000   0.0000000  )
        24           C   tau(  24) = (   0.4000000   0.1154701   0.0000000  )
        25           C   tau(  25) = (   0.3000000   0.1732051   0.0000000  )
        26           C   tau(  26) = (   0.3000000   0.2886751   0.0000000  )
        27           C   tau(  27) = (   0.2000000   0.3464102   0.0000000  )
        28           Mn  tau(  28) = (   0.2000000   0.4618802   0.0000000  )
        29           C   tau(  29) = (   0.1000000   0.5196152   0.0000000  )
        30           C   tau(  30) = (   0.1000000   0.6350853   0.0000000  )
        31           C   tau(  31) = (   0.0000000   0.6928203   0.0000000  )
        32           C   tau(  32) = (   0.0000000   0.8082904   0.0000000  )
        33           C   tau(  33) = (   0.6000000   0.0000000   0.0000000  )
        34           C   tau(  34) = (   0.6000000   0.1154701   0.0000000  )
        35           C   tau(  35) = (   0.5000000   0.1732051   0.0000000  )
        36           C   tau(  36) = (   0.5000000   0.2886751   0.0000000  )
        37           C   tau(  37) = (   0.4000000   0.3464102   0.0000000  )
        38           C   tau(  38) = (   0.4000000   0.4618802   0.0000000  )
        39           C   tau(  39) = (   0.3000000   0.5196152   0.0000000  )
        40           C   tau(  40) = (   0.3000000   0.6350853   0.0000000  )
        41           C   tau(  41) = (   0.2000000   0.6928203   0.0000000  )
        42           C   tau(  42) = (   0.2000000   0.8082904   0.0000000  )
        43           C   tau(  43) = (   0.8000000   0.0000000   0.0000000  )
        44           C   tau(  44) = (   0.8000000   0.1154701   0.0000000  )
        45           C   tau(  45) = (   0.7000000   0.1732051   0.0000000  )
        46           C   tau(  46) = (   0.7000000   0.2886751   0.0000000  )
        47           C   tau(  47) = (   0.6000000   0.3464102   0.0000000  )
        48           C   tau(  48) = (   0.6000000   0.4618802   0.0000000  )
        49           C   tau(  49) = (   0.5000000   0.5196152   0.0000000  )
        50           C   tau(  50) = (   0.5000000   0.6350853   0.0000000  )
        51           C   tau(  51) = (   0.4000000   0.6928203   0.0000000  )
        52           C   tau(  52) = (   0.4000000   0.8082904   0.0000000  )

   Crystallographic axes

     site n.     atom                  positions (cryst. coord.)
         1           H   tau(   1) = (  0.5000000  0.5000000  0.4000000  )
         2           H   tau(   2) = (  0.5000000  0.5000000  0.4752072  )
         3           C   tau(   3) = (  0.0000000  0.0000000  0.0000000  )
         4           C   tau(   4) = (  0.0666667  0.1333333  0.0000000  )
         5           C   tau(   5) = (  0.0000000  0.2000000  0.0000000  )
         6           C   tau(   6) = (  0.0666667  0.3333333  0.0000000  )
         7           C   tau(   7) = (  0.0000000  0.4000000  0.0000000  )
         8           C   tau(   8) = (  0.0666667  0.5333333  0.0000000  )
         9           C   tau(   9) = (  0.0000000  0.6000000  0.0000000  )
        10           C   tau(  10) = (  0.0666667  0.7333333  0.0000000  )
        11           C   tau(  11) = (  0.0000000  0.8000000  0.0000000  )
        12           C   tau(  12) = (  0.0666667  0.9333333  0.0000000  )
        13           C   tau(  13) = (  0.2000000  0.0000000  0.0000000  )
        14           C   tau(  14) = (  0.2666667  0.1333333  0.0000000  )
        15           C   tau(  15) = (  0.2000000  0.2000000  0.0000000  )
        16           C   tau(  16) = (  0.2666667  0.3333333  0.0000000  )
        17           C   tau(  17) = (  0.2000000  0.4000000  0.0000000  )
        18           C   tau(  18) = (  0.2666667  0.5333333  0.0000000  )
        19           C   tau(  19) = (  0.2000000  0.6000000  0.0000000  )
        20           C   tau(  20) = (  0.2666667  0.7333333  0.0000000  )
        21           C   tau(  21) = (  0.2000000  0.8000000  0.0000000  )
        22           C   tau(  22) = (  0.2666667  0.9333333  0.0000000  )
        23           C   tau(  23) = (  0.4000000  0.0000000  0.0000000  )
        24           C   tau(  24) = (  0.4666667  0.1333333  0.0000000  )
        25           C   tau(  25) = (  0.4000000  0.2000000  0.0000000  )
        26           C   tau(  26) = (  0.4666667  0.3333333  0.0000000  )
        27           C   tau(  27) = (  0.4000000  0.4000000  0.0000000  )
        28           Mn  tau(  28) = (  0.4666667  0.5333333  0.0000000  )
        29           C   tau(  29) = (  0.4000000  0.6000000  0.0000000  )
        30           C   tau(  30) = (  0.4666667  0.7333333  0.0000000  )
        31           C   tau(  31) = (  0.4000000  0.8000000  0.0000000  )
        32           C   tau(  32) = (  0.4666667  0.9333333  0.0000000  )
        33           C   tau(  33) = (  0.6000000  0.0000000  0.0000000  )
        34           C   tau(  34) = (  0.6666667  0.1333333  0.0000000  )
        35           C   tau(  35) = (  0.6000000  0.2000000  0.0000000  )
        36           C   tau(  36) = (  0.6666667  0.3333333  0.0000000  )
        37           C   tau(  37) = (  0.6000000  0.4000000  0.0000000  )
        38           C   tau(  38) = (  0.6666667  0.5333333  0.0000000  )
        39           C   tau(  39) = (  0.6000000  0.6000000  0.0000000  )
        40           C   tau(  40) = (  0.6666667  0.7333333  0.0000000  )
        41           C   tau(  41) = (  0.6000000  0.8000000  0.0000000  )
        42           C   tau(  42) = (  0.6666667  0.9333333  0.0000000  )
        43           C   tau(  43) = (  0.8000000  0.0000000  0.0000000  )
        44           C   tau(  44) = (  0.8666667  0.1333333  0.0000000  )
        45           C   tau(  45) = (  0.8000000  0.2000000  0.0000000  )
        46           C   tau(  46) = (  0.8666667  0.3333333  0.0000000  )
        47           C   tau(  47) = (  0.8000000  0.4000000  0.0000000  )
        48           C   tau(  48) = (  0.8666667  0.5333333  0.0000000  )
        49           C   tau(  49) = (  0.8000000  0.6000000  0.0000000  )
        50           C   tau(  50) = (  0.8666667  0.7333333  0.0000000  )
        51           C   tau(  51) = (  0.8000000  0.8000000  0.0000000  )
        52           C   tau(  52) = (  0.8666667  0.9333333  0.0000000  )

     number of k points=     1  Marzari-Vanderbilt smearing, width (Ry)=  0.0010
                       cart. coord. in units 2pi/alat
        k(    1) = (   0.0000000   0.0000000   0.0000000), wk =   2.0000000

                       cryst. coord.
        k(    1) = (   0.0000000   0.0000000   0.0000000), wk =   2.0000000

     Dense  grid:  1626001 G-vectors     FFT dimensions: ( 180, 180, 135)

     Smooth grid:   702581 G-vectors     FFT dimensions: ( 125, 125, 108)

     Dynamical RAM for                 wfc:      28.59 MB

     Dynamical RAM for     wfc (w. buffer):      28.59 MB

     Dynamical RAM for           str. fact:      12.41 MB

     Dynamical RAM for           local pot:       0.00 MB

     Dynamical RAM for          nlocal pot:      92.46 MB

     Dynamical RAM for                qrad:      19.73 MB

     Dynamical RAM for          rho,v,vnew:      29.46 MB

     Dynamical RAM for               rhoin:       9.82 MB

     Dynamical RAM for            rho*nmix:      66.16 MB

     Dynamical RAM for           G-vectors:      16.40 MB

     Dynamical RAM for          h,s,v(r/c):      12.00 MB

     Dynamical RAM for          <psi|beta>:       0.81 MB

     Dynamical RAM for                 psi:     114.35 MB

     Dynamical RAM for                hpsi:     114.35 MB

     Dynamical RAM for                spsi:     114.35 MB

     Dynamical RAM for      wfcinit/wfcrot:      93.90 MB

     Dynamical RAM for           addusdens:     971.75 MB

     Estimated static dynamical RAM per process >     320.00 MB

     Estimated max dynamical RAM per process >       1.26 GB

     Estimated total dynamical RAM >       7.57 GB

     Check: negative core charge=   -0.000002

     Initial potential from superposition of free atoms

     starting charge  212.80506, renormalised to  213.00000

     negative rho (up, down):  7.179E-05 0.000E+00


---------------------------------------------------------------------------------
Carrying out rVV10 run using the following parameters:
Nqs =      20    Nr_points =    1024   r_max =   100.000
b_value =  6.30000    beta =  0.00901
     q_mesh =  0.00010000  0.00030000  0.00058939  0.00100810
               0.00161396  0.00249058  0.00375900  0.00559430
               0.00824984  0.01209221  0.01765183  0.02569619
               0.03733578  0.05417739  0.07854596  0.11380545
               0.16482331  0.23864234  0.34545298  0.50000000

Gradients computed in Reciprocal space

---------------------------------------------------------------------------------


     Starting wfcs are  208 randomized atomic wfcs

     total cpu time spent up to now is       51.3 secs

     Self-consistent Calculation

     iteration #  1     ecut=    70.00 Ry     beta= 0.70
     Davidson diagonalization with overlap
     ethr =  1.00E-02,  avg # of iterations =  2.0

     negative rho (up, down):  1.226E-04 0.000E+00

     total cpu time spent up to now is      126.3 secs

     total energy              =    -823.86683382 Ry
     Harris-Foulkes estimate   =    -828.72732753 Ry
     estimated scf accuracy    <       7.46392008 Ry

     iteration #  2     ecut=    70.00 Ry     beta= 0.70
     Davidson diagonalization with overlap
     ethr =  3.50E-03,  avg # of iterations =  5.0

     negative rho (up, down):  1.470E-04 0.000E+00

     total cpu time spent up to now is      202.8 secs

     total energy              =    -815.84348939 Ry
     Harris-Foulkes estimate   =    -831.43645616 Ry
     estimated scf accuracy    <      66.05204362 Ry

     iteration #  3     ecut=    70.00 Ry     beta= 0.70
     Davidson diagonalization with overlap
     ethr =  3.50E-03,  avg # of iterations =  5.0

     negative rho (up, down):  1.973E-04 0.000E+00

     total cpu time spent up to now is      293.6 secs

     total energy              =    -824.87704775 Ry
     Harris-Foulkes estimate   =    -827.38553901 Ry
     estimated scf accuracy    <      13.30083568 Ry

     iteration #  4     ecut=    70.00 Ry     beta= 0.70
     Davidson diagonalization with overlap
     ethr =  3.50E-03,  avg # of iterations =  3.0

     negative rho (up, down):  2.180E-04 0.000E+00

     total cpu time spent up to now is      351.5 secs

     total energy              =    -825.71223985 Ry
     Harris-Foulkes estimate   =    -826.34107991 Ry
     estimated scf accuracy    <       1.99609157 Ry

     iteration #  5     ecut=    70.00 Ry     beta= 0.70
     Davidson diagonalization with overlap
     ethr =  9.37E-04,  avg # of iterations =  3.0

     negative rho (up, down):  2.324E-04 0.000E+00

     total cpu time spent up to now is      410.1 secs

     total energy              =    -825.88074788 Ry
     Harris-Foulkes estimate   =    -825.95522144 Ry
     estimated scf accuracy    <       0.48058529 Ry

     iteration #  6     ecut=    70.00 Ry     beta= 0.70
     Davidson diagonalization with overlap
     ethr =  2.26E-04,  avg # of iterations =  3.0

     negative rho (up, down):  2.482E-04 0.000E+00

     total cpu time spent up to now is      466.6 secs

     total energy              =    -825.89785188 Ry
     Harris-Foulkes estimate   =    -825.94071081 Ry
     estimated scf accuracy    <       0.32299709 Ry

     iteration #  7     ecut=    70.00 Ry     beta= 0.70
     Davidson diagonalization with overlap
     ethr =  1.52E-04,  avg # of iterations =  1.0

     negative rho (up, down):  2.707E-04 0.000E+00

     total cpu time spent up to now is      522.0 secs

     total energy              =    -825.87837293 Ry
     Harris-Foulkes estimate   =    -825.92064211 Ry
     estimated scf accuracy    <       0.38000399 Ry

     iteration #  8     ecut=    70.00 Ry     beta= 0.70
     Davidson diagonalization with overlap
     ethr =  1.52E-04,  avg # of iterations =  2.0

     negative rho (up, down):  3.445E-04 0.000E+00

     total cpu time spent up to now is      577.8 secs

     total energy              =    -825.90982794 Ry
     Harris-Foulkes estimate   =    -825.92793374 Ry
     estimated scf accuracy    <       0.30803110 Ry

     iteration #  9     ecut=    70.00 Ry     beta= 0.70
     Davidson diagonalization with overlap
     ethr =  1.45E-04,  avg # of iterations =  1.0

     negative rho (up, down):  4.428E-04 0.000E+00

     total cpu time spent up to now is      631.9 secs

     total energy              =    -825.90315547 Ry
     Harris-Foulkes estimate   =    -825.91509059 Ry
     estimated scf accuracy    <       0.29410679 Ry

     iteration # 10     ecut=    70.00 Ry     beta= 0.70
     Davidson diagonalization with overlap
     ethr =  1.38E-04,  avg # of iterations =  1.0

     negative rho (up, down):  5.241E-04 0.000E+00

     total cpu time spent up to now is      688.1 secs

     total energy              =    -825.90289196 Ry
     Harris-Foulkes estimate   =    -825.90985193 Ry
     estimated scf accuracy    <       0.22344311 Ry

     iteration # 11     ecut=    70.00 Ry     beta= 0.70
     Davidson diagonalization with overlap
     ethr =  1.05E-04,  avg # of iterations =  1.0

     negative rho (up, down):  6.062E-04 0.000E+00

     total cpu time spent up to now is      743.6 secs

     total energy              =    -825.89995216 Ry
     Harris-Foulkes estimate   =    -825.90536155 Ry
     estimated scf accuracy    <       0.22883577 Ry

     iteration # 12     ecut=    70.00 Ry     beta= 0.70
     Davidson diagonalization with overlap
     ethr =  1.05E-04,  avg # of iterations =  1.0

     negative rho (up, down):  5.902E-04 0.000E+00

     total cpu time spent up to now is      800.9 secs

     total energy              =    -825.89729302 Ry
     Harris-Foulkes estimate   =    -825.90101677 Ry
     estimated scf accuracy    <       0.18814865 Ry

     iteration # 13     ecut=    70.00 Ry     beta= 0.70
     Davidson diagonalization with overlap
     ethr =  8.83E-05,  avg # of iterations =  1.0

     negative rho (up, down):  5.734E-04 0.000E+00

     total cpu time spent up to now is      858.2 secs

     total energy              =    -825.89044538 Ry
     Harris-Foulkes estimate   =    -825.89745480 Ry
     estimated scf accuracy    <       0.17199770 Ry

     iteration # 14     ecut=    70.00 Ry     beta= 0.70
     Davidson diagonalization with overlap
     ethr =  8.08E-05,  avg # of iterations =  1.0

     negative rho (up, down):  5.703E-04 0.000E+00

     total cpu time spent up to now is      917.0 secs

     total energy              =    -825.89890916 Ry
     Harris-Foulkes estimate   =    -825.90026071 Ry
     estimated scf accuracy    <       0.34170423 Ry

     iteration # 15     ecut=    70.00 Ry     beta= 0.70
     Davidson diagonalization with overlap
     ethr =  8.08E-05,  avg # of iterations =  1.0

     negative rho (up, down):  5.633E-04 0.000E+00

     total cpu time spent up to now is      974.0 secs

     total energy              =    -825.89835265 Ry
     Harris-Foulkes estimate   =    -825.89930668 Ry
     estimated scf accuracy    <       0.22624573 Ry

     iteration # 16     ecut=    70.00 Ry     beta= 0.70
     Davidson diagonalization with overlap
     ethr =  8.08E-05,  avg # of iterations =  1.0

     negative rho (up, down):  5.853E-04 0.000E+00

     total cpu time spent up to now is     1025.3 secs

     total energy              =    -825.89375417 Ry
     Harris-Foulkes estimate   =    -825.89912449 Ry
     estimated scf accuracy    <       0.20999730 Ry

     iteration # 17     ecut=    70.00 Ry     beta= 0.70
     Davidson diagonalization with overlap
     ethr =  8.08E-05,  avg # of iterations =  1.0

     negative rho (up, down):  5.827E-04 0.000E+00

     total cpu time spent up to now is     1076.4 secs

     total energy              =    -825.89480372 Ry
     Harris-Foulkes estimate   =    -825.89563546 Ry
     estimated scf accuracy    <       0.05193688 Ry

     iteration # 18     ecut=    70.00 Ry     beta= 0.70
     Davidson diagonalization with overlap
     ethr =  2.44E-05,  avg # of iterations =  1.0

     negative rho (up, down):  5.833E-04 0.000E+00

     total cpu time spent up to now is     1127.6 secs

     total energy              =    -825.89518479 Ry
     Harris-Foulkes estimate   =    -825.89522779 Ry
     estimated scf accuracy    <       0.00057486 Ry

     iteration # 19     ecut=    70.00 Ry     beta= 0.70
     Davidson diagonalization with overlap
     ethr =  2.70E-07,  avg # of iterations =  9.0

     negative rho (up, down):  5.821E-04 0.000E+00

     total cpu time spent up to now is     1182.4 secs

     total energy              =    -825.89513255 Ry
     Harris-Foulkes estimate   =    -825.89526270 Ry
     estimated scf accuracy    <       0.01165484 Ry

     iteration # 20     ecut=    70.00 Ry     beta= 0.70
     Davidson diagonalization with overlap
     ethr =  2.70E-07,  avg # of iterations =  1.0

     negative rho (up, down):  5.821E-04 0.000E+00

     total cpu time spent up to now is     1233.5 secs

     total energy              =    -825.89513644 Ry
     Harris-Foulkes estimate   =    -825.89522152 Ry
     estimated scf accuracy    <       0.00280952 Ry

     iteration # 21     ecut=    70.00 Ry     beta= 0.70
     Davidson diagonalization with overlap
     ethr =  2.70E-07,  avg # of iterations =  1.0

     negative rho (up, down):  5.819E-04 0.000E+00

     total cpu time spent up to now is     1284.6 secs

     total energy              =    -825.89497225 Ry
     Harris-Foulkes estimate   =    -825.89537182 Ry
     estimated scf accuracy    <       0.05710897 Ry

     iteration # 22     ecut=    70.00 Ry     beta= 0.70
     Davidson diagonalization with overlap
     ethr =  2.70E-07,  avg # of iterations =  1.0

     negative rho (up, down):  5.825E-04 0.000E+00

     total cpu time spent up to now is     1335.4 secs

     total energy              =    -825.89520555 Ry
     Harris-Foulkes estimate   =    -825.89522487 Ry
     estimated scf accuracy    <       0.00410661 Ry

     iteration # 23     ecut=    70.00 Ry     beta= 0.70
     Davidson diagonalization with overlap
     ethr =  2.70E-07,  avg # of iterations =  1.0

     negative rho (up, down):  5.826E-04 0.000E+00

     total cpu time spent up to now is     1386.3 secs

     total energy              =    -825.89521224 Ry
     Harris-Foulkes estimate   =    -825.89521378 Ry
     estimated scf accuracy    <       0.00012963 Ry

     iteration # 24     ecut=    70.00 Ry     beta= 0.70
     Davidson diagonalization with overlap
     ethr =  6.09E-08,  avg # of iterations =  1.0

     negative rho (up, down):  5.826E-04 0.000E+00

     total cpu time spent up to now is     1437.3 secs

     total energy              =    -825.89520799 Ry
     Harris-Foulkes estimate   =    -825.89521839 Ry
     estimated scf accuracy    <       0.00029860 Ry

     iteration # 25     ecut=    70.00 Ry     beta= 0.70
     Davidson diagonalization with overlap
     ethr =  6.09E-08,  avg # of iterations =  1.0

     negative rho (up, down):  5.826E-04 0.000E+00

     total cpu time spent up to now is     1488.2 secs

     total energy              =    -825.89521335 Ry
     Harris-Foulkes estimate   =    -825.89521344 Ry
     estimated scf accuracy    <       0.00000340 Ry

     iteration # 26     ecut=    70.00 Ry     beta= 0.70
     Davidson diagonalization with overlap
     ethr =  1.60E-09,  avg # of iterations =  2.0

     negative rho (up, down):  5.826E-04 0.000E+00

     total cpu time spent up to now is     1539.8 secs

     End of self-consistent calculation

          k = 0.0000 0.0000 0.0000 ( 87777 PWs)   bands (ev):

   -80.0211 -49.6634 -49.6627 -48.2320 -19.7729 -18.9354 -18.9353 -18.8477
   -18.8287 -18.8287 -18.4679 -17.0746 -17.0745 -17.0740 -16.9821 -16.9820
   -16.6856 -16.2235 -16.2235 -16.1244 -16.0593 -16.0593 -15.3641 -14.1065
   -14.1065 -14.0346 -14.0019 -14.0019 -13.3405 -13.0680 -13.0679 -13.0385
   -12.7419 -12.7419 -12.3154 -11.8378 -11.8377 -11.6598 -11.3859 -11.3858
   -10.4654  -9.6506  -9.6506  -9.4403  -9.3167  -9.3166  -9.2352  -9.2010
    -9.2010  -9.1911  -8.7022  -8.7022  -8.1535  -8.1535  -8.0614  -7.9070
    -7.8382  -7.4350  -7.4350  -7.1742  -7.1058  -7.1057  -6.9005  -6.9005
    -6.8109  -6.8106  -6.8034  -6.7216  -6.5674  -6.5674  -6.5412  -6.5308
    -6.5308  -6.4996  -6.4826  -6.4456  -5.5168  -5.5167  -5.5067  -5.5064
    -5.2940  -5.2940  -4.9938  -4.8895  -4.8463  -4.7263  -4.6956  -4.6953
    -4.3859  -4.1765  -4.1764  -4.1236  -4.1236  -3.8364  -3.8362  -3.7607
    -3.6745  -3.6745  -3.1318  -2.6295  -2.6293  -1.8235  -1.8047  -1.8046
    -0.8478  -0.8370  -0.8369  -0.8364   0.9617   0.9688   0.9691   1.6369
     1.6369   1.6397   2.5669   2.8086   2.8089   2.8737   3.1695   3.1727
     3.4624   3.5491   3.5492   3.6832   3.6949   3.7879   3.7910   3.8324

     occupation numbers 
     1.0000   1.0000   1.0000   1.0000   1.0000   1.0000   1.0000   1.0000
     1.0000   1.0000   1.0000   1.0000   1.0000   1.0000   1.0000   1.0000
     1.0000   1.0000   1.0000   1.0000   1.0000   1.0000   1.0000   1.0000
     1.0000   1.0000   1.0000   1.0000   1.0000   1.0000   1.0000   1.0000
     1.0000   1.0000   1.0000   1.0000   1.0000   1.0000   1.0000   1.0000
     1.0000   1.0000   1.0000   1.0000   1.0000   1.0000   1.0000   1.0000
     1.0000   1.0000   1.0000   1.0000   1.0000   1.0000   1.0000   1.0000
     1.0000   1.0000   1.0000   1.0000   1.0000   1.0000   1.0000   1.0000
     1.0000   1.0000   1.0000   1.0000   1.0000   1.0000   1.0000   1.0000
     1.0000   1.0000   1.0000   1.0000   1.0000   1.0000   1.0000   1.0000
     1.0000   1.0000   1.0000   1.0000   1.0000   1.0000   1.0000   1.0000
     1.0000   1.0000   1.0000   1.0000   1.0000   1.0000   1.0000   1.0000
     1.0000   1.0000   1.0000   1.0000   1.0000   1.0000   1.0000   1.0000
     1.0105   0.5088   0.5056   0.4752   0.0000   0.0000   0.0000   0.0000
     0.0000   0.0000   0.0000   0.0000   0.0000   0.0000   0.0000   0.0000
     0.0000   0.0000   0.0000   0.0000   0.0000   0.0000   0.0000   0.0000

     the Fermi energy is    -0.8349 ev

!    total energy              =    -825.89521275 Ry
     Harris-Foulkes estimate   =    -825.89521344 Ry
     estimated scf accuracy    <       0.00000089 Ry

     The total energy is the sum of the following terms:

     one-electron contribution =   -2705.63236200 Ry
     hartree contribution      =    1397.55777574 Ry
     xc contribution           =    -259.57184045 Ry
     ewald contribution        =     741.75201769 Ry
     smearing contrib. (-TS)   =      -0.00080374 Ry

     convergence has been achieved in  26 iterations

     Writing output data file gr-12-bridge2.save/

     init_run     :     48.77s CPU     50.18s WALL (       1 calls)
     electrons    :   1443.48s CPU   1488.58s WALL (       1 calls)

     Called by init_run:
     wfcinit      :     24.27s CPU     24.47s WALL (       1 calls)
     wfcinit:atom :      0.02s CPU      0.05s WALL (       1 calls)
     wfcinit:wfcr :     24.09s CPU     24.21s WALL (       1 calls)
     potinit      :     11.57s CPU     12.04s WALL (       1 calls)
     hinit0       :      7.50s CPU      7.55s WALL (       1 calls)

     Called by electrons:
     c_bands      :    849.59s CPU    854.88s WALL (      26 calls)
     sum_band     :    297.12s CPU    312.19s WALL (      26 calls)
     v_of_rho     :    178.75s CPU    189.56s WALL (      27 calls)
     v_h          :      2.05s CPU      2.16s WALL (      27 calls)
     v_xc         :    176.69s CPU    187.40s WALL (      27 calls)
     newd         :    120.48s CPU    135.28s WALL (      27 calls)
     mix_rho      :      5.91s CPU      6.00s WALL (      26 calls)

     Called by c_bands:
     init_us_2    :      2.57s CPU      2.63s WALL (      53 calls)
     cegterg      :    843.23s CPU    848.49s WALL (      26 calls)

     Called by sum_band:
     sum_band:bec :      0.02s CPU      0.02s WALL (      26 calls)
     addusdens    :    184.91s CPU    199.00s WALL (      26 calls)

     Called by *egterg:
     h_psi        :    458.91s CPU    462.49s WALL (      78 calls)
     s_psi        :    150.39s CPU    150.53s WALL (      78 calls)
     g_psi        :      0.45s CPU      0.45s WALL (      51 calls)
     cdiaghg      :      5.37s CPU      5.37s WALL (      77 calls)
     cegterg:over :    100.13s CPU    100.21s WALL (      51 calls)
     cegterg:upda :     56.73s CPU     57.15s WALL (      51 calls)
     cegterg:last :     44.01s CPU     44.04s WALL (      26 calls)

     Called by h_psi:
     h_psi:pot    :    458.41s CPU    461.41s WALL (      78 calls)
     h_psi:calbec :    151.38s CPU    151.48s WALL (      78 calls)
     vloc_psi     :    157.07s CPU    159.86s WALL (      78 calls)
     add_vuspsi   :    149.96s CPU    150.06s WALL (      78 calls)

     General routines
     calbec       :    218.67s CPU    218.81s WALL (     104 calls)
     fft          :     97.88s CPU    101.81s WALL (    1699 calls)
     ffts         :      1.09s CPU      1.12s WALL (      53 calls)
     fftw         :    167.62s CPU    170.73s WALL (   18118 calls)
     interpolate  :      2.53s CPU      2.60s WALL (      27 calls)

     Parallel routines
     fft_scatt_xy :     49.44s CPU     50.02s WALL (   19870 calls)
     fft_scatt_yz :     82.28s CPU     87.33s WALL (   19870 calls)

     PWSCF        :  24m53.51s CPU  25m40.28s WALL


   This run was terminated on:  15:43:30  22Jul2022            

=------------------------------------------------------------------------------=
   JOB DONE.
=------------------------------------------------------------------------------=
