
     Program PWSCF v.6.4.1 starts on 22Jul2022 at 16:53:29 

     This program is part of the open-source Quantum ESPRESSO suite
     for quantum simulation of materials; please cite
         "P. Giannozzi et al., J. Phys.:Condens. Matter 21 395502 (2009);
         "P. Giannozzi et al., J. Phys.:Condens. Matter 29 465901 (2017);
          URL http://www.quantum-espresso.org", 
     in publications or presentations arising from this work. More details at
     http://www.quantum-espresso.org/quote

     Parallel version (MPI), running on     6 processors

     MPI processes distributed on     1 nodes
     R & G space division:  proc/nbgrp/npool/nimage =       6
     Reading input from distance-2.8.in

     Current dimensions of program PWSCF are:
     Max number of different atomic species (ntypx) = 10
     Max number of k-points (npk) =  40000
     Max angular momentum in pseudopotentials (lmaxx) =  3

     IMPORTANT: XC functional enforced from input :
     Exchange-correlation      = RVV10 ( 1  4 13  4 3 0)
     Any further DFT definition will be discarded
     Please, verify this is what you really want

               file H.pbe-rrkjus.UPF: wavefunction(s)  1S renormalized
               file Mn.pbe-spn-rrkjus_psl.0.3.1.UPF: wavefunction(s)  3D renormalized

     Subspace diagonalization in iterative solution of the eigenvalue problem:
     a serial algorithm will be used


     Parallelization info
     --------------------
     sticks:   dense  smooth     PW     G-vecs:    dense   smooth      PW
     Min        3051    1746    432               270999   117096   14629
     Max        3053    1747    437               271001   117099   14630
     Sum       18313   10477   2611              1626001   702581   87777



     bravais-lattice index     =            4
     lattice parameter (alat)  =      23.2937  a.u.
     unit-cell volume          =    8879.8548 (a.u.)^3
     number of atoms/cell      =           52
     number of atomic types    =            3
     number of electrons       =       213.00
     number of Kohn-Sham states=          128
     kinetic-energy cutoff     =      70.0000  Ry
     charge density cutoff     =     490.0000  Ry
     convergence threshold     =      1.0E-06
     mixing beta               =       0.7000
     number of iterations used =            8  plain     mixing
     Exchange-correlation      = RVV10 ( 1  4 13  4 3 0)

     celldm(1)=  23.293684  celldm(2)=   0.000000  celldm(3)=   0.811261
     celldm(4)=   0.000000  celldm(5)=   0.000000  celldm(6)=   0.000000

     crystal axes: (cart. coord. in units of alat)
               a(1) = (   1.000000   0.000000   0.000000 )  
               a(2) = (  -0.500000   0.866025   0.000000 )  
               a(3) = (   0.000000   0.000000   0.811261 )  

     reciprocal axes: (cart. coord. in units 2 pi/alat)
               b(1) = (  1.000000  0.577350 -0.000000 )  
               b(2) = (  0.000000  1.154701  0.000000 )  
               b(3) = (  0.000000 -0.000000  1.232649 )  


     PseudoPot. # 1 for H  read from file:
     /home/cristian/Escritorio/Proyecto_Grafeno/pseudopotenciales/H.pbe-rrkjus.UPF
     MD5 check sum: 7cc9d459525c9a0585f487a71c3c9563
     Pseudo is Ultrasoft, Zval =  1.0
     Generated by new atomic code, or converted to UPF format
     Using radial grid of 1061 points,  2 beta functions with: 
                l(1) =   0
                l(2) =   0
     Q(r) pseudized with 0 coefficients 


     PseudoPot. # 2 for C  read from file:
     /home/cristian/Escritorio/Proyecto_Grafeno/pseudopotenciales/C.pbe-n-rrkjus_psl.1.0.0.UPF
     MD5 check sum: 1fdd950c42eb37d8afe3dd2f8d12311e
     Pseudo is Ultrasoft + core correction, Zval =  4.0
     Generated using "atomic" code by A. Dal Corso v.6.3MaX
     Using radial grid of 1073 points,  4 beta functions with: 
                l(1) =   0
                l(2) =   0
                l(3) =   1
                l(4) =   1
     Q(r) pseudized with 0 coefficients 


     PseudoPot. # 3 for Mn read from file:
     /home/cristian/Escritorio/Proyecto_Grafeno/pseudopotenciales/Mn.pbe-spn-rrkjus_psl.0.3.1.UPF
     MD5 check sum: e1cac159bdd2ba70c18e85765a5d4279
     Pseudo is Ultrasoft + core correction, Zval = 15.0
     Generated using "atomic" code by A. Dal Corso v.6.2.2
     Using radial grid of 1187 points,  6 beta functions with: 
                l(1) =   0
                l(2) =   0
                l(3) =   1
                l(4) =   1
                l(5) =   2
                l(6) =   2
     Q(r) pseudized with 0 coefficients 


     vdW kernel table read from file rVV10_kernel_table
     MD5 check sum: b8e2538accc0c0b3206b45ba4daaba6c

     atomic species   valence    mass     pseudopotential
        H              1.00     1.00794     H ( 1.00)
        C              4.00    12.01070     C ( 1.00)
        Mn            15.00    54.93804     Mn( 1.00)

      2 Sym. Ops. (no inversion) found


                                    s                        frac. trans.

      isym =  1     identity                                     

 cryst.   s( 1) = (     1          0          0      )
                  (     0          1          0      )
                  (     0          0          1      )

 cart.    s( 1) = (  1.0000000  0.0000000  0.0000000 )
                  (  0.0000000  1.0000000  0.0000000 )
                  (  0.0000000  0.0000000  1.0000000 )


      isym =  2     inv. 180 deg rotation - cryst. axis [1,1,0]  

 cryst.   s( 2) = (     0         -1          0      )
                  (    -1          0          0      )
                  (     0          0          1      )

 cart.    s( 2) = (  0.5000000 -0.8660254  0.0000000 )
                  ( -0.8660254 -0.5000000  0.0000000 )
                  (  0.0000000  0.0000000  1.0000000 )


     point group C_s (m)    
     there are  2 classes
     the character table:

       E     s    
A'     1.00  1.00
A''    1.00 -1.00

     the symmetry operations in each class and the name of the first element:

     E        1
          identity                                               
     s        2
          inv. 180 deg rotation - cryst. axis [1,1,0]            

   Cartesian axes

     site n.     atom                  positions (alat units)
         1           H   tau(   1) = (   0.2500000   0.4330127   0.2271531  )
         2           H   tau(   2) = (   0.2500000   0.4330127   0.2881658  )
         3           C   tau(   3) = (   0.0000000   0.0000000   0.0000000  )
         4           C   tau(   4) = (   0.0000000   0.1154701   0.0000000  )
         5           C   tau(   5) = (  -0.1000000   0.1732051   0.0000000  )
         6           C   tau(   6) = (  -0.1000000   0.2886751   0.0000000  )
         7           C   tau(   7) = (  -0.2000000   0.3464102   0.0000000  )
         8           C   tau(   8) = (  -0.2000000   0.4618802   0.0000000  )
         9           C   tau(   9) = (  -0.3000000   0.5196152   0.0000000  )
        10           C   tau(  10) = (  -0.3000000   0.6350853   0.0000000  )
        11           C   tau(  11) = (  -0.4000000   0.6928203   0.0000000  )
        12           C   tau(  12) = (  -0.4000000   0.8082904   0.0000000  )
        13           C   tau(  13) = (   0.2000000   0.0000000   0.0000000  )
        14           C   tau(  14) = (   0.2000000   0.1154701   0.0000000  )
        15           C   tau(  15) = (   0.1000000   0.1732051   0.0000000  )
        16           C   tau(  16) = (   0.1000000   0.2886751   0.0000000  )
        17           C   tau(  17) = (   0.0000000   0.3464102   0.0000000  )
        18           C   tau(  18) = (   0.0000000   0.4618802   0.0000000  )
        19           C   tau(  19) = (  -0.1000000   0.5196152   0.0000000  )
        20           C   tau(  20) = (  -0.1000000   0.6350853   0.0000000  )
        21           C   tau(  21) = (  -0.2000000   0.6928203   0.0000000  )
        22           C   tau(  22) = (  -0.2000000   0.8082904   0.0000000  )
        23           C   tau(  23) = (   0.4000000   0.0000000   0.0000000  )
        24           C   tau(  24) = (   0.4000000   0.1154701   0.0000000  )
        25           C   tau(  25) = (   0.3000000   0.1732051   0.0000000  )
        26           C   tau(  26) = (   0.3000000   0.2886751   0.0000000  )
        27           C   tau(  27) = (   0.2000000   0.3464102   0.0000000  )
        28           Mn  tau(  28) = (   0.2000000   0.4618802   0.0000000  )
        29           C   tau(  29) = (   0.1000000   0.5196152   0.0000000  )
        30           C   tau(  30) = (   0.1000000   0.6350853   0.0000000  )
        31           C   tau(  31) = (   0.0000000   0.6928203   0.0000000  )
        32           C   tau(  32) = (   0.0000000   0.8082904   0.0000000  )
        33           C   tau(  33) = (   0.6000000   0.0000000   0.0000000  )
        34           C   tau(  34) = (   0.6000000   0.1154701   0.0000000  )
        35           C   tau(  35) = (   0.5000000   0.1732051   0.0000000  )
        36           C   tau(  36) = (   0.5000000   0.2886751   0.0000000  )
        37           C   tau(  37) = (   0.4000000   0.3464102   0.0000000  )
        38           C   tau(  38) = (   0.4000000   0.4618802   0.0000000  )
        39           C   tau(  39) = (   0.3000000   0.5196152   0.0000000  )
        40           C   tau(  40) = (   0.3000000   0.6350853   0.0000000  )
        41           C   tau(  41) = (   0.2000000   0.6928203   0.0000000  )
        42           C   tau(  42) = (   0.2000000   0.8082904   0.0000000  )
        43           C   tau(  43) = (   0.8000000   0.0000000   0.0000000  )
        44           C   tau(  44) = (   0.8000000   0.1154701   0.0000000  )
        45           C   tau(  45) = (   0.7000000   0.1732051   0.0000000  )
        46           C   tau(  46) = (   0.7000000   0.2886751   0.0000000  )
        47           C   tau(  47) = (   0.6000000   0.3464102   0.0000000  )
        48           C   tau(  48) = (   0.6000000   0.4618802   0.0000000  )
        49           C   tau(  49) = (   0.5000000   0.5196152   0.0000000  )
        50           C   tau(  50) = (   0.5000000   0.6350853   0.0000000  )
        51           C   tau(  51) = (   0.4000000   0.6928203   0.0000000  )
        52           C   tau(  52) = (   0.4000000   0.8082904   0.0000000  )

   Crystallographic axes

     site n.     atom                  positions (cryst. coord.)
         1           H   tau(   1) = (  0.5000000  0.5000000  0.2800000  )
         2           H   tau(   2) = (  0.5000000  0.5000000  0.3552072  )
         3           C   tau(   3) = (  0.0000000  0.0000000  0.0000000  )
         4           C   tau(   4) = (  0.0666667  0.1333333  0.0000000  )
         5           C   tau(   5) = (  0.0000000  0.2000000  0.0000000  )
         6           C   tau(   6) = (  0.0666667  0.3333333  0.0000000  )
         7           C   tau(   7) = (  0.0000000  0.4000000  0.0000000  )
         8           C   tau(   8) = (  0.0666667  0.5333333  0.0000000  )
         9           C   tau(   9) = (  0.0000000  0.6000000  0.0000000  )
        10           C   tau(  10) = (  0.0666667  0.7333333  0.0000000  )
        11           C   tau(  11) = (  0.0000000  0.8000000  0.0000000  )
        12           C   tau(  12) = (  0.0666667  0.9333333  0.0000000  )
        13           C   tau(  13) = (  0.2000000  0.0000000  0.0000000  )
        14           C   tau(  14) = (  0.2666667  0.1333333  0.0000000  )
        15           C   tau(  15) = (  0.2000000  0.2000000  0.0000000  )
        16           C   tau(  16) = (  0.2666667  0.3333333  0.0000000  )
        17           C   tau(  17) = (  0.2000000  0.4000000  0.0000000  )
        18           C   tau(  18) = (  0.2666667  0.5333333  0.0000000  )
        19           C   tau(  19) = (  0.2000000  0.6000000  0.0000000  )
        20           C   tau(  20) = (  0.2666667  0.7333333  0.0000000  )
        21           C   tau(  21) = (  0.2000000  0.8000000  0.0000000  )
        22           C   tau(  22) = (  0.2666667  0.9333333  0.0000000  )
        23           C   tau(  23) = (  0.4000000  0.0000000  0.0000000  )
        24           C   tau(  24) = (  0.4666667  0.1333333  0.0000000  )
        25           C   tau(  25) = (  0.4000000  0.2000000  0.0000000  )
        26           C   tau(  26) = (  0.4666667  0.3333333  0.0000000  )
        27           C   tau(  27) = (  0.4000000  0.4000000  0.0000000  )
        28           Mn  tau(  28) = (  0.4666667  0.5333333  0.0000000  )
        29           C   tau(  29) = (  0.4000000  0.6000000  0.0000000  )
        30           C   tau(  30) = (  0.4666667  0.7333333  0.0000000  )
        31           C   tau(  31) = (  0.4000000  0.8000000  0.0000000  )
        32           C   tau(  32) = (  0.4666667  0.9333333  0.0000000  )
        33           C   tau(  33) = (  0.6000000  0.0000000  0.0000000  )
        34           C   tau(  34) = (  0.6666667  0.1333333  0.0000000  )
        35           C   tau(  35) = (  0.6000000  0.2000000  0.0000000  )
        36           C   tau(  36) = (  0.6666667  0.3333333  0.0000000  )
        37           C   tau(  37) = (  0.6000000  0.4000000  0.0000000  )
        38           C   tau(  38) = (  0.6666667  0.5333333  0.0000000  )
        39           C   tau(  39) = (  0.6000000  0.6000000  0.0000000  )
        40           C   tau(  40) = (  0.6666667  0.7333333  0.0000000  )
        41           C   tau(  41) = (  0.6000000  0.8000000  0.0000000  )
        42           C   tau(  42) = (  0.6666667  0.9333333  0.0000000  )
        43           C   tau(  43) = (  0.8000000  0.0000000  0.0000000  )
        44           C   tau(  44) = (  0.8666667  0.1333333  0.0000000  )
        45           C   tau(  45) = (  0.8000000  0.2000000  0.0000000  )
        46           C   tau(  46) = (  0.8666667  0.3333333  0.0000000  )
        47           C   tau(  47) = (  0.8000000  0.4000000  0.0000000  )
        48           C   tau(  48) = (  0.8666667  0.5333333  0.0000000  )
        49           C   tau(  49) = (  0.8000000  0.6000000  0.0000000  )
        50           C   tau(  50) = (  0.8666667  0.7333333  0.0000000  )
        51           C   tau(  51) = (  0.8000000  0.8000000  0.0000000  )
        52           C   tau(  52) = (  0.8666667  0.9333333  0.0000000  )

     number of k points=     1  Marzari-Vanderbilt smearing, width (Ry)=  0.0010
                       cart. coord. in units 2pi/alat
        k(    1) = (   0.0000000   0.0000000   0.0000000), wk =   2.0000000

                       cryst. coord.
        k(    1) = (   0.0000000   0.0000000   0.0000000), wk =   2.0000000

     Dense  grid:  1626001 G-vectors     FFT dimensions: ( 180, 180, 135)

     Smooth grid:   702581 G-vectors     FFT dimensions: ( 125, 125, 108)

     Dynamical RAM for                 wfc:      28.59 MB

     Dynamical RAM for     wfc (w. buffer):      28.59 MB

     Dynamical RAM for           str. fact:      12.41 MB

     Dynamical RAM for           local pot:       0.00 MB

     Dynamical RAM for          nlocal pot:      92.46 MB

     Dynamical RAM for                qrad:      19.73 MB

     Dynamical RAM for          rho,v,vnew:      29.46 MB

     Dynamical RAM for               rhoin:       9.82 MB

     Dynamical RAM for            rho*nmix:      66.16 MB

     Dynamical RAM for           G-vectors:      16.40 MB

     Dynamical RAM for          h,s,v(r/c):      12.00 MB

     Dynamical RAM for          <psi|beta>:       0.81 MB

     Dynamical RAM for                 psi:     114.35 MB

     Dynamical RAM for                hpsi:     114.35 MB

     Dynamical RAM for                spsi:     114.35 MB

     Dynamical RAM for      wfcinit/wfcrot:      93.90 MB

     Dynamical RAM for           addusdens:     971.75 MB

     Estimated static dynamical RAM per process >     320.00 MB

     Estimated max dynamical RAM per process >       1.26 GB

     Estimated total dynamical RAM >       7.57 GB

     Check: negative core charge=   -0.000002

     Initial potential from superposition of free atoms

     starting charge  212.80506, renormalised to  213.00000

     negative rho (up, down):  6.868E-05 0.000E+00


---------------------------------------------------------------------------------
Carrying out rVV10 run using the following parameters:
Nqs =      20    Nr_points =    1024   r_max =   100.000
b_value =  6.30000    beta =  0.00901
     q_mesh =  0.00010000  0.00030000  0.00058939  0.00100810
               0.00161396  0.00249058  0.00375900  0.00559430
               0.00824984  0.01209221  0.01765183  0.02569619
               0.03733578  0.05417739  0.07854596  0.11380545
               0.16482331  0.23864234  0.34545298  0.50000000

Gradients computed in Reciprocal space

---------------------------------------------------------------------------------


     Starting wfcs are  208 randomized atomic wfcs

     total cpu time spent up to now is       48.0 secs

     Self-consistent Calculation

     iteration #  1     ecut=    70.00 Ry     beta= 0.70
     Davidson diagonalization with overlap
     ethr =  1.00E-02,  avg # of iterations =  2.0

     negative rho (up, down):  1.358E-04 0.000E+00

     total cpu time spent up to now is      115.8 secs

     total energy              =    -823.23973337 Ry
     Harris-Foulkes estimate   =    -828.79143141 Ry
     estimated scf accuracy    <       8.22595230 Ry

     iteration #  2     ecut=    70.00 Ry     beta= 0.70
     Davidson diagonalization with overlap
     ethr =  3.86E-03,  avg # of iterations =  8.0

     negative rho (up, down):  1.656E-04 0.000E+00

     total cpu time spent up to now is      184.1 secs

     total energy              =    -815.64014129 Ry
     Harris-Foulkes estimate   =    -834.52248210 Ry
     estimated scf accuracy    <      77.99268851 Ry

     iteration #  3     ecut=    70.00 Ry     beta= 0.70
     Davidson diagonalization with overlap
     ethr =  3.86E-03,  avg # of iterations =  5.0

     negative rho (up, down):  2.207E-04 0.000E+00

     total cpu time spent up to now is      279.7 secs

     total energy              =    -825.00700620 Ry
     Harris-Foulkes estimate   =    -826.96561523 Ry
     estimated scf accuracy    <       9.44507778 Ry

     iteration #  4     ecut=    70.00 Ry     beta= 0.70
     Davidson diagonalization with overlap
     ethr =  3.86E-03,  avg # of iterations =  3.0

     negative rho (up, down):  2.459E-04 0.000E+00

     total cpu time spent up to now is      331.8 secs

     total energy              =    -825.70372891 Ry
     Harris-Foulkes estimate   =    -826.21831910 Ry
     estimated scf accuracy    <       1.51317871 Ry

     iteration #  5     ecut=    70.00 Ry     beta= 0.70
     Davidson diagonalization with overlap
     ethr =  7.10E-04,  avg # of iterations =  6.0

     negative rho (up, down):  2.653E-04 0.000E+00

     total cpu time spent up to now is      388.7 secs

     total energy              =    -825.86327402 Ry
     Harris-Foulkes estimate   =    -825.95605497 Ry
     estimated scf accuracy    <       0.35079143 Ry

     iteration #  6     ecut=    70.00 Ry     beta= 0.70
     Davidson diagonalization with overlap
     ethr =  1.65E-04,  avg # of iterations =  3.0

     negative rho (up, down):  2.835E-04 0.000E+00

     total cpu time spent up to now is      440.6 secs

     total energy              =    -825.89261475 Ry
     Harris-Foulkes estimate   =    -825.92137021 Ry
     estimated scf accuracy    <       0.23741440 Ry

     iteration #  7     ecut=    70.00 Ry     beta= 0.70
     Davidson diagonalization with overlap
     ethr =  1.11E-04,  avg # of iterations =  2.0

     negative rho (up, down):  3.294E-04 0.000E+00

     total cpu time spent up to now is      491.5 secs

     total energy              =    -825.87247825 Ry
     Harris-Foulkes estimate   =    -825.91969436 Ry
     estimated scf accuracy    <       0.39951849 Ry

     iteration #  8     ecut=    70.00 Ry     beta= 0.70
     Davidson diagonalization with overlap
     ethr =  1.11E-04,  avg # of iterations =  1.0

     negative rho (up, down):  4.601E-04 0.000E+00

     total cpu time spent up to now is      542.2 secs

     total energy              =    -825.90213856 Ry
     Harris-Foulkes estimate   =    -825.91923877 Ry
     estimated scf accuracy    <       0.26881532 Ry

     iteration #  9     ecut=    70.00 Ry     beta= 0.70
     Davidson diagonalization with overlap
     ethr =  1.11E-04,  avg # of iterations =  1.0

     negative rho (up, down):  5.595E-04 0.000E+00

     total cpu time spent up to now is      592.9 secs

     total energy              =    -825.89845096 Ry
     Harris-Foulkes estimate   =    -825.90618006 Ry
     estimated scf accuracy    <       0.20580616 Ry

     iteration # 10     ecut=    70.00 Ry     beta= 0.70
     Davidson diagonalization with overlap
     ethr =  9.66E-05,  avg # of iterations =  1.0

     negative rho (up, down):  5.538E-04 0.000E+00

     total cpu time spent up to now is      643.5 secs

     total energy              =    -825.89587933 Ry
     Harris-Foulkes estimate   =    -825.90080720 Ry
     estimated scf accuracy    <       0.18543889 Ry

     iteration # 11     ecut=    70.00 Ry     beta= 0.70
     Davidson diagonalization with overlap
     ethr =  8.71E-05,  avg # of iterations =  1.0

     negative rho (up, down):  6.210E-04 0.000E+00

     total cpu time spent up to now is      694.2 secs

     total energy              =    -825.89618095 Ry
     Harris-Foulkes estimate   =    -825.89979119 Ry
     estimated scf accuracy    <       0.06398960 Ry

     iteration # 12     ecut=    70.00 Ry     beta= 0.70
     Davidson diagonalization with overlap
     ethr =  3.00E-05,  avg # of iterations =  1.0

     negative rho (up, down):  6.207E-04 0.000E+00

     total cpu time spent up to now is      744.9 secs

     total energy              =    -825.89914078 Ry
     Harris-Foulkes estimate   =    -825.89981456 Ry
     estimated scf accuracy    <       0.23017169 Ry

     iteration # 13     ecut=    70.00 Ry     beta= 0.70
     Davidson diagonalization with overlap
     ethr =  3.00E-05,  avg # of iterations =  1.0

     negative rho (up, down):  6.191E-04 0.000E+00

     total cpu time spent up to now is      795.9 secs

     total energy              =    -825.89926484 Ry
     Harris-Foulkes estimate   =    -825.89919765 Ry
     estimated scf accuracy    <       0.25241401 Ry

     iteration # 14     ecut=    70.00 Ry     beta= 0.70
     Davidson diagonalization with overlap
     ethr =  3.00E-05,  avg # of iterations =  1.0

     negative rho (up, down):  6.148E-04 0.000E+00

     total cpu time spent up to now is      846.5 secs

     total energy              =    -825.89914365 Ry
     Harris-Foulkes estimate   =    -825.89926144 Ry
     estimated scf accuracy    <       0.25394484 Ry

     iteration # 15     ecut=    70.00 Ry     beta= 0.70
     Davidson diagonalization with overlap
     ethr =  3.00E-05,  avg # of iterations =  1.0

     negative rho (up, down):  6.108E-04 0.000E+00

     total cpu time spent up to now is      897.3 secs

     total energy              =    -825.89616643 Ry
     Harris-Foulkes estimate   =    -825.89917115 Ry
     estimated scf accuracy    <       0.25109983 Ry

     iteration # 16     ecut=    70.00 Ry     beta= 0.70
     Davidson diagonalization with overlap
     ethr =  3.00E-05,  avg # of iterations =  1.0

     negative rho (up, down):  6.250E-04 0.000E+00

     total cpu time spent up to now is      948.4 secs

     total energy              =    -825.89762022 Ry
     Harris-Foulkes estimate   =    -825.89863162 Ry
     estimated scf accuracy    <       0.08538825 Ry

     iteration # 17     ecut=    70.00 Ry     beta= 0.70
     Davidson diagonalization with overlap
     ethr =  3.00E-05,  avg # of iterations =  1.0

     negative rho (up, down):  6.258E-04 0.000E+00

     total cpu time spent up to now is      999.1 secs

     total energy              =    -825.89906013 Ry
     Harris-Foulkes estimate   =    -825.89845682 Ry
     estimated scf accuracy    <       0.03021522 Ry

     iteration # 18     ecut=    70.00 Ry     beta= 0.70
     Davidson diagonalization with overlap
     ethr =  1.42E-05,  avg # of iterations =  8.0

     negative rho (up, down):  6.239E-04 0.000E+00

     total cpu time spent up to now is     1051.4 secs

     total energy              =    -825.89903494 Ry
     Harris-Foulkes estimate   =    -825.89922333 Ry
     estimated scf accuracy    <       0.07940179 Ry

     iteration # 19     ecut=    70.00 Ry     beta= 0.70
     Davidson diagonalization with overlap
     ethr =  1.42E-05,  avg # of iterations =  1.0

     negative rho (up, down):  6.262E-04 0.000E+00

     total cpu time spent up to now is     1102.2 secs

     total energy              =    -825.89905116 Ry
     Harris-Foulkes estimate   =    -825.89905343 Ry
     estimated scf accuracy    <       0.05321126 Ry

     iteration # 20     ecut=    70.00 Ry     beta= 0.70
     Davidson diagonalization with overlap
     ethr =  1.42E-05,  avg # of iterations =  1.0

     negative rho (up, down):  6.261E-04 0.000E+00

     total cpu time spent up to now is     1153.0 secs

     total energy              =    -825.89903766 Ry
     Harris-Foulkes estimate   =    -825.89906238 Ry
     estimated scf accuracy    <       0.07370425 Ry

     iteration # 21     ecut=    70.00 Ry     beta= 0.70
     Davidson diagonalization with overlap
     ethr =  1.42E-05,  avg # of iterations =  1.0

     negative rho (up, down):  6.319E-04 0.000E+00

     total cpu time spent up to now is     1204.0 secs

     total energy              =    -825.89688389 Ry
     Harris-Foulkes estimate   =    -825.89903886 Ry
     estimated scf accuracy    <       0.07218817 Ry

     iteration # 22     ecut=    70.00 Ry     beta= 0.70
     Davidson diagonalization with overlap
     ethr =  1.42E-05,  avg # of iterations =  1.0

     negative rho (up, down):  6.330E-04 0.000E+00

     total cpu time spent up to now is     1254.9 secs

     total energy              =    -825.89418871 Ry
     Harris-Foulkes estimate   =    -825.89851468 Ry
     estimated scf accuracy    <       0.33306733 Ry

     iteration # 23     ecut=    70.00 Ry     beta= 0.70
     Davidson diagonalization with overlap
     ethr =  1.42E-05,  avg # of iterations =  1.0

     negative rho (up, down):  6.328E-04 0.000E+00

     total cpu time spent up to now is     1305.8 secs

     total energy              =    -825.89772972 Ry
     Harris-Foulkes estimate   =    -825.89776031 Ry
     estimated scf accuracy    <       0.00148373 Ry

     iteration # 24     ecut=    70.00 Ry     beta= 0.70
     Davidson diagonalization with overlap
     ethr =  6.97E-07,  avg # of iterations =  1.0

     negative rho (up, down):  6.338E-04 0.000E+00

     total cpu time spent up to now is     1356.4 secs

     total energy              =    -825.89780196 Ry
     Harris-Foulkes estimate   =    -825.89778293 Ry
     estimated scf accuracy    <       0.00108616 Ry

     iteration # 25     ecut=    70.00 Ry     beta= 0.70
     Davidson diagonalization with overlap
     ethr =  5.10E-07,  avg # of iterations =  1.0

     negative rho (up, down):  6.339E-04 0.000E+00

     total cpu time spent up to now is     1407.0 secs

     total energy              =    -825.89781334 Ry
     Harris-Foulkes estimate   =    -825.89781260 Ry
     estimated scf accuracy    <       0.00105380 Ry

     iteration # 26     ecut=    70.00 Ry     beta= 0.70
     Davidson diagonalization with overlap
     ethr =  4.95E-07,  avg # of iterations =  1.0

     negative rho (up, down):  6.343E-04 0.000E+00

     total cpu time spent up to now is     1457.4 secs

     total energy              =    -825.89782319 Ry
     Harris-Foulkes estimate   =    -825.89782091 Ry
     estimated scf accuracy    <       0.00209890 Ry

     iteration # 27     ecut=    70.00 Ry     beta= 0.70
     Davidson diagonalization with overlap
     ethr =  4.95E-07,  avg # of iterations =  1.0

     negative rho (up, down):  6.348E-04 0.000E+00

     total cpu time spent up to now is     1507.8 secs

     total energy              =    -825.89779853 Ry
     Harris-Foulkes estimate   =    -825.89782887 Ry
     estimated scf accuracy    <       0.00301718 Ry

     iteration # 28     ecut=    70.00 Ry     beta= 0.70
     Davidson diagonalization with overlap
     ethr =  4.95E-07,  avg # of iterations =  1.0

     negative rho (up, down):  6.352E-04 0.000E+00

     total cpu time spent up to now is     1558.3 secs

     total energy              =    -825.89776418 Ry
     Harris-Foulkes estimate   =    -825.89780296 Ry
     estimated scf accuracy    <       0.00113468 Ry

     iteration # 29     ecut=    70.00 Ry     beta= 0.70
     Davidson diagonalization with overlap
     ethr =  4.95E-07,  avg # of iterations =  1.0

     negative rho (up, down):  6.353E-04 0.000E+00

     total cpu time spent up to now is     1608.8 secs

     total energy              =    -825.89775353 Ry
     Harris-Foulkes estimate   =    -825.89776765 Ry
     estimated scf accuracy    <       0.00061565 Ry

     iteration # 30     ecut=    70.00 Ry     beta= 0.70
     Davidson diagonalization with overlap
     ethr =  2.89E-07,  avg # of iterations =  1.0

     negative rho (up, down):  6.349E-04 0.000E+00

     total cpu time spent up to now is     1659.6 secs

     total energy              =    -825.89778146 Ry
     Harris-Foulkes estimate   =    -825.89775569 Ry
     estimated scf accuracy    <       0.00091776 Ry

     iteration # 31     ecut=    70.00 Ry     beta= 0.70
     Davidson diagonalization with overlap
     ethr =  2.89E-07,  avg # of iterations =  1.0

     negative rho (up, down):  6.357E-04 0.000E+00

     total cpu time spent up to now is     1710.5 secs

     total energy              =    -825.89749147 Ry
     Harris-Foulkes estimate   =    -825.89778493 Ry
     estimated scf accuracy    <       0.00070591 Ry

     iteration # 32     ecut=    70.00 Ry     beta= 0.70
     Davidson diagonalization with overlap
     ethr =  2.89E-07,  avg # of iterations =  5.0

     negative rho (up, down):  6.355E-04 0.000E+00

     total cpu time spent up to now is     1769.1 secs

     total energy              =    -825.89626859 Ry
     Harris-Foulkes estimate   =    -825.89776199 Ry
     estimated scf accuracy    <       0.02867846 Ry

     iteration # 33     ecut=    70.00 Ry     beta= 0.70
     Davidson diagonalization with overlap
     ethr =  2.89E-07,  avg # of iterations =  2.0

     negative rho (up, down):  6.353E-04 0.000E+00

     total cpu time spent up to now is     1823.7 secs

     total energy              =    -825.89766377 Ry
     Harris-Foulkes estimate   =    -825.89768734 Ry
     estimated scf accuracy    <       0.00033413 Ry

     iteration # 34     ecut=    70.00 Ry     beta= 0.70
     Davidson diagonalization with overlap
     ethr =  1.57E-07,  avg # of iterations =  1.0

     negative rho (up, down):  6.353E-04 0.000E+00

     total cpu time spent up to now is     1874.7 secs

     total energy              =    -825.89762619 Ry
     Harris-Foulkes estimate   =    -825.89766509 Ry
     estimated scf accuracy    <       0.00080263 Ry

     iteration # 35     ecut=    70.00 Ry     beta= 0.70
     Davidson diagonalization with overlap
     ethr =  1.57E-07,  avg # of iterations =  1.0

     negative rho (up, down):  6.353E-04 0.000E+00

     total cpu time spent up to now is     1925.4 secs

     total energy              =    -825.89763710 Ry
     Harris-Foulkes estimate   =    -825.89761621 Ry
     estimated scf accuracy    <       0.00146584 Ry

     iteration # 36     ecut=    70.00 Ry     beta= 0.70
     Davidson diagonalization with overlap
     ethr =  1.57E-07,  avg # of iterations =  1.0

     negative rho (up, down):  6.352E-04 0.000E+00

     total cpu time spent up to now is     1976.3 secs

     total energy              =    -825.89758915 Ry
     Harris-Foulkes estimate   =    -825.89763603 Ry
     estimated scf accuracy    <       0.00090034 Ry

     iteration # 37     ecut=    70.00 Ry     beta= 0.70
     Davidson diagonalization with overlap
     ethr =  1.57E-07,  avg # of iterations =  1.0

     negative rho (up, down):  6.350E-04 0.000E+00

     total cpu time spent up to now is     2027.0 secs

     total energy              =    -825.89791946 Ry
     Harris-Foulkes estimate   =    -825.89758068 Ry
     estimated scf accuracy    <       0.00168549 Ry

     iteration # 38     ecut=    70.00 Ry     beta= 0.70
     Davidson diagonalization with overlap
     ethr =  1.57E-07,  avg # of iterations =  3.0

     negative rho (up, down):  6.350E-04 0.000E+00

     total cpu time spent up to now is     2084.7 secs

     total energy              =    -825.89781221 Ry
     Harris-Foulkes estimate   =    -825.89776671 Ry
     estimated scf accuracy    <       0.00056074 Ry

     iteration # 39     ecut=    70.00 Ry     beta= 0.70
     Davidson diagonalization with overlap
     ethr =  1.57E-07,  avg # of iterations =  1.0

     negative rho (up, down):  6.345E-04 0.000E+00

     total cpu time spent up to now is     2137.9 secs

     total energy              =    -825.89838367 Ry
     Harris-Foulkes estimate   =    -825.89781898 Ry
     estimated scf accuracy    <       0.00095571 Ry

     iteration # 40     ecut=    70.00 Ry     beta= 0.70
     Davidson diagonalization with overlap
     ethr =  1.57E-07,  avg # of iterations =  5.0

     negative rho (up, down):  6.348E-04 0.000E+00

     total cpu time spent up to now is     2209.0 secs

     total energy              =    -825.89858651 Ry
     Harris-Foulkes estimate   =    -825.89867123 Ry
     estimated scf accuracy    <       0.01111637 Ry

     iteration # 41     ecut=    70.00 Ry     beta= 0.70
     Davidson diagonalization with overlap
     ethr =  1.57E-07,  avg # of iterations =  1.0

     negative rho (up, down):  6.346E-04 0.000E+00

     total cpu time spent up to now is     2260.7 secs

     total energy              =    -825.89914811 Ry
     Harris-Foulkes estimate   =    -825.89859478 Ry
     estimated scf accuracy    <       0.00832543 Ry

     iteration # 42     ecut=    70.00 Ry     beta= 0.70
     Davidson diagonalization with overlap
     ethr =  1.57E-07,  avg # of iterations =  3.0

     negative rho (up, down):  6.346E-04 0.000E+00

     total cpu time spent up to now is     2315.7 secs

     total energy              =    -825.90025923 Ry
     Harris-Foulkes estimate   =    -825.89920516 Ry
     estimated scf accuracy    <       0.01593764 Ry

     iteration # 43     ecut=    70.00 Ry     beta= 0.70
     Davidson diagonalization with overlap
     ethr =  1.57E-07,  avg # of iterations =  3.0

     negative rho (up, down):  6.352E-04 0.000E+00

     total cpu time spent up to now is     2377.4 secs

     total energy              =    -825.89658776 Ry
     Harris-Foulkes estimate   =    -825.90038964 Ry
     estimated scf accuracy    <       0.02361382 Ry

     iteration # 44     ecut=    70.00 Ry     beta= 0.70
     Davidson diagonalization with overlap
     ethr =  1.57E-07,  avg # of iterations =  5.0

     negative rho (up, down):  6.351E-04 0.000E+00

     total cpu time spent up to now is     2459.3 secs

     total energy              =    -825.89767872 Ry
     Harris-Foulkes estimate   =    -825.89779514 Ry
     estimated scf accuracy    <       0.00140468 Ry

     iteration # 45     ecut=    70.00 Ry     beta= 0.70
     Davidson diagonalization with overlap
     ethr =  1.57E-07,  avg # of iterations =  2.0

     negative rho (up, down):  6.351E-04 0.000E+00

     total cpu time spent up to now is     2511.3 secs

     total energy              =    -825.89761027 Ry
     Harris-Foulkes estimate   =    -825.89769668 Ry
     estimated scf accuracy    <       0.00038663 Ry

     iteration # 46     ecut=    70.00 Ry     beta= 0.70
     Davidson diagonalization with overlap
     ethr =  1.57E-07,  avg # of iterations =  3.0

     negative rho (up, down):  6.351E-04 0.000E+00

     total cpu time spent up to now is     2565.5 secs

     total energy              =    -825.89741817 Ry
     Harris-Foulkes estimate   =    -825.89756092 Ry
     estimated scf accuracy    <       0.00254535 Ry

     iteration # 47     ecut=    70.00 Ry     beta= 0.70
     Davidson diagonalization with overlap
     ethr =  1.57E-07,  avg # of iterations =  1.0

     negative rho (up, down):  6.352E-04 0.000E+00

     total cpu time spent up to now is     2617.2 secs

     total energy              =    -825.89740240 Ry
     Harris-Foulkes estimate   =    -825.89752712 Ry
     estimated scf accuracy    <       0.00465748 Ry

     iteration # 48     ecut=    70.00 Ry     beta= 0.70
     Davidson diagonalization with overlap
     ethr =  1.57E-07,  avg # of iterations =  1.0

     negative rho (up, down):  6.353E-04 0.000E+00

     total cpu time spent up to now is     2668.9 secs

     total energy              =    -825.89721187 Ry
     Harris-Foulkes estimate   =    -825.89751472 Ry
     estimated scf accuracy    <       0.00146504 Ry

     iteration # 49     ecut=    70.00 Ry     beta= 0.70
     Davidson diagonalization with overlap
     ethr =  1.57E-07,  avg # of iterations =  3.0

     negative rho (up, down):  6.364E-04 0.000E+00

     total cpu time spent up to now is     2729.6 secs

     total energy              =    -825.90002984 Ry
     Harris-Foulkes estimate   =    -825.90045803 Ry
     estimated scf accuracy    <       0.38912537 Ry

     iteration # 50     ecut=    70.00 Ry     beta= 0.70
     Davidson diagonalization with overlap
     ethr =  1.57E-07,  avg # of iterations =  1.0

     negative rho (up, down):  6.373E-04 0.000E+00

     total cpu time spent up to now is     2781.4 secs

     total energy              =    -825.89948746 Ry
     Harris-Foulkes estimate   =    -825.90003508 Ry
     estimated scf accuracy    <       0.36990237 Ry

     iteration # 51     ecut=    70.00 Ry     beta= 0.70
     Davidson diagonalization with overlap
     ethr =  1.57E-07,  avg # of iterations =  1.0

     negative rho (up, down):  6.371E-04 0.000E+00

     total cpu time spent up to now is     2833.1 secs

     total energy              =    -825.89753599 Ry
     Harris-Foulkes estimate   =    -825.89950113 Ry
     estimated scf accuracy    <       0.33002750 Ry

     iteration # 52     ecut=    70.00 Ry     beta= 0.70
     Davidson diagonalization with overlap
     ethr =  1.57E-07,  avg # of iterations =  2.0

     negative rho (up, down):  6.361E-04 0.000E+00

     total cpu time spent up to now is     2885.2 secs

     total energy              =    -825.89672513 Ry
     Harris-Foulkes estimate   =    -825.89794195 Ry
     estimated scf accuracy    <       0.09023274 Ry

     iteration # 53     ecut=    70.00 Ry     beta= 0.70
     Davidson diagonalization with overlap
     ethr =  1.57E-07,  avg # of iterations =  3.0

     negative rho (up, down):  6.352E-04 0.000E+00

     total cpu time spent up to now is     2938.2 secs

     total energy              =    -825.89748995 Ry
     Harris-Foulkes estimate   =    -825.89751032 Ry
     estimated scf accuracy    <       0.00111684 Ry

     iteration # 54     ecut=    70.00 Ry     beta= 0.70
     Davidson diagonalization with overlap
     ethr =  1.57E-07,  avg # of iterations =  1.0

     negative rho (up, down):  6.352E-04 0.000E+00

     total cpu time spent up to now is     2991.9 secs

     total energy              =    -825.89749710 Ry
     Harris-Foulkes estimate   =    -825.89749721 Ry
     estimated scf accuracy    <       0.00022151 Ry

     iteration # 55     ecut=    70.00 Ry     beta= 0.70
     Davidson diagonalization with overlap
     ethr =  1.04E-07,  avg # of iterations =  1.0

     negative rho (up, down):  6.351E-04 0.000E+00

     total cpu time spent up to now is     3043.7 secs

     total energy              =    -825.89749776 Ry
     Harris-Foulkes estimate   =    -825.89749733 Ry
     estimated scf accuracy    <       0.00014173 Ry

     iteration # 56     ecut=    70.00 Ry     beta= 0.70
     Davidson diagonalization with overlap
     ethr =  6.65E-08,  avg # of iterations =  1.0

     negative rho (up, down):  6.351E-04 0.000E+00

     total cpu time spent up to now is     3095.3 secs

     total energy              =    -825.89749808 Ry
     Harris-Foulkes estimate   =    -825.89749786 Ry
     estimated scf accuracy    <       0.00021448 Ry

     iteration # 57     ecut=    70.00 Ry     beta= 0.70
     Davidson diagonalization with overlap
     ethr =  6.65E-08,  avg # of iterations =  1.0

     negative rho (up, down):  6.351E-04 0.000E+00

     total cpu time spent up to now is     3146.9 secs

     total energy              =    -825.89749775 Ry
     Harris-Foulkes estimate   =    -825.89749814 Ry
     estimated scf accuracy    <       0.00021877 Ry

     iteration # 58     ecut=    70.00 Ry     beta= 0.70
     Davidson diagonalization with overlap
     ethr =  6.65E-08,  avg # of iterations =  1.0

     negative rho (up, down):  6.351E-04 0.000E+00

     total cpu time spent up to now is     3198.6 secs

     total energy              =    -825.89749652 Ry
     Harris-Foulkes estimate   =    -825.89749782 Ry
     estimated scf accuracy    <       0.00017006 Ry

     iteration # 59     ecut=    70.00 Ry     beta= 0.70
     Davidson diagonalization with overlap
     ethr =  6.65E-08,  avg # of iterations =  1.0

     negative rho (up, down):  6.351E-04 0.000E+00

     total cpu time spent up to now is     3250.3 secs

     total energy              =    -825.89749639 Ry
     Harris-Foulkes estimate   =    -825.89749678 Ry
     estimated scf accuracy    <       0.00007767 Ry

     iteration # 60     ecut=    70.00 Ry     beta= 0.70
     Davidson diagonalization with overlap
     ethr =  3.65E-08,  avg # of iterations =  1.0

     negative rho (up, down):  6.352E-04 0.000E+00

     total cpu time spent up to now is     3302.0 secs

     total energy              =    -825.89749636 Ry
     Harris-Foulkes estimate   =    -825.89749646 Ry
     estimated scf accuracy    <       0.00003582 Ry

     iteration # 61     ecut=    70.00 Ry     beta= 0.70
     Davidson diagonalization with overlap
     ethr =  1.68E-08,  avg # of iterations =  1.0

     negative rho (up, down):  6.352E-04 0.000E+00

     total cpu time spent up to now is     3353.8 secs

     total energy              =    -825.89749593 Ry
     Harris-Foulkes estimate   =    -825.89749637 Ry
     estimated scf accuracy    <       0.00002299 Ry

     iteration # 62     ecut=    70.00 Ry     beta= 0.70
     Davidson diagonalization with overlap
     ethr =  1.08E-08,  avg # of iterations =  1.0

     negative rho (up, down):  6.352E-04 0.000E+00

     total cpu time spent up to now is     3405.6 secs

     total energy              =    -825.89749614 Ry
     Harris-Foulkes estimate   =    -825.89749618 Ry
     estimated scf accuracy    <       0.00000326 Ry

     iteration # 63     ecut=    70.00 Ry     beta= 0.70
     Davidson diagonalization with overlap
     ethr =  1.53E-09,  avg # of iterations =  1.0

     negative rho (up, down):  6.352E-04 0.000E+00

     total cpu time spent up to now is     3457.1 secs

     End of self-consistent calculation

          k = 0.0000 0.0000 0.0000 ( 87777 PWs)   bands (ev):

   -80.0304 -49.6712 -49.6706 -48.2467 -19.7648 -18.9275 -18.9262 -18.8391
   -18.8221 -18.8220 -18.4629 -17.0673 -17.0673 -17.0661 -16.9751 -16.9745
   -16.6780 -16.2164 -16.2157 -16.1168 -16.0529 -16.0529 -15.3591 -14.1001
   -14.0994 -14.0278 -13.9939 -13.9937 -13.3348 -13.0608 -13.0602 -13.0309
   -12.7353 -12.7351 -12.3075 -11.8314 -11.8309 -11.6526 -11.3793 -11.3791
   -10.4599  -9.6460  -9.6459  -9.4339  -9.3087  -9.3085  -9.2268  -9.1929
    -9.1927  -9.1830  -8.6952  -8.6950  -8.1481  -8.1477  -8.0537  -7.9047
    -7.8307  -7.4274  -7.4269  -7.1699  -7.1179  -7.1026  -6.8944  -6.8943
    -6.8154  -6.8038  -6.8006  -6.7147  -6.6900  -6.5593  -6.5587  -6.5335
    -6.5236  -6.5230  -6.4754  -6.3413  -5.5104  -5.5104  -5.5092  -5.5037
    -5.2879  -5.2879  -4.9857  -4.8824  -4.8480  -4.7188  -4.6885  -4.6879
    -4.3744  -4.1710  -4.1703  -4.1226  -4.1220  -3.8287  -3.8282  -3.7530
    -3.6671  -3.6667  -3.1220  -2.6268  -2.6261  -1.8168  -1.7969  -1.7968
    -0.8449  -0.8346  -0.8343  -0.8329   0.9681   0.9755   0.9765   1.6417
     1.6425   1.6454   2.5629   2.8154   2.8162   2.8808   3.1528   3.1556
     3.5109   3.5513   3.5514   3.6964   3.7083   3.7817   3.7903   3.7943

     occupation numbers 
     1.0000   1.0000   1.0000   1.0000   1.0000   1.0000   1.0000   1.0000
     1.0000   1.0000   1.0000   1.0000   1.0000   1.0000   1.0000   1.0000
     1.0000   1.0000   1.0000   1.0000   1.0000   1.0000   1.0000   1.0000
     1.0000   1.0000   1.0000   1.0000   1.0000   1.0000   1.0000   1.0000
     1.0000   1.0000   1.0000   1.0000   1.0000   1.0000   1.0000   1.0000
     1.0000   1.0000   1.0000   1.0000   1.0000   1.0000   1.0000   1.0000
     1.0000   1.0000   1.0000   1.0000   1.0000   1.0000   1.0000   1.0000
     1.0000   1.0000   1.0000   1.0000   1.0000   1.0000   1.0000   1.0000
     1.0000   1.0000   1.0000   1.0000   1.0000   1.0000   1.0000   1.0000
     1.0000   1.0000   1.0000   1.0000   1.0000   1.0000   1.0000   1.0000
     1.0000   1.0000   1.0000   1.0000   1.0000   1.0000   1.0000   1.0000
     1.0000   1.0000   1.0000   1.0000   1.0000   1.0000   1.0000   1.0000
     1.0000   1.0000   1.0000   1.0000   1.0000   1.0000   1.0000   1.0000
     1.0078   0.5329   0.5168   0.4425   0.0000   0.0000   0.0000   0.0000
     0.0000   0.0000   0.0000   0.0000   0.0000   0.0000   0.0000   0.0000
     0.0000   0.0000   0.0000   0.0000   0.0000   0.0000   0.0000   0.0000

     the Fermi energy is    -0.8321 ev

!    total energy              =    -825.89749567 Ry
     Harris-Foulkes estimate   =    -825.89749616 Ry
     estimated scf accuracy    <       0.00000053 Ry

     The total energy is the sum of the following terms:

     one-electron contribution =   -2720.17349091 Ry
     hartree contribution      =    1404.87889981 Ry
     xc contribution           =    -259.58822624 Ry
     ewald contribution        =     748.98612431 Ry
     smearing contrib. (-TS)   =      -0.00080266 Ry

     convergence has been achieved in  63 iterations

     Writing output data file gr-12-bridge2.save/

     init_run     :     45.50s CPU     46.85s WALL (       1 calls)
     electrons    :   3303.91s CPU   3409.19s WALL (       1 calls)

     Called by init_run:
     wfcinit      :     21.50s CPU     21.72s WALL (       1 calls)
     wfcinit:atom :      0.03s CPU      0.05s WALL (       1 calls)
     wfcinit:wfcr :     21.30s CPU     21.46s WALL (       1 calls)
     potinit      :     10.87s CPU     11.35s WALL (       1 calls)
     hinit0       :      8.00s CPU      8.04s WALL (       1 calls)

     Called by electrons:
     c_bands      :   1943.65s CPU   1955.48s WALL (      63 calls)
     sum_band     :    674.70s CPU    710.14s WALL (      63 calls)
     v_of_rho     :    405.25s CPU    429.72s WALL (      64 calls)
     v_h          :      4.66s CPU      4.81s WALL (      64 calls)
     v_xc         :    400.59s CPU    424.91s WALL (      64 calls)
     newd         :    269.00s CPU    303.09s WALL (      64 calls)
     mix_rho      :     14.33s CPU     14.62s WALL (      63 calls)

     Called by c_bands:
     init_us_2    :      5.76s CPU      5.82s WALL (     127 calls)
     cegterg      :   1928.52s CPU   1940.25s WALL (      63 calls)

     Called by sum_band:
     sum_band:bec :      0.05s CPU      0.05s WALL (      63 calls)
     addusdens    :    411.36s CPU    444.50s WALL (      63 calls)

     Called by *egterg:
     h_psi        :   1028.56s CPU   1036.70s WALL (     183 calls)
     s_psi        :    339.43s CPU    339.72s WALL (     183 calls)
     g_psi        :      1.02s CPU      1.03s WALL (     119 calls)
     cdiaghg      :     11.96s CPU     11.97s WALL (     182 calls)
     cegterg:over :    224.48s CPU    224.69s WALL (     119 calls)
     cegterg:upda :    125.81s CPU    126.75s WALL (     119 calls)
     cegterg:last :    107.58s CPU    107.68s WALL (      64 calls)

     Called by h_psi:
     h_psi:pot    :   1027.39s CPU   1034.20s WALL (     183 calls)
     h_psi:calbec :    339.34s CPU    339.54s WALL (     183 calls)
     vloc_psi     :    348.84s CPU    355.23s WALL (     183 calls)
     add_vuspsi   :    339.20s CPU    339.43s WALL (     183 calls)

     General routines
     calbec       :    496.13s CPU    496.43s WALL (     246 calls)
     fft          :    223.07s CPU    232.32s WALL (    4030 calls)
     ffts         :      2.52s CPU      2.60s WALL (     127 calls)
     fftw         :    376.37s CPU    383.54s WALL (   43154 calls)
     interpolate  :      5.62s CPU      5.76s WALL (      64 calls)

     Parallel routines
     fft_scatt_xy :    107.49s CPU    108.80s WALL (   47311 calls)
     fft_scatt_yz :    200.16s CPU    211.97s WALL (   47311 calls)

     PWSCF        :  55m50.75s CPU  57m37.62s WALL


   This run was terminated on:  17:51: 7  22Jul2022            

=------------------------------------------------------------------------------=
   JOB DONE.
=------------------------------------------------------------------------------=
