
     Program PWSCF v.6.4.1 starts on 22Jul2022 at 18:19: 1 

     This program is part of the open-source Quantum ESPRESSO suite
     for quantum simulation of materials; please cite
         "P. Giannozzi et al., J. Phys.:Condens. Matter 21 395502 (2009);
         "P. Giannozzi et al., J. Phys.:Condens. Matter 29 465901 (2017);
          URL http://www.quantum-espresso.org", 
     in publications or presentations arising from this work. More details at
     http://www.quantum-espresso.org/quote

     Parallel version (MPI), running on     6 processors

     MPI processes distributed on     1 nodes
     R & G space division:  proc/nbgrp/npool/nimage =       6
     Reading input from distance-2.4.in

     Current dimensions of program PWSCF are:
     Max number of different atomic species (ntypx) = 10
     Max number of k-points (npk) =  40000
     Max angular momentum in pseudopotentials (lmaxx) =  3

     IMPORTANT: XC functional enforced from input :
     Exchange-correlation      = RVV10 ( 1  4 13  4 3 0)
     Any further DFT definition will be discarded
     Please, verify this is what you really want

               file H.pbe-rrkjus.UPF: wavefunction(s)  1S renormalized
               file Mn.pbe-spn-rrkjus_psl.0.3.1.UPF: wavefunction(s)  3D renormalized

     Subspace diagonalization in iterative solution of the eigenvalue problem:
     a serial algorithm will be used


     Parallelization info
     --------------------
     sticks:   dense  smooth     PW     G-vecs:    dense   smooth      PW
     Min        3051    1746    432               270999   117096   14629
     Max        3053    1747    437               271001   117099   14630
     Sum       18313   10477   2611              1626001   702581   87777



     bravais-lattice index     =            4
     lattice parameter (alat)  =      23.2937  a.u.
     unit-cell volume          =    8879.8548 (a.u.)^3
     number of atoms/cell      =           52
     number of atomic types    =            3
     number of electrons       =       213.00
     number of Kohn-Sham states=          128
     kinetic-energy cutoff     =      70.0000  Ry
     charge density cutoff     =     490.0000  Ry
     convergence threshold     =      1.0E-06
     mixing beta               =       0.7000
     number of iterations used =            8  plain     mixing
     Exchange-correlation      = RVV10 ( 1  4 13  4 3 0)

     celldm(1)=  23.293684  celldm(2)=   0.000000  celldm(3)=   0.811261
     celldm(4)=   0.000000  celldm(5)=   0.000000  celldm(6)=   0.000000

     crystal axes: (cart. coord. in units of alat)
               a(1) = (   1.000000   0.000000   0.000000 )  
               a(2) = (  -0.500000   0.866025   0.000000 )  
               a(3) = (   0.000000   0.000000   0.811261 )  

     reciprocal axes: (cart. coord. in units 2 pi/alat)
               b(1) = (  1.000000  0.577350 -0.000000 )  
               b(2) = (  0.000000  1.154701  0.000000 )  
               b(3) = (  0.000000 -0.000000  1.232649 )  


     PseudoPot. # 1 for H  read from file:
     /home/cristian/Escritorio/Proyecto_Grafeno/pseudopotenciales/H.pbe-rrkjus.UPF
     MD5 check sum: 7cc9d459525c9a0585f487a71c3c9563
     Pseudo is Ultrasoft, Zval =  1.0
     Generated by new atomic code, or converted to UPF format
     Using radial grid of 1061 points,  2 beta functions with: 
                l(1) =   0
                l(2) =   0
     Q(r) pseudized with 0 coefficients 


     PseudoPot. # 2 for C  read from file:
     /home/cristian/Escritorio/Proyecto_Grafeno/pseudopotenciales/C.pbe-n-rrkjus_psl.1.0.0.UPF
     MD5 check sum: 1fdd950c42eb37d8afe3dd2f8d12311e
     Pseudo is Ultrasoft + core correction, Zval =  4.0
     Generated using "atomic" code by A. Dal Corso v.6.3MaX
     Using radial grid of 1073 points,  4 beta functions with: 
                l(1) =   0
                l(2) =   0
                l(3) =   1
                l(4) =   1
     Q(r) pseudized with 0 coefficients 


     PseudoPot. # 3 for Mn read from file:
     /home/cristian/Escritorio/Proyecto_Grafeno/pseudopotenciales/Mn.pbe-spn-rrkjus_psl.0.3.1.UPF
     MD5 check sum: e1cac159bdd2ba70c18e85765a5d4279
     Pseudo is Ultrasoft + core correction, Zval = 15.0
     Generated using "atomic" code by A. Dal Corso v.6.2.2
     Using radial grid of 1187 points,  6 beta functions with: 
                l(1) =   0
                l(2) =   0
                l(3) =   1
                l(4) =   1
                l(5) =   2
                l(6) =   2
     Q(r) pseudized with 0 coefficients 


     vdW kernel table read from file rVV10_kernel_table
     MD5 check sum: b8e2538accc0c0b3206b45ba4daaba6c

     atomic species   valence    mass     pseudopotential
        H              1.00     1.00794     H ( 1.00)
        C              4.00    12.01070     C ( 1.00)
        Mn            15.00    54.93804     Mn( 1.00)

      2 Sym. Ops. (no inversion) found


                                    s                        frac. trans.

      isym =  1     identity                                     

 cryst.   s( 1) = (     1          0          0      )
                  (     0          1          0      )
                  (     0          0          1      )

 cart.    s( 1) = (  1.0000000  0.0000000  0.0000000 )
                  (  0.0000000  1.0000000  0.0000000 )
                  (  0.0000000  0.0000000  1.0000000 )


      isym =  2     inv. 180 deg rotation - cryst. axis [1,1,0]  

 cryst.   s( 2) = (     0         -1          0      )
                  (    -1          0          0      )
                  (     0          0          1      )

 cart.    s( 2) = (  0.5000000 -0.8660254  0.0000000 )
                  ( -0.8660254 -0.5000000  0.0000000 )
                  (  0.0000000  0.0000000  1.0000000 )


     point group C_s (m)    
     there are  2 classes
     the character table:

       E     s    
A'     1.00  1.00
A''    1.00 -1.00

     the symmetry operations in each class and the name of the first element:

     E        1
          identity                                               
     s        2
          inv. 180 deg rotation - cryst. axis [1,1,0]            

   Cartesian axes

     site n.     atom                  positions (alat units)
         1           H   tau(   1) = (   0.2500000   0.4330127   0.1947027  )
         2           H   tau(   2) = (   0.2500000   0.4330127   0.2557154  )
         3           C   tau(   3) = (   0.0000000   0.0000000   0.0000000  )
         4           C   tau(   4) = (   0.0000000   0.1154701   0.0000000  )
         5           C   tau(   5) = (  -0.1000000   0.1732051   0.0000000  )
         6           C   tau(   6) = (  -0.1000000   0.2886751   0.0000000  )
         7           C   tau(   7) = (  -0.2000000   0.3464102   0.0000000  )
         8           C   tau(   8) = (  -0.2000000   0.4618802   0.0000000  )
         9           C   tau(   9) = (  -0.3000000   0.5196152   0.0000000  )
        10           C   tau(  10) = (  -0.3000000   0.6350853   0.0000000  )
        11           C   tau(  11) = (  -0.4000000   0.6928203   0.0000000  )
        12           C   tau(  12) = (  -0.4000000   0.8082904   0.0000000  )
        13           C   tau(  13) = (   0.2000000   0.0000000   0.0000000  )
        14           C   tau(  14) = (   0.2000000   0.1154701   0.0000000  )
        15           C   tau(  15) = (   0.1000000   0.1732051   0.0000000  )
        16           C   tau(  16) = (   0.1000000   0.2886751   0.0000000  )
        17           C   tau(  17) = (   0.0000000   0.3464102   0.0000000  )
        18           C   tau(  18) = (   0.0000000   0.4618802   0.0000000  )
        19           C   tau(  19) = (  -0.1000000   0.5196152   0.0000000  )
        20           C   tau(  20) = (  -0.1000000   0.6350853   0.0000000  )
        21           C   tau(  21) = (  -0.2000000   0.6928203   0.0000000  )
        22           C   tau(  22) = (  -0.2000000   0.8082904   0.0000000  )
        23           C   tau(  23) = (   0.4000000   0.0000000   0.0000000  )
        24           C   tau(  24) = (   0.4000000   0.1154701   0.0000000  )
        25           C   tau(  25) = (   0.3000000   0.1732051   0.0000000  )
        26           C   tau(  26) = (   0.3000000   0.2886751   0.0000000  )
        27           C   tau(  27) = (   0.2000000   0.3464102   0.0000000  )
        28           Mn  tau(  28) = (   0.2000000   0.4618802   0.0000000  )
        29           C   tau(  29) = (   0.1000000   0.5196152   0.0000000  )
        30           C   tau(  30) = (   0.1000000   0.6350853   0.0000000  )
        31           C   tau(  31) = (   0.0000000   0.6928203   0.0000000  )
        32           C   tau(  32) = (   0.0000000   0.8082904   0.0000000  )
        33           C   tau(  33) = (   0.6000000   0.0000000   0.0000000  )
        34           C   tau(  34) = (   0.6000000   0.1154701   0.0000000  )
        35           C   tau(  35) = (   0.5000000   0.1732051   0.0000000  )
        36           C   tau(  36) = (   0.5000000   0.2886751   0.0000000  )
        37           C   tau(  37) = (   0.4000000   0.3464102   0.0000000  )
        38           C   tau(  38) = (   0.4000000   0.4618802   0.0000000  )
        39           C   tau(  39) = (   0.3000000   0.5196152   0.0000000  )
        40           C   tau(  40) = (   0.3000000   0.6350853   0.0000000  )
        41           C   tau(  41) = (   0.2000000   0.6928203   0.0000000  )
        42           C   tau(  42) = (   0.2000000   0.8082904   0.0000000  )
        43           C   tau(  43) = (   0.8000000   0.0000000   0.0000000  )
        44           C   tau(  44) = (   0.8000000   0.1154701   0.0000000  )
        45           C   tau(  45) = (   0.7000000   0.1732051   0.0000000  )
        46           C   tau(  46) = (   0.7000000   0.2886751   0.0000000  )
        47           C   tau(  47) = (   0.6000000   0.3464102   0.0000000  )
        48           C   tau(  48) = (   0.6000000   0.4618802   0.0000000  )
        49           C   tau(  49) = (   0.5000000   0.5196152   0.0000000  )
        50           C   tau(  50) = (   0.5000000   0.6350853   0.0000000  )
        51           C   tau(  51) = (   0.4000000   0.6928203   0.0000000  )
        52           C   tau(  52) = (   0.4000000   0.8082904   0.0000000  )

   Crystallographic axes

     site n.     atom                  positions (cryst. coord.)
         1           H   tau(   1) = (  0.5000000  0.5000000  0.2400000  )
         2           H   tau(   2) = (  0.5000000  0.5000000  0.3152072  )
         3           C   tau(   3) = (  0.0000000  0.0000000  0.0000000  )
         4           C   tau(   4) = (  0.0666667  0.1333333  0.0000000  )
         5           C   tau(   5) = (  0.0000000  0.2000000  0.0000000  )
         6           C   tau(   6) = (  0.0666667  0.3333333  0.0000000  )
         7           C   tau(   7) = (  0.0000000  0.4000000  0.0000000  )
         8           C   tau(   8) = (  0.0666667  0.5333333  0.0000000  )
         9           C   tau(   9) = (  0.0000000  0.6000000  0.0000000  )
        10           C   tau(  10) = (  0.0666667  0.7333333  0.0000000  )
        11           C   tau(  11) = (  0.0000000  0.8000000  0.0000000  )
        12           C   tau(  12) = (  0.0666667  0.9333333  0.0000000  )
        13           C   tau(  13) = (  0.2000000  0.0000000  0.0000000  )
        14           C   tau(  14) = (  0.2666667  0.1333333  0.0000000  )
        15           C   tau(  15) = (  0.2000000  0.2000000  0.0000000  )
        16           C   tau(  16) = (  0.2666667  0.3333333  0.0000000  )
        17           C   tau(  17) = (  0.2000000  0.4000000  0.0000000  )
        18           C   tau(  18) = (  0.2666667  0.5333333  0.0000000  )
        19           C   tau(  19) = (  0.2000000  0.6000000  0.0000000  )
        20           C   tau(  20) = (  0.2666667  0.7333333  0.0000000  )
        21           C   tau(  21) = (  0.2000000  0.8000000  0.0000000  )
        22           C   tau(  22) = (  0.2666667  0.9333333  0.0000000  )
        23           C   tau(  23) = (  0.4000000  0.0000000  0.0000000  )
        24           C   tau(  24) = (  0.4666667  0.1333333  0.0000000  )
        25           C   tau(  25) = (  0.4000000  0.2000000  0.0000000  )
        26           C   tau(  26) = (  0.4666667  0.3333333  0.0000000  )
        27           C   tau(  27) = (  0.4000000  0.4000000  0.0000000  )
        28           Mn  tau(  28) = (  0.4666667  0.5333333  0.0000000  )
        29           C   tau(  29) = (  0.4000000  0.6000000  0.0000000  )
        30           C   tau(  30) = (  0.4666667  0.7333333  0.0000000  )
        31           C   tau(  31) = (  0.4000000  0.8000000  0.0000000  )
        32           C   tau(  32) = (  0.4666667  0.9333333  0.0000000  )
        33           C   tau(  33) = (  0.6000000  0.0000000  0.0000000  )
        34           C   tau(  34) = (  0.6666667  0.1333333  0.0000000  )
        35           C   tau(  35) = (  0.6000000  0.2000000  0.0000000  )
        36           C   tau(  36) = (  0.6666667  0.3333333  0.0000000  )
        37           C   tau(  37) = (  0.6000000  0.4000000  0.0000000  )
        38           C   tau(  38) = (  0.6666667  0.5333333  0.0000000  )
        39           C   tau(  39) = (  0.6000000  0.6000000  0.0000000  )
        40           C   tau(  40) = (  0.6666667  0.7333333  0.0000000  )
        41           C   tau(  41) = (  0.6000000  0.8000000  0.0000000  )
        42           C   tau(  42) = (  0.6666667  0.9333333  0.0000000  )
        43           C   tau(  43) = (  0.8000000  0.0000000  0.0000000  )
        44           C   tau(  44) = (  0.8666667  0.1333333  0.0000000  )
        45           C   tau(  45) = (  0.8000000  0.2000000  0.0000000  )
        46           C   tau(  46) = (  0.8666667  0.3333333  0.0000000  )
        47           C   tau(  47) = (  0.8000000  0.4000000  0.0000000  )
        48           C   tau(  48) = (  0.8666667  0.5333333  0.0000000  )
        49           C   tau(  49) = (  0.8000000  0.6000000  0.0000000  )
        50           C   tau(  50) = (  0.8666667  0.7333333  0.0000000  )
        51           C   tau(  51) = (  0.8000000  0.8000000  0.0000000  )
        52           C   tau(  52) = (  0.8666667  0.9333333  0.0000000  )

     number of k points=     1  Marzari-Vanderbilt smearing, width (Ry)=  0.0010
                       cart. coord. in units 2pi/alat
        k(    1) = (   0.0000000   0.0000000   0.0000000), wk =   2.0000000

                       cryst. coord.
        k(    1) = (   0.0000000   0.0000000   0.0000000), wk =   2.0000000

     Dense  grid:  1626001 G-vectors     FFT dimensions: ( 180, 180, 135)

     Smooth grid:   702581 G-vectors     FFT dimensions: ( 125, 125, 108)

     Dynamical RAM for                 wfc:      28.59 MB

     Dynamical RAM for     wfc (w. buffer):      28.59 MB

     Dynamical RAM for           str. fact:      12.41 MB

     Dynamical RAM for           local pot:       0.00 MB

     Dynamical RAM for          nlocal pot:      92.46 MB

     Dynamical RAM for                qrad:      19.73 MB

     Dynamical RAM for          rho,v,vnew:      29.46 MB

     Dynamical RAM for               rhoin:       9.82 MB

     Dynamical RAM for            rho*nmix:      66.16 MB

     Dynamical RAM for           G-vectors:      16.40 MB

     Dynamical RAM for          h,s,v(r/c):      12.00 MB

     Dynamical RAM for          <psi|beta>:       0.81 MB

     Dynamical RAM for                 psi:     114.35 MB

     Dynamical RAM for                hpsi:     114.35 MB

     Dynamical RAM for                spsi:     114.35 MB

     Dynamical RAM for      wfcinit/wfcrot:      93.90 MB

     Dynamical RAM for           addusdens:     971.75 MB

     Estimated static dynamical RAM per process >     320.00 MB

     Estimated max dynamical RAM per process >       1.26 GB

     Estimated total dynamical RAM >       7.57 GB

     Check: negative core charge=   -0.000002

     Initial potential from superposition of free atoms

     starting charge  212.80506, renormalised to  213.00000

     negative rho (up, down):  7.252E-05 0.000E+00


---------------------------------------------------------------------------------
Carrying out rVV10 run using the following parameters:
Nqs =      20    Nr_points =    1024   r_max =   100.000
b_value =  6.30000    beta =  0.00901
     q_mesh =  0.00010000  0.00030000  0.00058939  0.00100810
               0.00161396  0.00249058  0.00375900  0.00559430
               0.00824984  0.01209221  0.01765183  0.02569619
               0.03733578  0.05417739  0.07854596  0.11380545
               0.16482331  0.23864234  0.34545298  0.50000000

Gradients computed in Reciprocal space

---------------------------------------------------------------------------------


     Starting wfcs are  208 randomized atomic wfcs

     total cpu time spent up to now is       50.0 secs

     Self-consistent Calculation

     iteration #  1     ecut=    70.00 Ry     beta= 0.70
     Davidson diagonalization with overlap
     ethr =  1.00E-02,  avg # of iterations =  2.0

     negative rho (up, down):  1.440E-04 0.000E+00

     total cpu time spent up to now is      119.5 secs

     total energy              =    -822.84578365 Ry
     Harris-Foulkes estimate   =    -828.86445156 Ry
     estimated scf accuracy    <       8.75409001 Ry

     iteration #  2     ecut=    70.00 Ry     beta= 0.70
     Davidson diagonalization with overlap
     ethr =  4.11E-03,  avg # of iterations =  7.0

     negative rho (up, down):  1.773E-04 0.000E+00

     total cpu time spent up to now is      189.6 secs

     total energy              =    -815.22657870 Ry
     Harris-Foulkes estimate   =    -836.08177676 Ry
     estimated scf accuracy    <      85.05071515 Ry

     iteration #  3     ecut=    70.00 Ry     beta= 0.70
     Davidson diagonalization with overlap
     ethr =  4.11E-03,  avg # of iterations =  5.0

     negative rho (up, down):  2.338E-04 0.000E+00

     total cpu time spent up to now is      288.1 secs

     total energy              =    -824.99906431 Ry
     Harris-Foulkes estimate   =    -826.87359451 Ry
     estimated scf accuracy    <       8.50157109 Ry

     iteration #  4     ecut=    70.00 Ry     beta= 0.70
     Davidson diagonalization with overlap
     ethr =  3.99E-03,  avg # of iterations =  3.0

     negative rho (up, down):  2.642E-04 0.000E+00

     total cpu time spent up to now is      341.3 secs

     total energy              =    -825.66546754 Ry
     Harris-Foulkes estimate   =    -826.21755413 Ry
     estimated scf accuracy    <       1.57045753 Ry

     iteration #  5     ecut=    70.00 Ry     beta= 0.70
     Davidson diagonalization with overlap
     ethr =  7.37E-04,  avg # of iterations =  4.0

     negative rho (up, down):  2.866E-04 0.000E+00

     total cpu time spent up to now is      398.5 secs

     total energy              =    -825.86186372 Ry
     Harris-Foulkes estimate   =    -825.95534284 Ry
     estimated scf accuracy    <       0.32359536 Ry

     iteration #  6     ecut=    70.00 Ry     beta= 0.70
     Davidson diagonalization with overlap
     ethr =  1.52E-04,  avg # of iterations = 10.0

     negative rho (up, down):  3.081E-04 0.000E+00

     total cpu time spent up to now is      454.7 secs

     total energy              =    -825.88520032 Ry
     Harris-Foulkes estimate   =    -825.91480079 Ry
     estimated scf accuracy    <       0.18585481 Ry

     iteration #  7     ecut=    70.00 Ry     beta= 0.70
     Davidson diagonalization with overlap
     ethr =  8.73E-05,  avg # of iterations =  2.0

     negative rho (up, down):  3.483E-04 0.000E+00

     total cpu time spent up to now is      506.9 secs

     total energy              =    -825.86018931 Ry
     Harris-Foulkes estimate   =    -825.91675952 Ry
     estimated scf accuracy    <       0.46743225 Ry

     iteration #  8     ecut=    70.00 Ry     beta= 0.70
     Davidson diagonalization with overlap
     ethr =  8.73E-05,  avg # of iterations =  3.0

     negative rho (up, down):  4.765E-04 0.000E+00

     total cpu time spent up to now is      560.2 secs

     total energy              =    -825.89922393 Ry
     Harris-Foulkes estimate   =    -825.92277605 Ry
     estimated scf accuracy    <       0.31371993 Ry

     iteration #  9     ecut=    70.00 Ry     beta= 0.70
     Davidson diagonalization with overlap
     ethr =  8.73E-05,  avg # of iterations =  1.0

     negative rho (up, down):  5.591E-04 0.000E+00

     total cpu time spent up to now is      612.0 secs

     total energy              =    -825.89604354 Ry
     Harris-Foulkes estimate   =    -825.90446184 Ry
     estimated scf accuracy    <       0.19956235 Ry

     iteration # 10     ecut=    70.00 Ry     beta= 0.70
     Davidson diagonalization with overlap
     ethr =  8.73E-05,  avg # of iterations =  1.0

     negative rho (up, down):  6.615E-04 0.000E+00

     total cpu time spent up to now is      663.9 secs

     total energy              =    -825.89165158 Ry
     Harris-Foulkes estimate   =    -825.89781919 Ry
     estimated scf accuracy    <       0.14665276 Ry

     iteration # 11     ecut=    70.00 Ry     beta= 0.70
     Davidson diagonalization with overlap
     ethr =  6.89E-05,  avg # of iterations =  1.0

     negative rho (up, down):  6.122E-04 0.000E+00

     total cpu time spent up to now is      715.6 secs

     total energy              =    -825.89720219 Ry
     Harris-Foulkes estimate   =    -825.89903427 Ry
     estimated scf accuracy    <       0.25002918 Ry

     iteration # 12     ecut=    70.00 Ry     beta= 0.70
     Davidson diagonalization with overlap
     ethr =  6.89E-05,  avg # of iterations =  1.0

     negative rho (up, down):  6.185E-04 0.000E+00

     total cpu time spent up to now is      767.0 secs

     total energy              =    -825.89720516 Ry
     Harris-Foulkes estimate   =    -825.89777511 Ry
     estimated scf accuracy    <       0.10149322 Ry

     iteration # 13     ecut=    70.00 Ry     beta= 0.70
     Davidson diagonalization with overlap
     ethr =  4.76E-05,  avg # of iterations =  1.0

     negative rho (up, down):  6.271E-04 0.000E+00

     total cpu time spent up to now is      818.6 secs

     total energy              =    -825.89779873 Ry
     Harris-Foulkes estimate   =    -825.89890729 Ry
     estimated scf accuracy    <       0.24269185 Ry

     iteration # 14     ecut=    70.00 Ry     beta= 0.70
     Davidson diagonalization with overlap
     ethr =  4.76E-05,  avg # of iterations =  1.0

     negative rho (up, down):  6.244E-04 0.000E+00

     total cpu time spent up to now is      870.1 secs

     total energy              =    -825.89806053 Ry
     Harris-Foulkes estimate   =    -825.89860914 Ry
     estimated scf accuracy    <       0.27755941 Ry

     iteration # 15     ecut=    70.00 Ry     beta= 0.70
     Davidson diagonalization with overlap
     ethr =  4.76E-05,  avg # of iterations =  1.0

     negative rho (up, down):  6.366E-04 0.000E+00

     total cpu time spent up to now is      921.7 secs

     total energy              =    -825.89625282 Ry
     Harris-Foulkes estimate   =    -825.89815344 Ry
     estimated scf accuracy    <       0.23413786 Ry

     iteration # 16     ecut=    70.00 Ry     beta= 0.70
     Davidson diagonalization with overlap
     ethr =  4.76E-05,  avg # of iterations =  1.0

     negative rho (up, down):  6.316E-04 0.000E+00

     total cpu time spent up to now is      973.4 secs

     total energy              =    -825.89654017 Ry
     Harris-Foulkes estimate   =    -825.89749483 Ry
     estimated scf accuracy    <       0.04739637 Ry

     iteration # 17     ecut=    70.00 Ry     beta= 0.70
     Davidson diagonalization with overlap
     ethr =  2.23E-05,  avg # of iterations =  1.0

     negative rho (up, down):  6.315E-04 0.000E+00

     total cpu time spent up to now is     1025.4 secs

     total energy              =    -825.89572028 Ry
     Harris-Foulkes estimate   =    -825.89671830 Ry
     estimated scf accuracy    <       0.03055206 Ry

     iteration # 18     ecut=    70.00 Ry     beta= 0.70
     Davidson diagonalization with overlap
     ethr =  1.43E-05,  avg # of iterations =  1.0

     negative rho (up, down):  6.353E-04 0.000E+00

     total cpu time spent up to now is     1077.1 secs

     total energy              =    -825.89593497 Ry
     Harris-Foulkes estimate   =    -825.89600222 Ry
     estimated scf accuracy    <       0.00506022 Ry

     iteration # 19     ecut=    70.00 Ry     beta= 0.70
     Davidson diagonalization with overlap
     ethr =  2.38E-06,  avg # of iterations =  1.0

     negative rho (up, down):  6.343E-04 0.000E+00

     total cpu time spent up to now is     1128.8 secs

     total energy              =    -825.89602976 Ry
     Harris-Foulkes estimate   =    -825.89596023 Ry
     estimated scf accuracy    <       0.00726748 Ry

     iteration # 20     ecut=    70.00 Ry     beta= 0.70
     Davidson diagonalization with overlap
     ethr =  2.38E-06,  avg # of iterations =  1.0

     negative rho (up, down):  6.445E-04 0.000E+00

     total cpu time spent up to now is     1180.3 secs

     total energy              =    -825.89505841 Ry
     Harris-Foulkes estimate   =    -825.89605342 Ry
     estimated scf accuracy    <       0.01245312 Ry

     iteration # 21     ecut=    70.00 Ry     beta= 0.70
     Davidson diagonalization with overlap
     ethr =  2.38E-06,  avg # of iterations =  3.0

     negative rho (up, down):  6.532E-04 0.000E+00

     total cpu time spent up to now is     1233.7 secs

     total energy              =    -825.89533029 Ry
     Harris-Foulkes estimate   =    -825.89635122 Ry
     estimated scf accuracy    <       0.02282327 Ry

     iteration # 22     ecut=    70.00 Ry     beta= 0.70
     Davidson diagonalization with overlap
     ethr =  2.38E-06,  avg # of iterations =  2.0

     negative rho (up, down):  6.515E-04 0.000E+00

     total cpu time spent up to now is     1286.0 secs

     total energy              =    -825.89512646 Ry
     Harris-Foulkes estimate   =    -825.89588909 Ry
     estimated scf accuracy    <       0.04439546 Ry

     iteration # 23     ecut=    70.00 Ry     beta= 0.70
     Davidson diagonalization with overlap
     ethr =  2.38E-06,  avg # of iterations =  1.0

     negative rho (up, down):  6.520E-04 0.000E+00

     total cpu time spent up to now is     1337.6 secs

     total energy              =    -825.89554037 Ry
     Harris-Foulkes estimate   =    -825.89567595 Ry
     estimated scf accuracy    <       0.00447676 Ry

     iteration # 24     ecut=    70.00 Ry     beta= 0.70
     Davidson diagonalization with overlap
     ethr =  2.10E-06,  avg # of iterations =  1.0

     negative rho (up, down):  6.535E-04 0.000E+00

     total cpu time spent up to now is     1389.2 secs

     total energy              =    -825.89562843 Ry
     Harris-Foulkes estimate   =    -825.89564117 Ry
     estimated scf accuracy    <       0.00450262 Ry

     iteration # 25     ecut=    70.00 Ry     beta= 0.70
     Davidson diagonalization with overlap
     ethr =  2.10E-06,  avg # of iterations =  1.0

     negative rho (up, down):  6.536E-04 0.000E+00

     total cpu time spent up to now is     1441.4 secs

     total energy              =    -825.89561738 Ry
     Harris-Foulkes estimate   =    -825.89566911 Ry
     estimated scf accuracy    <       0.00228179 Ry

     iteration # 26     ecut=    70.00 Ry     beta= 0.70
     Davidson diagonalization with overlap
     ethr =  1.07E-06,  avg # of iterations =  1.0

     negative rho (up, down):  6.560E-04 0.000E+00

     total cpu time spent up to now is     1493.3 secs

     total energy              =    -825.89558617 Ry
     Harris-Foulkes estimate   =    -825.89563540 Ry
     estimated scf accuracy    <       0.00255646 Ry

     iteration # 27     ecut=    70.00 Ry     beta= 0.70
     Davidson diagonalization with overlap
     ethr =  1.07E-06,  avg # of iterations =  1.0

     negative rho (up, down):  6.565E-04 0.000E+00

     total cpu time spent up to now is     1545.1 secs

     total energy              =    -825.89557883 Ry
     Harris-Foulkes estimate   =    -825.89559144 Ry
     estimated scf accuracy    <       0.00177463 Ry

     iteration # 28     ecut=    70.00 Ry     beta= 0.70
     Davidson diagonalization with overlap
     ethr =  8.33E-07,  avg # of iterations =  1.0

     negative rho (up, down):  6.566E-04 0.000E+00

     total cpu time spent up to now is     1596.7 secs

     total energy              =    -825.89557314 Ry
     Harris-Foulkes estimate   =    -825.89558031 Ry
     estimated scf accuracy    <       0.00111960 Ry

     iteration # 29     ecut=    70.00 Ry     beta= 0.70
     Davidson diagonalization with overlap
     ethr =  5.26E-07,  avg # of iterations =  1.0

     negative rho (up, down):  6.561E-04 0.000E+00

     total cpu time spent up to now is     1648.5 secs

     total energy              =    -825.89558030 Ry
     Harris-Foulkes estimate   =    -825.89557445 Ry
     estimated scf accuracy    <       0.00101435 Ry

     iteration # 30     ecut=    70.00 Ry     beta= 0.70
     Davidson diagonalization with overlap
     ethr =  4.76E-07,  avg # of iterations =  1.0

     negative rho (up, down):  6.564E-04 0.000E+00

     total cpu time spent up to now is     1700.2 secs

     total energy              =    -825.89556368 Ry
     Harris-Foulkes estimate   =    -825.89558320 Ry
     estimated scf accuracy    <       0.00108111 Ry

     iteration # 31     ecut=    70.00 Ry     beta= 0.70
     Davidson diagonalization with overlap
     ethr =  4.76E-07,  avg # of iterations =  1.0

     negative rho (up, down):  6.569E-04 0.000E+00

     total cpu time spent up to now is     1752.2 secs

     total energy              =    -825.89555075 Ry
     Harris-Foulkes estimate   =    -825.89557015 Ry
     estimated scf accuracy    <       0.00022679 Ry

     iteration # 32     ecut=    70.00 Ry     beta= 0.70
     Davidson diagonalization with overlap
     ethr =  1.06E-07,  avg # of iterations =  1.0

     negative rho (up, down):  6.566E-04 0.000E+00

     total cpu time spent up to now is     1804.0 secs

     total energy              =    -825.89555618 Ry
     Harris-Foulkes estimate   =    -825.89557724 Ry
     estimated scf accuracy    <       0.00128225 Ry

     iteration # 33     ecut=    70.00 Ry     beta= 0.70
     Davidson diagonalization with overlap
     ethr =  1.06E-07,  avg # of iterations =  1.0

     negative rho (up, down):  6.565E-04 0.000E+00

     total cpu time spent up to now is     1855.7 secs

     total energy              =    -825.89556515 Ry
     Harris-Foulkes estimate   =    -825.89556575 Ry
     estimated scf accuracy    <       0.00003915 Ry

     iteration # 34     ecut=    70.00 Ry     beta= 0.70
     Davidson diagonalization with overlap
     ethr =  1.84E-08,  avg # of iterations =  1.0

     negative rho (up, down):  6.565E-04 0.000E+00

     total cpu time spent up to now is     1907.4 secs

     total energy              =    -825.89556542 Ry
     Harris-Foulkes estimate   =    -825.89556553 Ry
     estimated scf accuracy    <       0.00000260 Ry

     iteration # 35     ecut=    70.00 Ry     beta= 0.70
     Davidson diagonalization with overlap
     ethr =  1.22E-09,  avg # of iterations =  1.0

     negative rho (up, down):  6.564E-04 0.000E+00

     total cpu time spent up to now is     1959.3 secs

     total energy              =    -825.89556550 Ry
     Harris-Foulkes estimate   =    -825.89556557 Ry
     estimated scf accuracy    <       0.00000697 Ry

     iteration # 36     ecut=    70.00 Ry     beta= 0.70
     Davidson diagonalization with overlap
     ethr =  1.22E-09,  avg # of iterations =  1.0

     negative rho (up, down):  6.564E-04 0.000E+00

     total cpu time spent up to now is     2011.1 secs

     total energy              =    -825.89556555 Ry
     Harris-Foulkes estimate   =    -825.89556557 Ry
     estimated scf accuracy    <       0.00000446 Ry

     iteration # 37     ecut=    70.00 Ry     beta= 0.70
     Davidson diagonalization with overlap
     ethr =  1.22E-09,  avg # of iterations =  1.0

     negative rho (up, down):  6.564E-04 0.000E+00

     total cpu time spent up to now is     2063.0 secs

     total energy              =    -825.89556554 Ry
     Harris-Foulkes estimate   =    -825.89556558 Ry
     estimated scf accuracy    <       0.00000150 Ry

     iteration # 38     ecut=    70.00 Ry     beta= 0.70
     Davidson diagonalization with overlap
     ethr =  7.03E-10,  avg # of iterations =  1.0

     negative rho (up, down):  6.564E-04 0.000E+00

     total cpu time spent up to now is     2114.6 secs

     End of self-consistent calculation

          k = 0.0000 0.0000 0.0000 ( 87777 PWs)   bands (ev):

   -80.0561 -49.6933 -49.6931 -48.2859 -19.7473 -18.9091 -18.9071 -18.8202
   -18.8092 -18.8091 -18.4544 -17.0525 -17.0521 -17.0496 -16.9602 -16.9592
   -16.6617 -16.2014 -16.2001 -16.1016 -16.0401 -16.0399 -15.3499 -14.0865
   -14.0846 -14.0144 -13.9767 -13.9763 -13.3250 -13.0455 -13.0445 -13.0149
   -12.7220 -12.7214 -12.2903 -11.8183 -11.8174 -11.6378 -11.3661 -11.3656
   -10.4495  -9.6383  -9.6381  -9.4208  -9.2917  -9.2913  -9.2083  -9.1753
    -9.1750  -9.1656  -8.6805  -8.6805  -8.1383  -8.1372  -8.0375  -7.9046
    -7.8148  -7.4126  -7.4096  -7.2253  -7.1527  -7.0995  -6.9425  -6.8823
    -6.8816  -6.7892  -6.7861  -6.7568  -6.7006  -6.5414  -6.5402  -6.5172
    -6.5083  -6.5071  -6.4605  -6.3012  -5.5198  -5.5026  -5.4959  -5.4938
    -5.2759  -5.2758  -4.9682  -4.8680  -4.8561  -4.7033  -4.6736  -4.6731
    -4.3515  -4.1597  -4.1582  -4.1223  -4.1219  -3.8122  -3.8109  -3.7375
    -3.6516  -3.6507  -3.1028  -2.6229  -2.6215  -1.8039  -1.7806  -1.7804
    -0.8398  -0.8302  -0.8295  -0.8266   0.9809   0.9901   0.9920   1.6519
     1.6534   1.6592   2.5548   2.8302   2.8318   2.8946   3.1258   3.1282
     3.5216   3.5578   3.5581   3.7024   3.7137   3.7871   3.7944   3.8023

     occupation numbers 
     1.0000   1.0000   1.0000   1.0000   1.0000   1.0000   1.0000   1.0000
     1.0000   1.0000   1.0000   1.0000   1.0000   1.0000   1.0000   1.0000
     1.0000   1.0000   1.0000   1.0000   1.0000   1.0000   1.0000   1.0000
     1.0000   1.0000   1.0000   1.0000   1.0000   1.0000   1.0000   1.0000
     1.0000   1.0000   1.0000   1.0000   1.0000   1.0000   1.0000   1.0000
     1.0000   1.0000   1.0000   1.0000   1.0000   1.0000   1.0000   1.0000
     1.0000   1.0000   1.0000   1.0000   1.0000   1.0000   1.0000   1.0000
     1.0000   1.0000   1.0000   1.0000   1.0000   1.0000   1.0000   1.0000
     1.0000   1.0000   1.0000   1.0000   1.0000   1.0000   1.0000   1.0000
     1.0000   1.0000   1.0000   1.0000   1.0000   1.0000   1.0000   1.0000
     1.0000   1.0000   1.0000   1.0000   1.0000   1.0000   1.0000   1.0000
     1.0000   1.0000   1.0000   1.0000   1.0000   1.0000   1.0000   1.0000
     1.0000   1.0000   1.0000   1.0000   1.0000   1.0000   1.0000   1.0000
     1.0082   0.5730   0.5376   0.3813   0.0000   0.0000   0.0000   0.0000
     0.0000   0.0000   0.0000   0.0000   0.0000   0.0000   0.0000   0.0000
     0.0000   0.0000   0.0000   0.0000   0.0000   0.0000   0.0000   0.0000

     the Fermi energy is    -0.8269 ev

!    total energy              =    -825.89556540 Ry
     Harris-Foulkes estimate   =    -825.89556555 Ry
     estimated scf accuracy    <       0.00000019 Ry

     The total energy is the sum of the following terms:

     one-electron contribution =   -2728.53392832 Ry
     hartree contribution      =    1409.13590618 Ry
     xc contribution           =    -259.61196216 Ry
     ewald contribution        =     753.11519869 Ry
     smearing contrib. (-TS)   =      -0.00077979 Ry

     convergence has been achieved in  38 iterations

     Writing output data file gr-12-bridge2.save/

     init_run     :     47.71s CPU     48.89s WALL (       1 calls)
     electrons    :   2000.50s CPU   2064.63s WALL (       1 calls)

     Called by init_run:
     wfcinit      :     21.84s CPU     22.02s WALL (       1 calls)
     wfcinit:atom :      0.03s CPU      0.04s WALL (       1 calls)
     wfcinit:wfcr :     21.66s CPU     21.78s WALL (       1 calls)
     potinit      :     11.71s CPU     12.10s WALL (       1 calls)
     hinit0       :      9.21s CPU      9.24s WALL (       1 calls)

     Called by electrons:
     c_bands      :   1170.26s CPU   1177.09s WALL (      38 calls)
     sum_band     :    411.59s CPU    433.39s WALL (      38 calls)
     v_of_rho     :    249.64s CPU    264.79s WALL (      39 calls)
     v_h          :      2.84s CPU      2.95s WALL (      39 calls)
     v_xc         :    246.80s CPU    261.84s WALL (      39 calls)
     newd         :    166.35s CPU    187.29s WALL (      39 calls)
     mix_rho      :      8.61s CPU      8.77s WALL (      38 calls)

     Called by c_bands:
     init_us_2    :      3.53s CPU      3.57s WALL (      77 calls)
     cegterg      :   1161.52s CPU   1168.32s WALL (      38 calls)

     Called by sum_band:
     sum_band:bec :      0.03s CPU      0.03s WALL (      38 calls)
     addusdens    :    253.54s CPU    274.05s WALL (      38 calls)

     Called by *egterg:
     h_psi        :    626.27s CPU    631.15s WALL (     108 calls)
     s_psi        :    206.65s CPU    206.79s WALL (     108 calls)
     g_psi        :      0.62s CPU      0.62s WALL (      69 calls)
     cdiaghg      :      6.58s CPU      6.59s WALL (     107 calls)
     cegterg:over :    132.26s CPU    132.35s WALL (      69 calls)
     cegterg:upda :     73.85s CPU     74.36s WALL (      69 calls)
     cegterg:last :     67.62s CPU     67.65s WALL (      39 calls)

     Called by h_psi:
     h_psi:pot    :    625.54s CPU    629.62s WALL (     108 calls)
     h_psi:calbec :    206.51s CPU    206.63s WALL (     108 calls)
     vloc_psi     :    212.11s CPU    215.95s WALL (     108 calls)
     add_vuspsi   :    206.92s CPU    207.04s WALL (     108 calls)

     General routines
     calbec       :    301.86s CPU    302.05s WALL (     146 calls)
     fft          :    137.11s CPU    142.76s WALL (    2455 calls)
     ffts         :      1.47s CPU      1.53s WALL (      77 calls)
     fftw         :    228.25s CPU    232.52s WALL (   26012 calls)
     interpolate  :      3.46s CPU      3.57s WALL (      39 calls)

     Parallel routines
     fft_scatt_xy :     67.08s CPU     67.86s WALL (   28544 calls)
     fft_scatt_yz :    116.32s CPU    123.42s WALL (   28544 calls)

     PWSCF        :  34m 9.46s CPU  35m15.07s WALL


   This run was terminated on:  18:54:16  22Jul2022            

=------------------------------------------------------------------------------=
   JOB DONE.
=------------------------------------------------------------------------------=
