
     Program PWSCF v.6.4.1 starts on 22Jul2022 at 14:52: 0 

     This program is part of the open-source Quantum ESPRESSO suite
     for quantum simulation of materials; please cite
         "P. Giannozzi et al., J. Phys.:Condens. Matter 21 395502 (2009);
         "P. Giannozzi et al., J. Phys.:Condens. Matter 29 465901 (2017);
          URL http://www.quantum-espresso.org", 
     in publications or presentations arising from this work. More details at
     http://www.quantum-espresso.org/quote

     Parallel version (MPI), running on     6 processors

     MPI processes distributed on     1 nodes
     R & G space division:  proc/nbgrp/npool/nimage =       6
     Reading input from distance-4.5.in

     Current dimensions of program PWSCF are:
     Max number of different atomic species (ntypx) = 10
     Max number of k-points (npk) =  40000
     Max angular momentum in pseudopotentials (lmaxx) =  3

     IMPORTANT: XC functional enforced from input :
     Exchange-correlation      = RVV10 ( 1  4 13  4 3 0)
     Any further DFT definition will be discarded
     Please, verify this is what you really want

               file H.pbe-rrkjus.UPF: wavefunction(s)  1S renormalized
               file Mn.pbe-spn-rrkjus_psl.0.3.1.UPF: wavefunction(s)  3D renormalized

     Subspace diagonalization in iterative solution of the eigenvalue problem:
     a serial algorithm will be used


     Parallelization info
     --------------------
     sticks:   dense  smooth     PW     G-vecs:    dense   smooth      PW
     Min        3051    1746    432               270999   117096   14629
     Max        3053    1747    437               271001   117099   14630
     Sum       18313   10477   2611              1626001   702581   87777



     bravais-lattice index     =            4
     lattice parameter (alat)  =      23.2937  a.u.
     unit-cell volume          =    8879.8548 (a.u.)^3
     number of atoms/cell      =           52
     number of atomic types    =            3
     number of electrons       =       213.00
     number of Kohn-Sham states=          128
     kinetic-energy cutoff     =      70.0000  Ry
     charge density cutoff     =     490.0000  Ry
     convergence threshold     =      1.0E-06
     mixing beta               =       0.7000
     number of iterations used =            8  plain     mixing
     Exchange-correlation      = RVV10 ( 1  4 13  4 3 0)

     celldm(1)=  23.293684  celldm(2)=   0.000000  celldm(3)=   0.811261
     celldm(4)=   0.000000  celldm(5)=   0.000000  celldm(6)=   0.000000

     crystal axes: (cart. coord. in units of alat)
               a(1) = (   1.000000   0.000000   0.000000 )  
               a(2) = (  -0.500000   0.866025   0.000000 )  
               a(3) = (   0.000000   0.000000   0.811261 )  

     reciprocal axes: (cart. coord. in units 2 pi/alat)
               b(1) = (  1.000000  0.577350 -0.000000 )  
               b(2) = (  0.000000  1.154701  0.000000 )  
               b(3) = (  0.000000 -0.000000  1.232649 )  


     PseudoPot. # 1 for H  read from file:
     /home/cristian/Escritorio/Proyecto_Grafeno/pseudopotenciales/H.pbe-rrkjus.UPF
     MD5 check sum: 7cc9d459525c9a0585f487a71c3c9563
     Pseudo is Ultrasoft, Zval =  1.0
     Generated by new atomic code, or converted to UPF format
     Using radial grid of 1061 points,  2 beta functions with: 
                l(1) =   0
                l(2) =   0
     Q(r) pseudized with 0 coefficients 


     PseudoPot. # 2 for C  read from file:
     /home/cristian/Escritorio/Proyecto_Grafeno/pseudopotenciales/C.pbe-n-rrkjus_psl.1.0.0.UPF
     MD5 check sum: 1fdd950c42eb37d8afe3dd2f8d12311e
     Pseudo is Ultrasoft + core correction, Zval =  4.0
     Generated using "atomic" code by A. Dal Corso v.6.3MaX
     Using radial grid of 1073 points,  4 beta functions with: 
                l(1) =   0
                l(2) =   0
                l(3) =   1
                l(4) =   1
     Q(r) pseudized with 0 coefficients 


     PseudoPot. # 3 for Mn read from file:
     /home/cristian/Escritorio/Proyecto_Grafeno/pseudopotenciales/Mn.pbe-spn-rrkjus_psl.0.3.1.UPF
     MD5 check sum: e1cac159bdd2ba70c18e85765a5d4279
     Pseudo is Ultrasoft + core correction, Zval = 15.0
     Generated using "atomic" code by A. Dal Corso v.6.2.2
     Using radial grid of 1187 points,  6 beta functions with: 
                l(1) =   0
                l(2) =   0
                l(3) =   1
                l(4) =   1
                l(5) =   2
                l(6) =   2
     Q(r) pseudized with 0 coefficients 


     vdW kernel table read from file rVV10_kernel_table
     MD5 check sum: b8e2538accc0c0b3206b45ba4daaba6c

     atomic species   valence    mass     pseudopotential
        H              1.00     1.00794     H ( 1.00)
        C              4.00    12.01070     C ( 1.00)
        Mn            15.00    54.93804     Mn( 1.00)

      2 Sym. Ops. (no inversion) found


                                    s                        frac. trans.

      isym =  1     identity                                     

 cryst.   s( 1) = (     1          0          0      )
                  (     0          1          0      )
                  (     0          0          1      )

 cart.    s( 1) = (  1.0000000  0.0000000  0.0000000 )
                  (  0.0000000  1.0000000  0.0000000 )
                  (  0.0000000  0.0000000  1.0000000 )


      isym =  2     inv. 180 deg rotation - cryst. axis [1,1,0]  

 cryst.   s( 2) = (     0         -1          0      )
                  (    -1          0          0      )
                  (     0          0          1      )

 cart.    s( 2) = (  0.5000000 -0.8660254  0.0000000 )
                  ( -0.8660254 -0.5000000  0.0000000 )
                  (  0.0000000  0.0000000  1.0000000 )


     point group C_s (m)    
     there are  2 classes
     the character table:

       E     s    
A'     1.00  1.00
A''    1.00 -1.00

     the symmetry operations in each class and the name of the first element:

     E        1
          identity                                               
     s        2
          inv. 180 deg rotation - cryst. axis [1,1,0]            

   Cartesian axes

     site n.     atom                  positions (alat units)
         1           H   tau(   1) = (   0.2500000   0.4330127   0.3650675  )
         2           H   tau(   2) = (   0.2500000   0.4330127   0.4260802  )
         3           C   tau(   3) = (   0.0000000   0.0000000   0.0000000  )
         4           C   tau(   4) = (   0.0000000   0.1154701   0.0000000  )
         5           C   tau(   5) = (  -0.1000000   0.1732051   0.0000000  )
         6           C   tau(   6) = (  -0.1000000   0.2886751   0.0000000  )
         7           C   tau(   7) = (  -0.2000000   0.3464102   0.0000000  )
         8           C   tau(   8) = (  -0.2000000   0.4618802   0.0000000  )
         9           C   tau(   9) = (  -0.3000000   0.5196152   0.0000000  )
        10           C   tau(  10) = (  -0.3000000   0.6350853   0.0000000  )
        11           C   tau(  11) = (  -0.4000000   0.6928203   0.0000000  )
        12           C   tau(  12) = (  -0.4000000   0.8082904   0.0000000  )
        13           C   tau(  13) = (   0.2000000   0.0000000   0.0000000  )
        14           C   tau(  14) = (   0.2000000   0.1154701   0.0000000  )
        15           C   tau(  15) = (   0.1000000   0.1732051   0.0000000  )
        16           C   tau(  16) = (   0.1000000   0.2886751   0.0000000  )
        17           C   tau(  17) = (   0.0000000   0.3464102   0.0000000  )
        18           C   tau(  18) = (   0.0000000   0.4618802   0.0000000  )
        19           C   tau(  19) = (  -0.1000000   0.5196152   0.0000000  )
        20           C   tau(  20) = (  -0.1000000   0.6350853   0.0000000  )
        21           C   tau(  21) = (  -0.2000000   0.6928203   0.0000000  )
        22           C   tau(  22) = (  -0.2000000   0.8082904   0.0000000  )
        23           C   tau(  23) = (   0.4000000   0.0000000   0.0000000  )
        24           C   tau(  24) = (   0.4000000   0.1154701   0.0000000  )
        25           C   tau(  25) = (   0.3000000   0.1732051   0.0000000  )
        26           C   tau(  26) = (   0.3000000   0.2886751   0.0000000  )
        27           C   tau(  27) = (   0.2000000   0.3464102   0.0000000  )
        28           Mn  tau(  28) = (   0.2000000   0.4618802   0.0000000  )
        29           C   tau(  29) = (   0.1000000   0.5196152   0.0000000  )
        30           C   tau(  30) = (   0.1000000   0.6350853   0.0000000  )
        31           C   tau(  31) = (   0.0000000   0.6928203   0.0000000  )
        32           C   tau(  32) = (   0.0000000   0.8082904   0.0000000  )
        33           C   tau(  33) = (   0.6000000   0.0000000   0.0000000  )
        34           C   tau(  34) = (   0.6000000   0.1154701   0.0000000  )
        35           C   tau(  35) = (   0.5000000   0.1732051   0.0000000  )
        36           C   tau(  36) = (   0.5000000   0.2886751   0.0000000  )
        37           C   tau(  37) = (   0.4000000   0.3464102   0.0000000  )
        38           C   tau(  38) = (   0.4000000   0.4618802   0.0000000  )
        39           C   tau(  39) = (   0.3000000   0.5196152   0.0000000  )
        40           C   tau(  40) = (   0.3000000   0.6350853   0.0000000  )
        41           C   tau(  41) = (   0.2000000   0.6928203   0.0000000  )
        42           C   tau(  42) = (   0.2000000   0.8082904   0.0000000  )
        43           C   tau(  43) = (   0.8000000   0.0000000   0.0000000  )
        44           C   tau(  44) = (   0.8000000   0.1154701   0.0000000  )
        45           C   tau(  45) = (   0.7000000   0.1732051   0.0000000  )
        46           C   tau(  46) = (   0.7000000   0.2886751   0.0000000  )
        47           C   tau(  47) = (   0.6000000   0.3464102   0.0000000  )
        48           C   tau(  48) = (   0.6000000   0.4618802   0.0000000  )
        49           C   tau(  49) = (   0.5000000   0.5196152   0.0000000  )
        50           C   tau(  50) = (   0.5000000   0.6350853   0.0000000  )
        51           C   tau(  51) = (   0.4000000   0.6928203   0.0000000  )
        52           C   tau(  52) = (   0.4000000   0.8082904   0.0000000  )

   Crystallographic axes

     site n.     atom                  positions (cryst. coord.)
         1           H   tau(   1) = (  0.5000000  0.5000000  0.4500000  )
         2           H   tau(   2) = (  0.5000000  0.5000000  0.5252072  )
         3           C   tau(   3) = (  0.0000000  0.0000000  0.0000000  )
         4           C   tau(   4) = (  0.0666667  0.1333333  0.0000000  )
         5           C   tau(   5) = (  0.0000000  0.2000000  0.0000000  )
         6           C   tau(   6) = (  0.0666667  0.3333333  0.0000000  )
         7           C   tau(   7) = (  0.0000000  0.4000000  0.0000000  )
         8           C   tau(   8) = (  0.0666667  0.5333333  0.0000000  )
         9           C   tau(   9) = (  0.0000000  0.6000000  0.0000000  )
        10           C   tau(  10) = (  0.0666667  0.7333333  0.0000000  )
        11           C   tau(  11) = (  0.0000000  0.8000000  0.0000000  )
        12           C   tau(  12) = (  0.0666667  0.9333333  0.0000000  )
        13           C   tau(  13) = (  0.2000000  0.0000000  0.0000000  )
        14           C   tau(  14) = (  0.2666667  0.1333333  0.0000000  )
        15           C   tau(  15) = (  0.2000000  0.2000000  0.0000000  )
        16           C   tau(  16) = (  0.2666667  0.3333333  0.0000000  )
        17           C   tau(  17) = (  0.2000000  0.4000000  0.0000000  )
        18           C   tau(  18) = (  0.2666667  0.5333333  0.0000000  )
        19           C   tau(  19) = (  0.2000000  0.6000000  0.0000000  )
        20           C   tau(  20) = (  0.2666667  0.7333333  0.0000000  )
        21           C   tau(  21) = (  0.2000000  0.8000000  0.0000000  )
        22           C   tau(  22) = (  0.2666667  0.9333333  0.0000000  )
        23           C   tau(  23) = (  0.4000000  0.0000000  0.0000000  )
        24           C   tau(  24) = (  0.4666667  0.1333333  0.0000000  )
        25           C   tau(  25) = (  0.4000000  0.2000000  0.0000000  )
        26           C   tau(  26) = (  0.4666667  0.3333333  0.0000000  )
        27           C   tau(  27) = (  0.4000000  0.4000000  0.0000000  )
        28           Mn  tau(  28) = (  0.4666667  0.5333333  0.0000000  )
        29           C   tau(  29) = (  0.4000000  0.6000000  0.0000000  )
        30           C   tau(  30) = (  0.4666667  0.7333333  0.0000000  )
        31           C   tau(  31) = (  0.4000000  0.8000000  0.0000000  )
        32           C   tau(  32) = (  0.4666667  0.9333333  0.0000000  )
        33           C   tau(  33) = (  0.6000000  0.0000000  0.0000000  )
        34           C   tau(  34) = (  0.6666667  0.1333333  0.0000000  )
        35           C   tau(  35) = (  0.6000000  0.2000000  0.0000000  )
        36           C   tau(  36) = (  0.6666667  0.3333333  0.0000000  )
        37           C   tau(  37) = (  0.6000000  0.4000000  0.0000000  )
        38           C   tau(  38) = (  0.6666667  0.5333333  0.0000000  )
        39           C   tau(  39) = (  0.6000000  0.6000000  0.0000000  )
        40           C   tau(  40) = (  0.6666667  0.7333333  0.0000000  )
        41           C   tau(  41) = (  0.6000000  0.8000000  0.0000000  )
        42           C   tau(  42) = (  0.6666667  0.9333333  0.0000000  )
        43           C   tau(  43) = (  0.8000000  0.0000000  0.0000000  )
        44           C   tau(  44) = (  0.8666667  0.1333333  0.0000000  )
        45           C   tau(  45) = (  0.8000000  0.2000000  0.0000000  )
        46           C   tau(  46) = (  0.8666667  0.3333333  0.0000000  )
        47           C   tau(  47) = (  0.8000000  0.4000000  0.0000000  )
        48           C   tau(  48) = (  0.8666667  0.5333333  0.0000000  )
        49           C   tau(  49) = (  0.8000000  0.6000000  0.0000000  )
        50           C   tau(  50) = (  0.8666667  0.7333333  0.0000000  )
        51           C   tau(  51) = (  0.8000000  0.8000000  0.0000000  )
        52           C   tau(  52) = (  0.8666667  0.9333333  0.0000000  )

     number of k points=     1  Marzari-Vanderbilt smearing, width (Ry)=  0.0010
                       cart. coord. in units 2pi/alat
        k(    1) = (   0.0000000   0.0000000   0.0000000), wk =   2.0000000

                       cryst. coord.
        k(    1) = (   0.0000000   0.0000000   0.0000000), wk =   2.0000000

     Dense  grid:  1626001 G-vectors     FFT dimensions: ( 180, 180, 135)

     Smooth grid:   702581 G-vectors     FFT dimensions: ( 125, 125, 108)

     Dynamical RAM for                 wfc:      28.59 MB

     Dynamical RAM for     wfc (w. buffer):      28.59 MB

     Dynamical RAM for           str. fact:      12.41 MB

     Dynamical RAM for           local pot:       0.00 MB

     Dynamical RAM for          nlocal pot:      92.46 MB

     Dynamical RAM for                qrad:      19.73 MB

     Dynamical RAM for          rho,v,vnew:      29.46 MB

     Dynamical RAM for               rhoin:       9.82 MB

     Dynamical RAM for            rho*nmix:      66.16 MB

     Dynamical RAM for           G-vectors:      16.40 MB

     Dynamical RAM for          h,s,v(r/c):      12.00 MB

     Dynamical RAM for          <psi|beta>:       0.81 MB

     Dynamical RAM for                 psi:     114.35 MB

     Dynamical RAM for                hpsi:     114.35 MB

     Dynamical RAM for                spsi:     114.35 MB

     Dynamical RAM for      wfcinit/wfcrot:      93.90 MB

     Dynamical RAM for           addusdens:     971.75 MB

     Estimated static dynamical RAM per process >     320.00 MB

     Estimated max dynamical RAM per process >       1.26 GB

     Estimated total dynamical RAM >       7.57 GB

     Check: negative core charge=   -0.000002

     Initial potential from superposition of free atoms

     starting charge  212.80506, renormalised to  213.00000

     negative rho (up, down):  7.615E-05 0.000E+00


---------------------------------------------------------------------------------
Carrying out rVV10 run using the following parameters:
Nqs =      20    Nr_points =    1024   r_max =   100.000
b_value =  6.30000    beta =  0.00901
     q_mesh =  0.00010000  0.00030000  0.00058939  0.00100810
               0.00161396  0.00249058  0.00375900  0.00559430
               0.00824984  0.01209221  0.01765183  0.02569619
               0.03733578  0.05417739  0.07854596  0.11380545
               0.16482331  0.23864234  0.34545298  0.50000000

Gradients computed in Reciprocal space

---------------------------------------------------------------------------------


     Starting wfcs are  208 randomized atomic wfcs

     total cpu time spent up to now is       50.8 secs

     Self-consistent Calculation

     iteration #  1     ecut=    70.00 Ry     beta= 0.70
     Davidson diagonalization with overlap
     ethr =  1.00E-02,  avg # of iterations =  2.0

     negative rho (up, down):  1.214E-04 0.000E+00

     total cpu time spent up to now is      130.0 secs

     total energy              =    -823.87796489 Ry
     Harris-Foulkes estimate   =    -828.72539376 Ry
     estimated scf accuracy    <       7.44928732 Ry

     iteration #  2     ecut=    70.00 Ry     beta= 0.70
     Davidson diagonalization with overlap
     ethr =  3.50E-03,  avg # of iterations =  6.0

     negative rho (up, down):  1.453E-04 0.000E+00

     total cpu time spent up to now is      208.9 secs

     total energy              =    -815.89819275 Ry
     Harris-Foulkes estimate   =    -831.38199373 Ry
     estimated scf accuracy    <      65.53552029 Ry

     iteration #  3     ecut=    70.00 Ry     beta= 0.70
     Davidson diagonalization with overlap
     ethr =  3.50E-03,  avg # of iterations =  5.0

     negative rho (up, down):  1.954E-04 0.000E+00

     total cpu time spent up to now is      303.9 secs

     total energy              =    -824.89162823 Ry
     Harris-Foulkes estimate   =    -827.38395661 Ry
     estimated scf accuracy    <      13.28690730 Ry

     iteration #  4     ecut=    70.00 Ry     beta= 0.70
     Davidson diagonalization with overlap
     ethr =  3.50E-03,  avg # of iterations =  3.0

     negative rho (up, down):  2.154E-04 0.000E+00

     total cpu time spent up to now is      363.9 secs

     total energy              =    -825.72726209 Ry
     Harris-Foulkes estimate   =    -826.31866433 Ry
     estimated scf accuracy    <       1.87878346 Ry

     iteration #  5     ecut=    70.00 Ry     beta= 0.70
     Davidson diagonalization with overlap
     ethr =  8.82E-04,  avg # of iterations =  3.0

     negative rho (up, down):  2.288E-04 0.000E+00

     total cpu time spent up to now is      421.0 secs

     total energy              =    -825.88066945 Ry
     Harris-Foulkes estimate   =    -825.95327532 Ry
     estimated scf accuracy    <       0.47525594 Ry

     iteration #  6     ecut=    70.00 Ry     beta= 0.70
     Davidson diagonalization with overlap
     ethr =  2.23E-04,  avg # of iterations =  2.0

     negative rho (up, down):  2.438E-04 0.000E+00

     total cpu time spent up to now is      475.3 secs

     total energy              =    -825.89735000 Ry
     Harris-Foulkes estimate   =    -825.93998439 Ry
     estimated scf accuracy    <       0.31956758 Ry

     iteration #  7     ecut=    70.00 Ry     beta= 0.70
     Davidson diagonalization with overlap
     ethr =  1.50E-04,  avg # of iterations =  1.0

     negative rho (up, down):  2.662E-04 0.000E+00

     total cpu time spent up to now is      528.6 secs

     total energy              =    -825.87724087 Ry
     Harris-Foulkes estimate   =    -825.92059777 Ry
     estimated scf accuracy    <       0.38421657 Ry

     iteration #  8     ecut=    70.00 Ry     beta= 0.70
     Davidson diagonalization with overlap
     ethr =  1.50E-04,  avg # of iterations =  2.0

     negative rho (up, down):  3.362E-04 0.000E+00

     total cpu time spent up to now is      581.9 secs

     total energy              =    -825.90947849 Ry
     Harris-Foulkes estimate   =    -825.92736969 Ry
     estimated scf accuracy    <       0.30843284 Ry

     iteration #  9     ecut=    70.00 Ry     beta= 0.70
     Davidson diagonalization with overlap
     ethr =  1.45E-04,  avg # of iterations =  1.0

     negative rho (up, down):  4.349E-04 0.000E+00

     total cpu time spent up to now is      635.2 secs

     total energy              =    -825.90205669 Ry
     Harris-Foulkes estimate   =    -825.91452694 Ry
     estimated scf accuracy    <       0.29362100 Ry

     iteration # 10     ecut=    70.00 Ry     beta= 0.70
     Davidson diagonalization with overlap
     ethr =  1.38E-04,  avg # of iterations =  1.0

     negative rho (up, down):  5.079E-04 0.000E+00

     total cpu time spent up to now is      688.7 secs

     total energy              =    -825.90205866 Ry
     Harris-Foulkes estimate   =    -825.90895236 Ry
     estimated scf accuracy    <       0.21903673 Ry

     iteration # 11     ecut=    70.00 Ry     beta= 0.70
     Davidson diagonalization with overlap
     ethr =  1.03E-04,  avg # of iterations =  1.0

     negative rho (up, down):  6.006E-04 0.000E+00

     total cpu time spent up to now is      741.9 secs

     total energy              =    -825.89877402 Ry
     Harris-Foulkes estimate   =    -825.90485567 Ry
     estimated scf accuracy    <       0.22872306 Ry

     iteration # 12     ecut=    70.00 Ry     beta= 0.70
     Davidson diagonalization with overlap
     ethr =  1.03E-04,  avg # of iterations =  1.0

     negative rho (up, down):  5.886E-04 0.000E+00

     total cpu time spent up to now is      795.1 secs

     total energy              =    -825.89683387 Ry
     Harris-Foulkes estimate   =    -825.89983788 Ry
     estimated scf accuracy    <       0.17501733 Ry

     iteration # 13     ecut=    70.00 Ry     beta= 0.70
     Davidson diagonalization with overlap
     ethr =  8.22E-05,  avg # of iterations =  1.0

     negative rho (up, down):  5.824E-04 0.000E+00

     total cpu time spent up to now is      848.4 secs

     total energy              =    -825.89648746 Ry
     Harris-Foulkes estimate   =    -825.89748328 Ry
     estimated scf accuracy    <       0.18077447 Ry

     iteration # 14     ecut=    70.00 Ry     beta= 0.70
     Davidson diagonalization with overlap
     ethr =  8.22E-05,  avg # of iterations =  1.0

     negative rho (up, down):  5.748E-04 0.000E+00

     total cpu time spent up to now is      901.5 secs

     total energy              =    -825.89331314 Ry
     Harris-Foulkes estimate   =    -825.89681642 Ry
     estimated scf accuracy    <       0.15958529 Ry

     iteration # 15     ecut=    70.00 Ry     beta= 0.70
     Davidson diagonalization with overlap
     ethr =  7.49E-05,  avg # of iterations =  1.0

     negative rho (up, down):  5.478E-04 0.000E+00

     total cpu time spent up to now is      954.5 secs

     total energy              =    -825.89709853 Ry
     Harris-Foulkes estimate   =    -825.89604795 Ry
     estimated scf accuracy    <       0.33715336 Ry

     iteration # 16     ecut=    70.00 Ry     beta= 0.70
     Davidson diagonalization with overlap
     ethr =  7.49E-05,  avg # of iterations =  1.0

     negative rho (up, down):  5.747E-04 0.000E+00

     total cpu time spent up to now is     1007.8 secs

     total energy              =    -825.89578464 Ry
     Harris-Foulkes estimate   =    -825.89968084 Ry
     estimated scf accuracy    <       0.20768384 Ry

     iteration # 17     ecut=    70.00 Ry     beta= 0.70
     Davidson diagonalization with overlap
     ethr =  7.49E-05,  avg # of iterations =  1.0

     negative rho (up, down):  5.736E-04 0.000E+00

     total cpu time spent up to now is     1061.0 secs

     total energy              =    -825.89380276 Ry
     Harris-Foulkes estimate   =    -825.89610575 Ry
     estimated scf accuracy    <       0.23660120 Ry

     iteration # 18     ecut=    70.00 Ry     beta= 0.70
     Davidson diagonalization with overlap
     ethr =  7.49E-05,  avg # of iterations =  1.0

     negative rho (up, down):  5.744E-04 0.000E+00

     total cpu time spent up to now is     1114.6 secs

     total energy              =    -825.89475248 Ry
     Harris-Foulkes estimate   =    -825.89480345 Ry
     estimated scf accuracy    <       0.00275943 Ry

     iteration # 19     ecut=    70.00 Ry     beta= 0.70
     Davidson diagonalization with overlap
     ethr =  1.30E-06,  avg # of iterations = 14.0

     negative rho (up, down):  5.748E-04 0.000E+00

     total cpu time spent up to now is     1173.2 secs

     total energy              =    -825.89474623 Ry
     Harris-Foulkes estimate   =    -825.89480486 Ry
     estimated scf accuracy    <       0.00242775 Ry

     iteration # 20     ecut=    70.00 Ry     beta= 0.70
     Davidson diagonalization with overlap
     ethr =  1.14E-06,  avg # of iterations =  1.0

     negative rho (up, down):  5.749E-04 0.000E+00

     total cpu time spent up to now is     1226.2 secs

     total energy              =    -825.89476298 Ry
     Harris-Foulkes estimate   =    -825.89477816 Ry
     estimated scf accuracy    <       0.00085569 Ry

     iteration # 21     ecut=    70.00 Ry     beta= 0.70
     Davidson diagonalization with overlap
     ethr =  4.02E-07,  avg # of iterations =  1.0

     negative rho (up, down):  5.750E-04 0.000E+00

     total cpu time spent up to now is     1279.2 secs

     total energy              =    -825.89476656 Ry
     Harris-Foulkes estimate   =    -825.89476959 Ry
     estimated scf accuracy    <       0.00009418 Ry

     iteration # 22     ecut=    70.00 Ry     beta= 0.70
     Davidson diagonalization with overlap
     ethr =  4.42E-08,  avg # of iterations =  1.0

     negative rho (up, down):  5.752E-04 0.000E+00

     total cpu time spent up to now is     1332.4 secs

     total energy              =    -825.89476667 Ry
     Harris-Foulkes estimate   =    -825.89476962 Ry
     estimated scf accuracy    <       0.00043199 Ry

     iteration # 23     ecut=    70.00 Ry     beta= 0.70
     Davidson diagonalization with overlap
     ethr =  4.42E-08,  avg # of iterations =  1.0

     negative rho (up, down):  5.752E-04 0.000E+00

     total cpu time spent up to now is     1385.6 secs

     total energy              =    -825.89476512 Ry
     Harris-Foulkes estimate   =    -825.89476929 Ry
     estimated scf accuracy    <       0.00016024 Ry

     iteration # 24     ecut=    70.00 Ry     beta= 0.70
     Davidson diagonalization with overlap
     ethr =  4.42E-08,  avg # of iterations =  1.0

     negative rho (up, down):  5.754E-04 0.000E+00

     total cpu time spent up to now is     1438.8 secs

     total energy              =    -825.89476785 Ry
     Harris-Foulkes estimate   =    -825.89476847 Ry
     estimated scf accuracy    <       0.00023147 Ry

     iteration # 25     ecut=    70.00 Ry     beta= 0.70
     Davidson diagonalization with overlap
     ethr =  4.42E-08,  avg # of iterations =  1.0

     negative rho (up, down):  5.754E-04 0.000E+00

     total cpu time spent up to now is     1491.9 secs

     total energy              =    -825.89476755 Ry
     Harris-Foulkes estimate   =    -825.89476806 Ry
     estimated scf accuracy    <       0.00007169 Ry

     iteration # 26     ecut=    70.00 Ry     beta= 0.70
     Davidson diagonalization with overlap
     ethr =  3.37E-08,  avg # of iterations =  1.0

     negative rho (up, down):  5.754E-04 0.000E+00

     total cpu time spent up to now is     1549.7 secs

     End of self-consistent calculation

          k = 0.0000 0.0000 0.0000 ( 87777 PWs)   bands (ev):

   -80.0213 -49.6636 -49.6629 -48.2324 -19.7727 -18.9351 -18.9351 -18.8474
   -18.8287 -18.8284 -18.4678 -17.0744 -17.0743 -17.0738 -16.9819 -16.9818
   -16.6853 -16.2233 -16.2232 -16.1241 -16.0592 -16.0592 -15.3640 -14.1063
   -14.1062 -14.0345 -14.0017 -14.0016 -13.3403 -13.0678 -13.0677 -13.0383
   -12.7418 -12.7417 -12.3152 -11.8376 -11.8375 -11.6596 -11.3857 -11.3856
   -10.4652  -9.6505  -9.6505  -9.4401  -9.3164  -9.3163  -9.2350  -9.2008
    -9.2007  -9.1908  -8.7020  -8.7020  -8.1534  -8.1534  -8.0610  -7.9067
    -7.8380  -7.4347  -7.4347  -7.1740  -7.1056  -7.1055  -6.9004  -6.9003
    -6.8107  -6.8105  -6.8029  -6.7215  -6.5671  -6.5670  -6.5410  -6.5307
    -6.5306  -6.4825  -6.4796  -6.4649  -5.5165  -5.5165  -5.5067  -5.5065
    -5.2938  -5.2937  -4.9935  -4.8894  -4.8464  -4.7262  -4.6954  -4.6951
    -4.3858  -4.1764  -4.1762  -4.1236  -4.1236  -3.8362  -3.8359  -3.7605
    -3.6743  -3.6743  -3.1318  -2.6294  -2.6292  -1.8234  -1.8045  -1.8044
    -0.8476  -0.8368  -0.8368  -0.8362   0.9618   0.9690   0.9693   1.6371
     1.6371   1.6401   2.5661   2.8089   2.8092   2.8739   3.1705   3.1737
     3.4508   3.5494   3.5495   3.6822   3.6941   3.7795   3.7881   3.7925

     occupation numbers 
     1.0000   1.0000   1.0000   1.0000   1.0000   1.0000   1.0000   1.0000
     1.0000   1.0000   1.0000   1.0000   1.0000   1.0000   1.0000   1.0000
     1.0000   1.0000   1.0000   1.0000   1.0000   1.0000   1.0000   1.0000
     1.0000   1.0000   1.0000   1.0000   1.0000   1.0000   1.0000   1.0000
     1.0000   1.0000   1.0000   1.0000   1.0000   1.0000   1.0000   1.0000
     1.0000   1.0000   1.0000   1.0000   1.0000   1.0000   1.0000   1.0000
     1.0000   1.0000   1.0000   1.0000   1.0000   1.0000   1.0000   1.0000
     1.0000   1.0000   1.0000   1.0000   1.0000   1.0000   1.0000   1.0000
     1.0000   1.0000   1.0000   1.0000   1.0000   1.0000   1.0000   1.0000
     1.0000   1.0000   1.0000   1.0000   1.0000   1.0000   1.0000   1.0000
     1.0000   1.0000   1.0000   1.0000   1.0000   1.0000   1.0000   1.0000
     1.0000   1.0000   1.0000   1.0000   1.0000   1.0000   1.0000   1.0000
     1.0000   1.0000   1.0000   1.0000   1.0000   1.0000   1.0000   1.0000
     1.0094   0.5103   0.5067   0.4736   0.0000   0.0000   0.0000   0.0000
     0.0000   0.0000   0.0000   0.0000   0.0000   0.0000   0.0000   0.0000
     0.0000   0.0000   0.0000   0.0000   0.0000   0.0000   0.0000   0.0000

     the Fermi energy is    -0.8348 ev

!    total energy              =    -825.89476768 Ry
     Harris-Foulkes estimate   =    -825.89476783 Ry
     estimated scf accuracy    <       0.00000016 Ry

     The total energy is the sum of the following terms:

     one-electron contribution =   -2703.82567038 Ry
     hartree contribution      =    1396.65284470 Ry
     xc contribution           =    -259.57182620 Ry
     ewald contribution        =     740.85068954 Ry
     smearing contrib. (-TS)   =      -0.00080533 Ry

     convergence has been achieved in  26 iterations

     Writing output data file gr-12-bridge2.save/

     init_run     :     48.20s CPU     49.67s WALL (       1 calls)
     electrons    :   1453.07s CPU   1498.95s WALL (       1 calls)

     Called by init_run:
     wfcinit      :     24.84s CPU     25.12s WALL (       1 calls)
     wfcinit:atom :      0.04s CPU      0.06s WALL (       1 calls)
     wfcinit:wfcr :     24.62s CPU     24.83s WALL (       1 calls)
     potinit      :     11.01s CPU     11.48s WALL (       1 calls)
     hinit0       :      6.75s CPU      6.80s WALL (       1 calls)

     Called by electrons:
     c_bands      :    860.79s CPU    866.35s WALL (      26 calls)
     sum_band     :    297.30s CPU    312.74s WALL (      26 calls)
     v_of_rho     :    177.02s CPU    187.59s WALL (      27 calls)
     v_h          :      2.06s CPU      2.13s WALL (      27 calls)
     v_xc         :    174.96s CPU    185.46s WALL (      27 calls)
     newd         :    120.50s CPU    135.65s WALL (      27 calls)
     mix_rho      :      5.82s CPU      5.96s WALL (      26 calls)

     Called by c_bands:
     init_us_2    :      2.57s CPU      2.62s WALL (      53 calls)
     cegterg      :    854.73s CPU    860.25s WALL (      26 calls)

     Called by sum_band:
     sum_band:bec :      0.02s CPU      0.02s WALL (      26 calls)
     addusdens    :    182.83s CPU    197.24s WALL (      26 calls)

     Called by *egterg:
     h_psi        :    462.01s CPU    465.96s WALL (      82 calls)
     s_psi        :    152.92s CPU    153.07s WALL (      82 calls)
     g_psi        :      0.42s CPU      0.42s WALL (      55 calls)
     cdiaghg      :      5.80s CPU      5.81s WALL (      81 calls)
     cegterg:over :    102.27s CPU    102.37s WALL (      55 calls)
     cegterg:upda :     58.50s CPU     58.90s WALL (      55 calls)
     cegterg:last :     45.22s CPU     45.24s WALL (      26 calls)

     Called by h_psi:
     h_psi:pot    :    461.43s CPU    464.79s WALL (      82 calls)
     h_psi:calbec :    153.53s CPU    153.68s WALL (      82 calls)
     vloc_psi     :    156.09s CPU    159.16s WALL (      82 calls)
     add_vuspsi   :    151.81s CPU    151.95s WALL (      82 calls)

     General routines
     calbec       :    221.72s CPU    221.96s WALL (     108 calls)
     fft          :     98.99s CPU    102.91s WALL (    1699 calls)
     ffts         :      1.07s CPU      1.11s WALL (      53 calls)
     fftw         :    167.12s CPU    170.49s WALL (   18146 calls)
     interpolate  :      2.52s CPU      2.59s WALL (      27 calls)

     Parallel routines
     fft_scatt_xy :     48.59s CPU     49.18s WALL (   19898 calls)
     fft_scatt_yz :     86.05s CPU     91.26s WALL (   19898 calls)

     PWSCF        :  25m 2.53s CPU  25m50.15s WALL


   This run was terminated on:  15:17:50  22Jul2022            

=------------------------------------------------------------------------------=
   JOB DONE.
=------------------------------------------------------------------------------=
