
     Program PWSCF v.6.4.1 starts on 22Jul2022 at 19:53:56 

     This program is part of the open-source Quantum ESPRESSO suite
     for quantum simulation of materials; please cite
         "P. Giannozzi et al., J. Phys.:Condens. Matter 21 395502 (2009);
         "P. Giannozzi et al., J. Phys.:Condens. Matter 29 465901 (2017);
          URL http://www.quantum-espresso.org", 
     in publications or presentations arising from this work. More details at
     http://www.quantum-espresso.org/quote

     Parallel version (MPI), running on     6 processors

     MPI processes distributed on     1 nodes
     R & G space division:  proc/nbgrp/npool/nimage =       6
     Reading input from distance-1.8.in

     Current dimensions of program PWSCF are:
     Max number of different atomic species (ntypx) = 10
     Max number of k-points (npk) =  40000
     Max angular momentum in pseudopotentials (lmaxx) =  3

     IMPORTANT: XC functional enforced from input :
     Exchange-correlation      = RVV10 ( 1  4 13  4 3 0)
     Any further DFT definition will be discarded
     Please, verify this is what you really want

               file H.pbe-rrkjus.UPF: wavefunction(s)  1S renormalized
               file Mn.pbe-spn-rrkjus_psl.0.3.1.UPF: wavefunction(s)  3D renormalized

     Subspace diagonalization in iterative solution of the eigenvalue problem:
     a serial algorithm will be used


     Parallelization info
     --------------------
     sticks:   dense  smooth     PW     G-vecs:    dense   smooth      PW
     Min        3051    1746    432               270999   117096   14629
     Max        3053    1747    437               271001   117099   14630
     Sum       18313   10477   2611              1626001   702581   87777



     bravais-lattice index     =            4
     lattice parameter (alat)  =      23.2937  a.u.
     unit-cell volume          =    8879.8548 (a.u.)^3
     number of atoms/cell      =           52
     number of atomic types    =            3
     number of electrons       =       213.00
     number of Kohn-Sham states=          128
     kinetic-energy cutoff     =      70.0000  Ry
     charge density cutoff     =     490.0000  Ry
     convergence threshold     =      1.0E-06
     mixing beta               =       0.7000
     number of iterations used =            8  plain     mixing
     Exchange-correlation      = RVV10 ( 1  4 13  4 3 0)

     celldm(1)=  23.293684  celldm(2)=   0.000000  celldm(3)=   0.811261
     celldm(4)=   0.000000  celldm(5)=   0.000000  celldm(6)=   0.000000

     crystal axes: (cart. coord. in units of alat)
               a(1) = (   1.000000   0.000000   0.000000 )  
               a(2) = (  -0.500000   0.866025   0.000000 )  
               a(3) = (   0.000000   0.000000   0.811261 )  

     reciprocal axes: (cart. coord. in units 2 pi/alat)
               b(1) = (  1.000000  0.577350 -0.000000 )  
               b(2) = (  0.000000  1.154701  0.000000 )  
               b(3) = (  0.000000 -0.000000  1.232649 )  


     PseudoPot. # 1 for H  read from file:
     /home/cristian/Escritorio/Proyecto_Grafeno/pseudopotenciales/H.pbe-rrkjus.UPF
     MD5 check sum: 7cc9d459525c9a0585f487a71c3c9563
     Pseudo is Ultrasoft, Zval =  1.0
     Generated by new atomic code, or converted to UPF format
     Using radial grid of 1061 points,  2 beta functions with: 
                l(1) =   0
                l(2) =   0
     Q(r) pseudized with 0 coefficients 


     PseudoPot. # 2 for C  read from file:
     /home/cristian/Escritorio/Proyecto_Grafeno/pseudopotenciales/C.pbe-n-rrkjus_psl.1.0.0.UPF
     MD5 check sum: 1fdd950c42eb37d8afe3dd2f8d12311e
     Pseudo is Ultrasoft + core correction, Zval =  4.0
     Generated using "atomic" code by A. Dal Corso v.6.3MaX
     Using radial grid of 1073 points,  4 beta functions with: 
                l(1) =   0
                l(2) =   0
                l(3) =   1
                l(4) =   1
     Q(r) pseudized with 0 coefficients 


     PseudoPot. # 3 for Mn read from file:
     /home/cristian/Escritorio/Proyecto_Grafeno/pseudopotenciales/Mn.pbe-spn-rrkjus_psl.0.3.1.UPF
     MD5 check sum: e1cac159bdd2ba70c18e85765a5d4279
     Pseudo is Ultrasoft + core correction, Zval = 15.0
     Generated using "atomic" code by A. Dal Corso v.6.2.2
     Using radial grid of 1187 points,  6 beta functions with: 
                l(1) =   0
                l(2) =   0
                l(3) =   1
                l(4) =   1
                l(5) =   2
                l(6) =   2
     Q(r) pseudized with 0 coefficients 


     vdW kernel table read from file rVV10_kernel_table
     MD5 check sum: b8e2538accc0c0b3206b45ba4daaba6c

     atomic species   valence    mass     pseudopotential
        H              1.00     1.00794     H ( 1.00)
        C              4.00    12.01070     C ( 1.00)
        Mn            15.00    54.93804     Mn( 1.00)

      2 Sym. Ops. (no inversion) found


                                    s                        frac. trans.

      isym =  1     identity                                     

 cryst.   s( 1) = (     1          0          0      )
                  (     0          1          0      )
                  (     0          0          1      )

 cart.    s( 1) = (  1.0000000  0.0000000  0.0000000 )
                  (  0.0000000  1.0000000  0.0000000 )
                  (  0.0000000  0.0000000  1.0000000 )


      isym =  2     inv. 180 deg rotation - cryst. axis [1,1,0]  

 cryst.   s( 2) = (     0         -1          0      )
                  (    -1          0          0      )
                  (     0          0          1      )

 cart.    s( 2) = (  0.5000000 -0.8660254  0.0000000 )
                  ( -0.8660254 -0.5000000  0.0000000 )
                  (  0.0000000  0.0000000  1.0000000 )


     point group C_s (m)    
     there are  2 classes
     the character table:

       E     s    
A'     1.00  1.00
A''    1.00 -1.00

     the symmetry operations in each class and the name of the first element:

     E        1
          identity                                               
     s        2
          inv. 180 deg rotation - cryst. axis [1,1,0]            

   Cartesian axes

     site n.     atom                  positions (alat units)
         1           H   tau(   1) = (   0.2500000   0.4330127   0.1460270  )
         2           H   tau(   2) = (   0.2500000   0.4330127   0.2070397  )
         3           C   tau(   3) = (   0.0000000   0.0000000   0.0000000  )
         4           C   tau(   4) = (   0.0000000   0.1154701   0.0000000  )
         5           C   tau(   5) = (  -0.1000000   0.1732051   0.0000000  )
         6           C   tau(   6) = (  -0.1000000   0.2886751   0.0000000  )
         7           C   tau(   7) = (  -0.2000000   0.3464102   0.0000000  )
         8           C   tau(   8) = (  -0.2000000   0.4618802   0.0000000  )
         9           C   tau(   9) = (  -0.3000000   0.5196152   0.0000000  )
        10           C   tau(  10) = (  -0.3000000   0.6350853   0.0000000  )
        11           C   tau(  11) = (  -0.4000000   0.6928203   0.0000000  )
        12           C   tau(  12) = (  -0.4000000   0.8082904   0.0000000  )
        13           C   tau(  13) = (   0.2000000   0.0000000   0.0000000  )
        14           C   tau(  14) = (   0.2000000   0.1154701   0.0000000  )
        15           C   tau(  15) = (   0.1000000   0.1732051   0.0000000  )
        16           C   tau(  16) = (   0.1000000   0.2886751   0.0000000  )
        17           C   tau(  17) = (   0.0000000   0.3464102   0.0000000  )
        18           C   tau(  18) = (   0.0000000   0.4618802   0.0000000  )
        19           C   tau(  19) = (  -0.1000000   0.5196152   0.0000000  )
        20           C   tau(  20) = (  -0.1000000   0.6350853   0.0000000  )
        21           C   tau(  21) = (  -0.2000000   0.6928203   0.0000000  )
        22           C   tau(  22) = (  -0.2000000   0.8082904   0.0000000  )
        23           C   tau(  23) = (   0.4000000   0.0000000   0.0000000  )
        24           C   tau(  24) = (   0.4000000   0.1154701   0.0000000  )
        25           C   tau(  25) = (   0.3000000   0.1732051   0.0000000  )
        26           C   tau(  26) = (   0.3000000   0.2886751   0.0000000  )
        27           C   tau(  27) = (   0.2000000   0.3464102   0.0000000  )
        28           Mn  tau(  28) = (   0.2000000   0.4618802   0.0000000  )
        29           C   tau(  29) = (   0.1000000   0.5196152   0.0000000  )
        30           C   tau(  30) = (   0.1000000   0.6350853   0.0000000  )
        31           C   tau(  31) = (   0.0000000   0.6928203   0.0000000  )
        32           C   tau(  32) = (   0.0000000   0.8082904   0.0000000  )
        33           C   tau(  33) = (   0.6000000   0.0000000   0.0000000  )
        34           C   tau(  34) = (   0.6000000   0.1154701   0.0000000  )
        35           C   tau(  35) = (   0.5000000   0.1732051   0.0000000  )
        36           C   tau(  36) = (   0.5000000   0.2886751   0.0000000  )
        37           C   tau(  37) = (   0.4000000   0.3464102   0.0000000  )
        38           C   tau(  38) = (   0.4000000   0.4618802   0.0000000  )
        39           C   tau(  39) = (   0.3000000   0.5196152   0.0000000  )
        40           C   tau(  40) = (   0.3000000   0.6350853   0.0000000  )
        41           C   tau(  41) = (   0.2000000   0.6928203   0.0000000  )
        42           C   tau(  42) = (   0.2000000   0.8082904   0.0000000  )
        43           C   tau(  43) = (   0.8000000   0.0000000   0.0000000  )
        44           C   tau(  44) = (   0.8000000   0.1154701   0.0000000  )
        45           C   tau(  45) = (   0.7000000   0.1732051   0.0000000  )
        46           C   tau(  46) = (   0.7000000   0.2886751   0.0000000  )
        47           C   tau(  47) = (   0.6000000   0.3464102   0.0000000  )
        48           C   tau(  48) = (   0.6000000   0.4618802   0.0000000  )
        49           C   tau(  49) = (   0.5000000   0.5196152   0.0000000  )
        50           C   tau(  50) = (   0.5000000   0.6350853   0.0000000  )
        51           C   tau(  51) = (   0.4000000   0.6928203   0.0000000  )
        52           C   tau(  52) = (   0.4000000   0.8082904   0.0000000  )

   Crystallographic axes

     site n.     atom                  positions (cryst. coord.)
         1           H   tau(   1) = (  0.5000000  0.5000000  0.1800000  )
         2           H   tau(   2) = (  0.5000000  0.5000000  0.2552072  )
         3           C   tau(   3) = (  0.0000000  0.0000000  0.0000000  )
         4           C   tau(   4) = (  0.0666667  0.1333333  0.0000000  )
         5           C   tau(   5) = (  0.0000000  0.2000000  0.0000000  )
         6           C   tau(   6) = (  0.0666667  0.3333333  0.0000000  )
         7           C   tau(   7) = (  0.0000000  0.4000000  0.0000000  )
         8           C   tau(   8) = (  0.0666667  0.5333333  0.0000000  )
         9           C   tau(   9) = (  0.0000000  0.6000000  0.0000000  )
        10           C   tau(  10) = (  0.0666667  0.7333333  0.0000000  )
        11           C   tau(  11) = (  0.0000000  0.8000000  0.0000000  )
        12           C   tau(  12) = (  0.0666667  0.9333333  0.0000000  )
        13           C   tau(  13) = (  0.2000000  0.0000000  0.0000000  )
        14           C   tau(  14) = (  0.2666667  0.1333333  0.0000000  )
        15           C   tau(  15) = (  0.2000000  0.2000000  0.0000000  )
        16           C   tau(  16) = (  0.2666667  0.3333333  0.0000000  )
        17           C   tau(  17) = (  0.2000000  0.4000000  0.0000000  )
        18           C   tau(  18) = (  0.2666667  0.5333333  0.0000000  )
        19           C   tau(  19) = (  0.2000000  0.6000000  0.0000000  )
        20           C   tau(  20) = (  0.2666667  0.7333333  0.0000000  )
        21           C   tau(  21) = (  0.2000000  0.8000000  0.0000000  )
        22           C   tau(  22) = (  0.2666667  0.9333333  0.0000000  )
        23           C   tau(  23) = (  0.4000000  0.0000000  0.0000000  )
        24           C   tau(  24) = (  0.4666667  0.1333333  0.0000000  )
        25           C   tau(  25) = (  0.4000000  0.2000000  0.0000000  )
        26           C   tau(  26) = (  0.4666667  0.3333333  0.0000000  )
        27           C   tau(  27) = (  0.4000000  0.4000000  0.0000000  )
        28           Mn  tau(  28) = (  0.4666667  0.5333333  0.0000000  )
        29           C   tau(  29) = (  0.4000000  0.6000000  0.0000000  )
        30           C   tau(  30) = (  0.4666667  0.7333333  0.0000000  )
        31           C   tau(  31) = (  0.4000000  0.8000000  0.0000000  )
        32           C   tau(  32) = (  0.4666667  0.9333333  0.0000000  )
        33           C   tau(  33) = (  0.6000000  0.0000000  0.0000000  )
        34           C   tau(  34) = (  0.6666667  0.1333333  0.0000000  )
        35           C   tau(  35) = (  0.6000000  0.2000000  0.0000000  )
        36           C   tau(  36) = (  0.6666667  0.3333333  0.0000000  )
        37           C   tau(  37) = (  0.6000000  0.4000000  0.0000000  )
        38           C   tau(  38) = (  0.6666667  0.5333333  0.0000000  )
        39           C   tau(  39) = (  0.6000000  0.6000000  0.0000000  )
        40           C   tau(  40) = (  0.6666667  0.7333333  0.0000000  )
        41           C   tau(  41) = (  0.6000000  0.8000000  0.0000000  )
        42           C   tau(  42) = (  0.6666667  0.9333333  0.0000000  )
        43           C   tau(  43) = (  0.8000000  0.0000000  0.0000000  )
        44           C   tau(  44) = (  0.8666667  0.1333333  0.0000000  )
        45           C   tau(  45) = (  0.8000000  0.2000000  0.0000000  )
        46           C   tau(  46) = (  0.8666667  0.3333333  0.0000000  )
        47           C   tau(  47) = (  0.8000000  0.4000000  0.0000000  )
        48           C   tau(  48) = (  0.8666667  0.5333333  0.0000000  )
        49           C   tau(  49) = (  0.8000000  0.6000000  0.0000000  )
        50           C   tau(  50) = (  0.8666667  0.7333333  0.0000000  )
        51           C   tau(  51) = (  0.8000000  0.8000000  0.0000000  )
        52           C   tau(  52) = (  0.8666667  0.9333333  0.0000000  )

     number of k points=     1  Marzari-Vanderbilt smearing, width (Ry)=  0.0010
                       cart. coord. in units 2pi/alat
        k(    1) = (   0.0000000   0.0000000   0.0000000), wk =   2.0000000

                       cryst. coord.
        k(    1) = (   0.0000000   0.0000000   0.0000000), wk =   2.0000000

     Dense  grid:  1626001 G-vectors     FFT dimensions: ( 180, 180, 135)

     Smooth grid:   702581 G-vectors     FFT dimensions: ( 125, 125, 108)

     Dynamical RAM for                 wfc:      28.59 MB

     Dynamical RAM for     wfc (w. buffer):      28.59 MB

     Dynamical RAM for           str. fact:      12.41 MB

     Dynamical RAM for           local pot:       0.00 MB

     Dynamical RAM for          nlocal pot:      92.46 MB

     Dynamical RAM for                qrad:      19.73 MB

     Dynamical RAM for          rho,v,vnew:      29.46 MB

     Dynamical RAM for               rhoin:       9.82 MB

     Dynamical RAM for            rho*nmix:      66.16 MB

     Dynamical RAM for           G-vectors:      16.40 MB

     Dynamical RAM for          h,s,v(r/c):      12.00 MB

     Dynamical RAM for          <psi|beta>:       0.81 MB

     Dynamical RAM for                 psi:     114.35 MB

     Dynamical RAM for                hpsi:     114.35 MB

     Dynamical RAM for                spsi:     114.35 MB

     Dynamical RAM for      wfcinit/wfcrot:      93.90 MB

     Dynamical RAM for           addusdens:     971.75 MB

     Estimated static dynamical RAM per process >     320.00 MB

     Estimated max dynamical RAM per process >       1.26 GB

     Estimated total dynamical RAM >       7.57 GB

     Check: negative core charge=   -0.000002

     Initial potential from superposition of free atoms

     starting charge  212.80506, renormalised to  213.00000

     negative rho (up, down):  7.954E-05 0.000E+00


---------------------------------------------------------------------------------
Carrying out rVV10 run using the following parameters:
Nqs =      20    Nr_points =    1024   r_max =   100.000
b_value =  6.30000    beta =  0.00901
     q_mesh =  0.00010000  0.00030000  0.00058939  0.00100810
               0.00161396  0.00249058  0.00375900  0.00559430
               0.00824984  0.01209221  0.01765183  0.02569619
               0.03733578  0.05417739  0.07854596  0.11380545
               0.16482331  0.23864234  0.34545298  0.50000000

Gradients computed in Reciprocal space

---------------------------------------------------------------------------------


     Starting wfcs are  208 randomized atomic wfcs

     total cpu time spent up to now is       47.5 secs

     Self-consistent Calculation

     iteration #  1     ecut=    70.00 Ry     beta= 0.70
     Davidson diagonalization with overlap
     ethr =  1.00E-02,  avg # of iterations =  2.0

     negative rho (up, down):  1.613E-04 0.000E+00

     total cpu time spent up to now is      115.9 secs

     total energy              =    -821.64786633 Ry
     Harris-Foulkes estimate   =    -829.06717015 Ry
     estimated scf accuracy    <      10.34486978 Ry

     iteration #  2     ecut=    70.00 Ry     beta= 0.70
     Davidson diagonalization with overlap
     ethr =  4.86E-03,  avg # of iterations =  7.0

     negative rho (up, down):  1.963E-04 0.000E+00

     total cpu time spent up to now is      184.3 secs

     total energy              =    -813.97749214 Ry
     Harris-Foulkes estimate   =    -840.21194227 Ry
     estimated scf accuracy    <     103.56001357 Ry

     iteration #  3     ecut=    70.00 Ry     beta= 0.70
     Davidson diagonalization with overlap
     ethr =  4.86E-03,  avg # of iterations =  5.0

     negative rho (up, down):  2.346E-04 0.000E+00

     total cpu time spent up to now is      280.6 secs

     total energy              =    -824.83478591 Ry
     Harris-Foulkes estimate   =    -826.73879404 Ry
     estimated scf accuracy    <       7.00034421 Ry

     iteration #  4     ecut=    70.00 Ry     beta= 0.70
     Davidson diagonalization with overlap
     ethr =  3.29E-03,  avg # of iterations =  3.0

     negative rho (up, down):  2.808E-04 0.000E+00

     total cpu time spent up to now is      335.2 secs

     total energy              =    -825.37183234 Ry
     Harris-Foulkes estimate   =    -826.26466566 Ry
     estimated scf accuracy    <       2.68550084 Ry

     iteration #  5     ecut=    70.00 Ry     beta= 0.70
     Davidson diagonalization with overlap
     ethr =  1.26E-03,  avg # of iterations =  4.0

     negative rho (up, down):  3.065E-04 0.000E+00

     total cpu time spent up to now is      388.5 secs

     total energy              =    -825.89184969 Ry
     Harris-Foulkes estimate   =    -826.04064491 Ry
     estimated scf accuracy    <       1.12782497 Ry

     iteration #  6     ecut=    70.00 Ry     beta= 0.70
     Davidson diagonalization with overlap
     ethr =  5.29E-04,  avg # of iterations =  2.0

     negative rho (up, down):  3.456E-04 0.000E+00

     total cpu time spent up to now is      439.4 secs

     total energy              =    -825.88214436 Ry
     Harris-Foulkes estimate   =    -825.92837223 Ry
     estimated scf accuracy    <       0.39966524 Ry

     iteration #  7     ecut=    70.00 Ry     beta= 0.70
     Davidson diagonalization with overlap
     ethr =  1.88E-04,  avg # of iterations =  6.0

     negative rho (up, down):  3.718E-04 0.000E+00

     total cpu time spent up to now is      491.9 secs

     total energy              =    -825.86952911 Ry
     Harris-Foulkes estimate   =    -825.89985798 Ry
     estimated scf accuracy    <       0.23158536 Ry

     iteration #  8     ecut=    70.00 Ry     beta= 0.70
     Davidson diagonalization with overlap
     ethr =  1.09E-04,  avg # of iterations =  1.0

     negative rho (up, down):  5.061E-04 0.000E+00

     total cpu time spent up to now is      542.4 secs

     total energy              =    -825.87206375 Ry
     Harris-Foulkes estimate   =    -825.88862145 Ry
     estimated scf accuracy    <       0.08044709 Ry

     iteration #  9     ecut=    70.00 Ry     beta= 0.70
     Davidson diagonalization with overlap
     ethr =  3.78E-05,  avg # of iterations =  3.0

     negative rho (up, down):  5.553E-04 0.000E+00

     total cpu time spent up to now is      597.5 secs

     total energy              =    -825.87063498 Ry
     Harris-Foulkes estimate   =    -825.89505068 Ry
     estimated scf accuracy    <       0.43733274 Ry

     iteration # 10     ecut=    70.00 Ry     beta= 0.70
     Davidson diagonalization with overlap
     ethr =  3.78E-05,  avg # of iterations =  1.0

     negative rho (up, down):  6.241E-04 0.000E+00

     total cpu time spent up to now is      647.9 secs

     total energy              =    -825.87899254 Ry
     Harris-Foulkes estimate   =    -825.88351638 Ry
     estimated scf accuracy    <       0.03363340 Ry

     iteration # 11     ecut=    70.00 Ry     beta= 0.70
     Davidson diagonalization with overlap
     ethr =  1.58E-05,  avg # of iterations =  1.0

     negative rho (up, down):  6.085E-04 0.000E+00

     total cpu time spent up to now is      698.7 secs

     total energy              =    -825.88210808 Ry
     Harris-Foulkes estimate   =    -825.88472974 Ry
     estimated scf accuracy    <       0.06710038 Ry

     iteration # 12     ecut=    70.00 Ry     beta= 0.70
     Davidson diagonalization with overlap
     ethr =  1.58E-05,  avg # of iterations =  1.0

     negative rho (up, down):  6.480E-04 0.000E+00

     total cpu time spent up to now is      749.4 secs

     total energy              =    -825.88112719 Ry
     Harris-Foulkes estimate   =    -825.88269899 Ry
     estimated scf accuracy    <       0.03487168 Ry

     iteration # 13     ecut=    70.00 Ry     beta= 0.70
     Davidson diagonalization with overlap
     ethr =  1.58E-05,  avg # of iterations =  1.0

     negative rho (up, down):  6.574E-04 0.000E+00

     total cpu time spent up to now is      800.1 secs

     total energy              =    -825.88086401 Ry
     Harris-Foulkes estimate   =    -825.88146667 Ry
     estimated scf accuracy    <       0.01488173 Ry

     iteration # 14     ecut=    70.00 Ry     beta= 0.70
     Davidson diagonalization with overlap
     ethr =  6.99E-06,  avg # of iterations =  1.0

     negative rho (up, down):  6.665E-04 0.000E+00

     total cpu time spent up to now is      850.6 secs

     total energy              =    -825.88076826 Ry
     Harris-Foulkes estimate   =    -825.88103633 Ry
     estimated scf accuracy    <       0.00545067 Ry

     iteration # 15     ecut=    70.00 Ry     beta= 0.70
     Davidson diagonalization with overlap
     ethr =  2.56E-06,  avg # of iterations = 10.0

     negative rho (up, down):  6.625E-04 0.000E+00

     total cpu time spent up to now is      903.0 secs

     total energy              =    -825.88060516 Ry
     Harris-Foulkes estimate   =    -825.88086330 Ry
     estimated scf accuracy    <       0.00514091 Ry

     iteration # 16     ecut=    70.00 Ry     beta= 0.70
     Davidson diagonalization with overlap
     ethr =  2.41E-06,  avg # of iterations =  1.0

     negative rho (up, down):  6.694E-04 0.000E+00

     total cpu time spent up to now is      953.5 secs

     total energy              =    -825.88046885 Ry
     Harris-Foulkes estimate   =    -825.88089421 Ry
     estimated scf accuracy    <       0.01372144 Ry

     iteration # 17     ecut=    70.00 Ry     beta= 0.70
     Davidson diagonalization with overlap
     ethr =  2.41E-06,  avg # of iterations =  1.0

     negative rho (up, down):  6.782E-04 0.000E+00

     total cpu time spent up to now is     1004.3 secs

     total energy              =    -825.88052939 Ry
     Harris-Foulkes estimate   =    -825.88060896 Ry
     estimated scf accuracy    <       0.00070061 Ry

     iteration # 18     ecut=    70.00 Ry     beta= 0.70
     Davidson diagonalization with overlap
     ethr =  3.29E-07,  avg # of iterations =  2.0

     negative rho (up, down):  6.765E-04 0.000E+00

     total cpu time spent up to now is     1055.1 secs

     total energy              =    -825.88025936 Ry
     Harris-Foulkes estimate   =    -825.88066209 Ry
     estimated scf accuracy    <       0.01356327 Ry

     iteration # 19     ecut=    70.00 Ry     beta= 0.70
     Davidson diagonalization with overlap
     ethr =  3.29E-07,  avg # of iterations =  2.0

     negative rho (up, down):  6.816E-04 0.000E+00

     total cpu time spent up to now is     1105.7 secs

     total energy              =    -825.88051100 Ry
     Harris-Foulkes estimate   =    -825.88066344 Ry
     estimated scf accuracy    <       0.00526783 Ry

     iteration # 20     ecut=    70.00 Ry     beta= 0.70
     Davidson diagonalization with overlap
     ethr =  3.29E-07,  avg # of iterations =  1.0

     negative rho (up, down):  6.811E-04 0.000E+00

     total cpu time spent up to now is     1156.2 secs

     total energy              =    -825.88056603 Ry
     Harris-Foulkes estimate   =    -825.88057457 Ry
     estimated scf accuracy    <       0.00016284 Ry

     iteration # 21     ecut=    70.00 Ry     beta= 0.70
     Davidson diagonalization with overlap
     ethr =  7.64E-08,  avg # of iterations =  1.0

     negative rho (up, down):  6.829E-04 0.000E+00

     total cpu time spent up to now is     1206.7 secs

     total energy              =    -825.88056505 Ry
     Harris-Foulkes estimate   =    -825.88061125 Ry
     estimated scf accuracy    <       0.00304619 Ry

     iteration # 22     ecut=    70.00 Ry     beta= 0.70
     Davidson diagonalization with overlap
     ethr =  7.64E-08,  avg # of iterations =  1.0

     negative rho (up, down):  6.833E-04 0.000E+00

     total cpu time spent up to now is     1257.1 secs

     total energy              =    -825.88057037 Ry
     Harris-Foulkes estimate   =    -825.88057710 Ry
     estimated scf accuracy    <       0.00054122 Ry

     iteration # 23     ecut=    70.00 Ry     beta= 0.70
     Davidson diagonalization with overlap
     ethr =  7.64E-08,  avg # of iterations =  1.0

     negative rho (up, down):  6.835E-04 0.000E+00

     total cpu time spent up to now is     1307.7 secs

     total energy              =    -825.88057075 Ry
     Harris-Foulkes estimate   =    -825.88057244 Ry
     estimated scf accuracy    <       0.00007013 Ry

     iteration # 24     ecut=    70.00 Ry     beta= 0.70
     Davidson diagonalization with overlap
     ethr =  3.29E-08,  avg # of iterations =  1.0

     negative rho (up, down):  6.832E-04 0.000E+00

     total cpu time spent up to now is     1358.3 secs

     total energy              =    -825.88057146 Ry
     Harris-Foulkes estimate   =    -825.88057171 Ry
     estimated scf accuracy    <       0.00000352 Ry

     iteration # 25     ecut=    70.00 Ry     beta= 0.70
     Davidson diagonalization with overlap
     ethr =  1.65E-09,  avg # of iterations =  2.0

     negative rho (up, down):  6.833E-04 0.000E+00

     total cpu time spent up to now is     1409.0 secs

     total energy              =    -825.88057153 Ry
     Harris-Foulkes estimate   =    -825.88057197 Ry
     estimated scf accuracy    <       0.00002593 Ry

     iteration # 26     ecut=    70.00 Ry     beta= 0.70
     Davidson diagonalization with overlap
     ethr =  1.65E-09,  avg # of iterations =  1.0

     negative rho (up, down):  6.832E-04 0.000E+00

     total cpu time spent up to now is     1459.4 secs

     total energy              =    -825.88057169 Ry
     Harris-Foulkes estimate   =    -825.88057171 Ry
     estimated scf accuracy    <       0.00000113 Ry

     iteration # 27     ecut=    70.00 Ry     beta= 0.70
     Davidson diagonalization with overlap
     ethr =  5.31E-10,  avg # of iterations =  1.0

     negative rho (up, down):  6.832E-04 0.000E+00

     total cpu time spent up to now is     1510.0 secs

     End of self-consistent calculation

          k = 0.0000 0.0000 0.0000 ( 87777 PWs)   bands (ev):

   -80.1414 -49.7730 -49.7680 -48.4266 -19.6722 -18.8192 -18.8186 -18.7636
   -18.7624 -18.7383 -18.4289 -16.9927 -16.9884 -16.9760 -16.8977 -16.8974
   -16.5943 -16.1359 -16.1328 -16.0434 -15.9879 -15.9878 -15.3181 -14.0262
   -14.0151 -13.9632 -13.9016 -13.9007 -13.3069 -12.9780 -12.9763 -12.9466
   -12.6735 -12.6694 -12.2105 -11.7643 -11.7612 -11.5792 -11.3161 -11.3113
   -10.4206  -9.6146  -9.6138  -9.3642  -9.2152  -9.2149  -9.1252  -9.1007
    -9.1005  -9.0920  -8.7626  -8.6187  -8.5668  -8.1038  -8.1027  -7.9453
    -7.7467  -7.7436  -7.3337  -7.3309  -7.1256  -7.0998  -6.9984  -6.8353
    -6.8327  -6.7279  -6.7219  -6.6914  -6.6425  -6.4595  -6.4566  -6.4461
    -6.4445  -6.4436  -6.4004  -6.2581  -5.5696  -5.4877  -5.4429  -5.4400
    -5.2273  -5.2247  -4.8912  -4.8855  -4.8138  -4.6330  -4.6127  -4.6127
    -4.2647  -4.1290  -4.1274  -4.1084  -4.0996  -3.7340  -3.7319  -3.6803
    -3.5857  -3.5835  -3.0331  -2.6080  -2.6038  -1.7537  -1.7109  -1.7100
    -0.8488  -0.7975  -0.7959  -0.7820   1.0310   1.0540   1.0594   1.6979
     1.6982   1.7191   2.5154   2.8893   2.9022   2.9458   2.9820   3.0295
     3.5250   3.5846   3.5896   3.6986   3.7077   3.8111   3.8130   3.8386

     occupation numbers 
     1.0000   1.0000   1.0000   1.0000   1.0000   1.0000   1.0000   1.0000
     1.0000   1.0000   1.0000   1.0000   1.0000   1.0000   1.0000   1.0000
     1.0000   1.0000   1.0000   1.0000   1.0000   1.0000   1.0000   1.0000
     1.0000   1.0000   1.0000   1.0000   1.0000   1.0000   1.0000   1.0000
     1.0000   1.0000   1.0000   1.0000   1.0000   1.0000   1.0000   1.0000
     1.0000   1.0000   1.0000   1.0000   1.0000   1.0000   1.0000   1.0000
     1.0000   1.0000   1.0000   1.0000   1.0000   1.0000   1.0000   1.0000
     1.0000   1.0000   1.0000   1.0000   1.0000   1.0000   1.0000   1.0000
     1.0000   1.0000   1.0000   1.0000   1.0000   1.0000   1.0000   1.0000
     1.0000   1.0000   1.0000   1.0000   1.0000   1.0000   1.0000   1.0000
     1.0000   1.0000   1.0000   1.0000   1.0000   1.0000   1.0000   1.0000
     1.0000   1.0000   1.0000   1.0000   1.0000   1.0000   1.0000   1.0000
     1.0000   1.0000   1.0000   1.0000   1.0000   1.0000   1.0000   1.0000
     1.0000   0.7499   0.6634   0.0867   0.0000   0.0000   0.0000   0.0000
     0.0000   0.0000   0.0000   0.0000   0.0000   0.0000   0.0000   0.0000
     0.0000   0.0000   0.0000   0.0000   0.0000   0.0000   0.0000   0.0000

     the Fermi energy is    -0.7910 ev

!    total energy              =    -825.88057155 Ry
     Harris-Foulkes estimate   =    -825.88057170 Ry
     estimated scf accuracy    <       0.00000018 Ry

     The total energy is the sum of the following terms:

     one-electron contribution =   -2745.16769570 Ry
     hartree contribution      =    1417.78460454 Ry
     xc contribution           =    -259.70121631 Ry
     ewald contribution        =     761.20432419 Ry
     smearing contrib. (-TS)   =      -0.00058827 Ry

     convergence has been achieved in  27 iterations

     Writing output data file gr-12-bridge2.save/

     init_run     :     45.07s CPU     46.26s WALL (       1 calls)
     electrons    :   1417.38s CPU   1462.64s WALL (       1 calls)

     Called by init_run:
     wfcinit      :     21.54s CPU     21.70s WALL (       1 calls)
     wfcinit:atom :      0.02s CPU      0.04s WALL (       1 calls)
     wfcinit:wfcr :     21.36s CPU     21.46s WALL (       1 calls)
     potinit      :     10.83s CPU     11.26s WALL (       1 calls)
     hinit0       :      7.80s CPU      7.84s WALL (       1 calls)

     Called by electrons:
     c_bands      :    846.35s CPU    851.44s WALL (      27 calls)
     sum_band     :    283.82s CPU    298.95s WALL (      27 calls)
     v_of_rho     :    173.27s CPU    184.13s WALL (      28 calls)
     v_h          :      1.98s CPU      2.08s WALL (      28 calls)
     v_xc         :    171.28s CPU    182.06s WALL (      28 calls)
     newd         :    115.47s CPU    130.30s WALL (      28 calls)
     mix_rho      :      5.68s CPU      5.79s WALL (      27 calls)

     Called by c_bands:
     init_us_2    :      2.45s CPU      2.48s WALL (      55 calls)
     cegterg      :    839.87s CPU    844.92s WALL (      27 calls)

     Called by sum_band:
     sum_band:bec :      0.02s CPU      0.02s WALL (      27 calls)
     addusdens    :    174.25s CPU    188.48s WALL (      27 calls)

     Called by *egterg:
     h_psi        :    449.43s CPU    453.14s WALL (      91 calls)
     s_psi        :    149.91s CPU    149.96s WALL (      91 calls)
     g_psi        :      0.43s CPU      0.43s WALL (      63 calls)
     cdiaghg      :      5.76s CPU      5.76s WALL (      90 calls)
     cegterg:over :     98.57s CPU     98.61s WALL (      63 calls)
     cegterg:upda :     56.46s CPU     56.87s WALL (      63 calls)
     cegterg:last :     50.18s CPU     50.20s WALL (      28 calls)

     Called by h_psi:
     h_psi:pot    :    448.99s CPU    452.08s WALL (      91 calls)
     h_psi:calbec :    149.83s CPU    149.92s WALL (      91 calls)
     vloc_psi     :    149.33s CPU    152.30s WALL (      91 calls)
     add_vuspsi   :    149.83s CPU    149.86s WALL (      91 calls)

     General routines
     calbec       :    216.73s CPU    216.86s WALL (     118 calls)
     fft          :     96.30s CPU    100.27s WALL (    1762 calls)
     ffts         :      1.05s CPU      1.08s WALL (      55 calls)
     fftw         :    159.96s CPU    163.24s WALL (   18974 calls)
     interpolate  :      2.45s CPU      2.51s WALL (      28 calls)

     Parallel routines
     fft_scatt_xy :     45.64s CPU     46.27s WALL (   20791 calls)
     fft_scatt_yz :     85.86s CPU     91.01s WALL (   20791 calls)

     PWSCF        :  24m23.76s CPU  25m10.50s WALL


   This run was terminated on:  20:19: 6  22Jul2022            

=------------------------------------------------------------------------------=
   JOB DONE.
=------------------------------------------------------------------------------=
