
     Program PWSCF v.6.4.1 starts on 20Aug2022 at  2: 5:12 

     This program is part of the open-source Quantum ESPRESSO suite
     for quantum simulation of materials; please cite
         "P. Giannozzi et al., J. Phys.:Condens. Matter 21 395502 (2009);
         "P. Giannozzi et al., J. Phys.:Condens. Matter 29 465901 (2017);
          URL http://www.quantum-espresso.org", 
     in publications or presentations arising from this work. More details at
     http://www.quantum-espresso.org/quote

     Parallel version (MPI), running on     6 processors

     MPI processes distributed on     1 nodes
     R & G space division:  proc/nbgrp/npool/nimage =       6
     Reading input from distance-4.0.in

     Current dimensions of program PWSCF are:
     Max number of different atomic species (ntypx) = 10
     Max number of k-points (npk) =  40000
     Max angular momentum in pseudopotentials (lmaxx) =  3

     IMPORTANT: XC functional enforced from input :
     Exchange-correlation      = RVV10 ( 1  4 13  4 3 0)
     Any further DFT definition will be discarded
     Please, verify this is what you really want

               file H.pbe-rrkjus.UPF: wavefunction(s)  1S renormalized
               file Cr.pbe-spn-rrkjus_psl.1.0.0.UPF: wavefunction(s)  3P renormalized

     Subspace diagonalization in iterative solution of the eigenvalue problem:
     a serial algorithm will be used


     Parallelization info
     --------------------
     sticks:   dense  smooth     PW     G-vecs:    dense   smooth      PW
     Min        3051    1746    432               270999   117096   14629
     Max        3053    1747    437               271001   117099   14630
     Sum       18313   10477   2611              1626001   702581   87777



     bravais-lattice index     =            4
     lattice parameter (alat)  =      23.2937  a.u.
     unit-cell volume          =    8879.8548 (a.u.)^3
     number of atoms/cell      =           52
     number of atomic types    =            3
     number of electrons       =       212.00
     number of Kohn-Sham states=          127
     kinetic-energy cutoff     =      70.0000  Ry
     charge density cutoff     =     490.0000  Ry
     convergence threshold     =      1.0E-06
     mixing beta               =       0.7000
     number of iterations used =            8  plain     mixing
     Exchange-correlation      = RVV10 ( 1  4 13  4 3 0)

     celldm(1)=  23.293684  celldm(2)=   0.000000  celldm(3)=   0.811261
     celldm(4)=   0.000000  celldm(5)=   0.000000  celldm(6)=   0.000000

     crystal axes: (cart. coord. in units of alat)
               a(1) = (   1.000000   0.000000   0.000000 )  
               a(2) = (  -0.500000   0.866025   0.000000 )  
               a(3) = (   0.000000   0.000000   0.811261 )  

     reciprocal axes: (cart. coord. in units 2 pi/alat)
               b(1) = (  1.000000  0.577350 -0.000000 )  
               b(2) = (  0.000000  1.154701  0.000000 )  
               b(3) = (  0.000000 -0.000000  1.232649 )  


     PseudoPot. # 1 for H  read from file:
     /home/cristian/Escritorio/Proyecto_Grafeno/pseudopotenciales/H.pbe-rrkjus.UPF
     MD5 check sum: 7cc9d459525c9a0585f487a71c3c9563
     Pseudo is Ultrasoft, Zval =  1.0
     Generated by new atomic code, or converted to UPF format
     Using radial grid of 1061 points,  2 beta functions with: 
                l(1) =   0
                l(2) =   0
     Q(r) pseudized with 0 coefficients 


     PseudoPot. # 2 for C  read from file:
     /home/cristian/Escritorio/Proyecto_Grafeno/pseudopotenciales/C.pbe-n-rrkjus_psl.1.0.0.UPF
     MD5 check sum: 1fdd950c42eb37d8afe3dd2f8d12311e
     Pseudo is Ultrasoft + core correction, Zval =  4.0
     Generated using "atomic" code by A. Dal Corso v.6.3MaX
     Using radial grid of 1073 points,  4 beta functions with: 
                l(1) =   0
                l(2) =   0
                l(3) =   1
                l(4) =   1
     Q(r) pseudized with 0 coefficients 


     PseudoPot. # 3 for Cr read from file:
     /home/cristian/Escritorio/Proyecto_Grafeno/pseudopotenciales/Cr.pbe-spn-rrkjus_psl.1.0.0.UPF
     MD5 check sum: 793d051e4f89dd1e3290b85340a92c0a
     Pseudo is Ultrasoft + core correction, Zval = 14.0
     Generated using "atomic" code by A. Dal Corso v.6.2.2
     Using radial grid of 1183 points,  6 beta functions with: 
                l(1) =   0
                l(2) =   0
                l(3) =   1
                l(4) =   1
                l(5) =   2
                l(6) =   2
     Q(r) pseudized with 0 coefficients 


     vdW kernel table read from file rVV10_kernel_table
     MD5 check sum: b8e2538accc0c0b3206b45ba4daaba6c

     atomic species   valence    mass     pseudopotential
        H              1.00     1.00794     H ( 1.00)
        C              4.00    12.01070     C ( 1.00)
        Cr            14.00    51.99610     Cr( 1.00)

     Starting magnetic structure 
     atomic species   magnetization
        H            0.500
        C            0.300
        Cr           0.800

     No symmetry found


                                    s                        frac. trans.

      isym =  1     identity                                     

 cryst.   s( 1) = (     1          0          0      )
                  (     0          1          0      )
                  (     0          0          1      )

 cart.    s( 1) = (  1.0000000  0.0000000  0.0000000 )
                  (  0.0000000  1.0000000  0.0000000 )
                  (  0.0000000  0.0000000  1.0000000 )


     point group C_1 (1)    
     there are  1 classes
     the character table:

       E    
A      1.00

     the symmetry operations in each class and the name of the first element:

     E        1
          identity                                               

   Cartesian axes

     site n.     atom                  positions (alat units)
         1           H   tau(   1) = (   0.2500000   0.4907477   0.3245045  )
         2           H   tau(   2) = (   0.2500000   0.4907477   0.3855171  )
         3           C   tau(   3) = (   0.0000000   0.0000000   0.0000000  )
         4           C   tau(   4) = (   0.0000000   0.1154701   0.0000000  )
         5           C   tau(   5) = (  -0.1000000   0.1732051   0.0000000  )
         6           C   tau(   6) = (  -0.1000000   0.2886751   0.0000000  )
         7           C   tau(   7) = (  -0.2000000   0.3464102   0.0000000  )
         8           C   tau(   8) = (  -0.2000000   0.4618802   0.0000000  )
         9           C   tau(   9) = (  -0.3000000   0.5196152   0.0000000  )
        10           C   tau(  10) = (  -0.3000000   0.6350853   0.0000000  )
        11           C   tau(  11) = (  -0.4000000   0.6928203   0.0000000  )
        12           C   tau(  12) = (  -0.4000000   0.8082904   0.0000000  )
        13           C   tau(  13) = (   0.2000000   0.0000000   0.0000000  )
        14           C   tau(  14) = (   0.2000000   0.1154701   0.0000000  )
        15           C   tau(  15) = (   0.1000000   0.1732051   0.0000000  )
        16           C   tau(  16) = (   0.1000000   0.2886751   0.0000000  )
        17           C   tau(  17) = (   0.0000000   0.3464102   0.0000000  )
        18           C   tau(  18) = (   0.0000000   0.4618802   0.0000000  )
        19           C   tau(  19) = (  -0.1000000   0.5196152   0.0000000  )
        20           C   tau(  20) = (  -0.1000000   0.6350853   0.0000000  )
        21           C   tau(  21) = (  -0.2000000   0.6928203   0.0000000  )
        22           C   tau(  22) = (  -0.2000000   0.8082904   0.0000000  )
        23           C   tau(  23) = (   0.4000000   0.0000000   0.0000000  )
        24           C   tau(  24) = (   0.4000000   0.1154701   0.0000000  )
        25           C   tau(  25) = (   0.3000000   0.1732051   0.0000000  )
        26           C   tau(  26) = (   0.3000000   0.2886751   0.0000000  )
        27           C   tau(  27) = (   0.2000000   0.3464102   0.0000000  )
        28           Cr  tau(  28) = (   0.2000000   0.4618802   0.0000000  )
        29           C   tau(  29) = (   0.1000000   0.5196152   0.0000000  )
        30           C   tau(  30) = (   0.1000000   0.6350853   0.0000000  )
        31           C   tau(  31) = (   0.0000000   0.6928203   0.0000000  )
        32           C   tau(  32) = (   0.0000000   0.8082904   0.0000000  )
        33           C   tau(  33) = (   0.6000000   0.0000000   0.0000000  )
        34           C   tau(  34) = (   0.6000000   0.1154701   0.0000000  )
        35           C   tau(  35) = (   0.5000000   0.1732051   0.0000000  )
        36           C   tau(  36) = (   0.5000000   0.2886751   0.0000000  )
        37           C   tau(  37) = (   0.4000000   0.3464102   0.0000000  )
        38           C   tau(  38) = (   0.4000000   0.4618802   0.0000000  )
        39           C   tau(  39) = (   0.3000000   0.5196152   0.0000000  )
        40           C   tau(  40) = (   0.3000000   0.6350853   0.0000000  )
        41           C   tau(  41) = (   0.2000000   0.6928203   0.0000000  )
        42           C   tau(  42) = (   0.2000000   0.8082904   0.0000000  )
        43           C   tau(  43) = (   0.8000000   0.0000000   0.0000000  )
        44           C   tau(  44) = (   0.8000000   0.1154701   0.0000000  )
        45           C   tau(  45) = (   0.7000000   0.1732051   0.0000000  )
        46           C   tau(  46) = (   0.7000000   0.2886751   0.0000000  )
        47           C   tau(  47) = (   0.6000000   0.3464102   0.0000000  )
        48           C   tau(  48) = (   0.6000000   0.4618802   0.0000000  )
        49           C   tau(  49) = (   0.5000000   0.5196152   0.0000000  )
        50           C   tau(  50) = (   0.5000000   0.6350853   0.0000000  )
        51           C   tau(  51) = (   0.4000000   0.6928203   0.0000000  )
        52           C   tau(  52) = (   0.4000000   0.8082904   0.0000000  )

   Crystallographic axes

     site n.     atom                  positions (cryst. coord.)
         1           H   tau(   1) = (  0.5333333  0.5666667  0.4000000  )
         2           H   tau(   2) = (  0.5333333  0.5666667  0.4752072  )
         3           C   tau(   3) = (  0.0000000  0.0000000  0.0000000  )
         4           C   tau(   4) = (  0.0666667  0.1333333  0.0000000  )
         5           C   tau(   5) = (  0.0000000  0.2000000  0.0000000  )
         6           C   tau(   6) = (  0.0666667  0.3333333  0.0000000  )
         7           C   tau(   7) = (  0.0000000  0.4000000  0.0000000  )
         8           C   tau(   8) = (  0.0666667  0.5333333  0.0000000  )
         9           C   tau(   9) = (  0.0000000  0.6000000  0.0000000  )
        10           C   tau(  10) = (  0.0666667  0.7333333  0.0000000  )
        11           C   tau(  11) = (  0.0000000  0.8000000  0.0000000  )
        12           C   tau(  12) = (  0.0666667  0.9333333  0.0000000  )
        13           C   tau(  13) = (  0.2000000  0.0000000  0.0000000  )
        14           C   tau(  14) = (  0.2666667  0.1333333  0.0000000  )
        15           C   tau(  15) = (  0.2000000  0.2000000  0.0000000  )
        16           C   tau(  16) = (  0.2666667  0.3333333  0.0000000  )
        17           C   tau(  17) = (  0.2000000  0.4000000  0.0000000  )
        18           C   tau(  18) = (  0.2666667  0.5333333  0.0000000  )
        19           C   tau(  19) = (  0.2000000  0.6000000  0.0000000  )
        20           C   tau(  20) = (  0.2666667  0.7333333  0.0000000  )
        21           C   tau(  21) = (  0.2000000  0.8000000  0.0000000  )
        22           C   tau(  22) = (  0.2666667  0.9333333  0.0000000  )
        23           C   tau(  23) = (  0.4000000  0.0000000  0.0000000  )
        24           C   tau(  24) = (  0.4666667  0.1333333  0.0000000  )
        25           C   tau(  25) = (  0.4000000  0.2000000  0.0000000  )
        26           C   tau(  26) = (  0.4666667  0.3333333  0.0000000  )
        27           C   tau(  27) = (  0.4000000  0.4000000  0.0000000  )
        28           Cr  tau(  28) = (  0.4666667  0.5333333  0.0000000  )
        29           C   tau(  29) = (  0.4000000  0.6000000  0.0000000  )
        30           C   tau(  30) = (  0.4666667  0.7333333  0.0000000  )
        31           C   tau(  31) = (  0.4000000  0.8000000  0.0000000  )
        32           C   tau(  32) = (  0.4666667  0.9333333  0.0000000  )
        33           C   tau(  33) = (  0.6000000  0.0000000  0.0000000  )
        34           C   tau(  34) = (  0.6666667  0.1333333  0.0000000  )
        35           C   tau(  35) = (  0.6000000  0.2000000  0.0000000  )
        36           C   tau(  36) = (  0.6666667  0.3333333  0.0000000  )
        37           C   tau(  37) = (  0.6000000  0.4000000  0.0000000  )
        38           C   tau(  38) = (  0.6666667  0.5333333  0.0000000  )
        39           C   tau(  39) = (  0.6000000  0.6000000  0.0000000  )
        40           C   tau(  40) = (  0.6666667  0.7333333  0.0000000  )
        41           C   tau(  41) = (  0.6000000  0.8000000  0.0000000  )
        42           C   tau(  42) = (  0.6666667  0.9333333  0.0000000  )
        43           C   tau(  43) = (  0.8000000  0.0000000  0.0000000  )
        44           C   tau(  44) = (  0.8666667  0.1333333  0.0000000  )
        45           C   tau(  45) = (  0.8000000  0.2000000  0.0000000  )
        46           C   tau(  46) = (  0.8666667  0.3333333  0.0000000  )
        47           C   tau(  47) = (  0.8000000  0.4000000  0.0000000  )
        48           C   tau(  48) = (  0.8666667  0.5333333  0.0000000  )
        49           C   tau(  49) = (  0.8000000  0.6000000  0.0000000  )
        50           C   tau(  50) = (  0.8666667  0.7333333  0.0000000  )
        51           C   tau(  51) = (  0.8000000  0.8000000  0.0000000  )
        52           C   tau(  52) = (  0.8666667  0.9333333  0.0000000  )

     number of k points=     1  Marzari-Vanderbilt smearing, width (Ry)=  0.0010
                       cart. coord. in units 2pi/alat
        k(    1) = (   0.0000000   0.0000000   0.0000000), wk =   1.0000000

                       cryst. coord.
        k(    1) = (   0.0000000   0.0000000   0.0000000), wk =   1.0000000

     Dense  grid:  1626001 G-vectors     FFT dimensions: ( 180, 180, 135)

     Smooth grid:   702581 G-vectors     FFT dimensions: ( 125, 125, 108)

     Dynamical RAM for                 wfc:      28.36 MB

     Dynamical RAM for     wfc (w. buffer):      85.09 MB

     Dynamical RAM for           str. fact:      12.41 MB

     Dynamical RAM for           local pot:       0.00 MB

     Dynamical RAM for          nlocal pot:      92.46 MB

     Dynamical RAM for                qrad:      19.73 MB

     Dynamical RAM for          rho,v,vnew:      58.92 MB

     Dynamical RAM for               rhoin:      19.64 MB

     Dynamical RAM for            rho*nmix:     132.32 MB

     Dynamical RAM for           G-vectors:      16.40 MB

     Dynamical RAM for          h,s,v(r/c):      11.81 MB

     Dynamical RAM for          <psi|beta>:       0.80 MB

     Dynamical RAM for                 psi:     113.46 MB

     Dynamical RAM for                hpsi:     113.46 MB

     Dynamical RAM for                spsi:     113.46 MB

     Dynamical RAM for      wfcinit/wfcrot:      93.90 MB

     Dynamical RAM for           addusdens:     975.89 MB

     Estimated static dynamical RAM per process >     487.63 MB

     Estimated max dynamical RAM per process >       1.43 GB

     Estimated total dynamical RAM >       8.58 GB
     Generating pointlists ...
     new r_m :   0.0252 (alat units)  0.5862 (a.u.) for type    1
     new r_m :   0.0476 (alat units)  1.1095 (a.u.) for type    2
     new r_m :   0.0476 (alat units)  1.1095 (a.u.) for type    3

     Check: negative core charge=   -0.000002

     Initial potential from superposition of free atoms

     starting charge  211.80478, renormalised to  212.00000

     negative rho (up, down):  4.365E-04 1.901E-02


---------------------------------------------------------------------------------
Carrying out rVV10 run using the following parameters:
Nqs =      20    Nr_points =    1024   r_max =   100.000
b_value =  6.30000    beta =  0.00901
     q_mesh =  0.00010000  0.00030000  0.00058939  0.00100810
               0.00161396  0.00249058  0.00375900  0.00559430
               0.00824984  0.01209221  0.01765183  0.02569619
               0.03733578  0.05417739  0.07854596  0.11380545
               0.16482331  0.23864234  0.34545298  0.50000000

Gradients computed in Reciprocal space

---------------------------------------------------------------------------------


     Starting wfcs are  208 randomized atomic wfcs

     total cpu time spent up to now is       72.5 secs

     Self-consistent Calculation

     iteration #  1     ecut=    70.00 Ry     beta= 0.70
     Davidson diagonalization with overlap
     ethr =  1.00E-02,  avg # of iterations =  2.5

     negative rho (up, down):  7.264E-04 6.855E-03

     total cpu time spent up to now is      198.1 secs

     total energy              =    -784.64198625 Ry
     Harris-Foulkes estimate   =    -786.12144835 Ry
     estimated scf accuracy    <       9.66898794 Ry

     total magnetization       =     4.00 Bohr mag/cell
     absolute magnetization    =     5.43 Bohr mag/cell

     iteration #  2     ecut=    70.00 Ry     beta= 0.70
     Davidson diagonalization with overlap
     ethr =  4.56E-03,  avg # of iterations =  6.0

     negative rho (up, down):  8.092E-04 3.286E-02

     total cpu time spent up to now is      310.6 secs

     total energy              =    -777.21799393 Ry
     Harris-Foulkes estimate   =    -789.61053537 Ry
     estimated scf accuracy    <      41.76112720 Ry

     total magnetization       =     4.00 Bohr mag/cell
     absolute magnetization    =     4.11 Bohr mag/cell

     iteration #  3     ecut=    70.00 Ry     beta= 0.70
     Davidson diagonalization with overlap
     ethr =  4.56E-03,  avg # of iterations =  4.0

     negative rho (up, down):  9.666E-04 2.396E-02

     total cpu time spent up to now is      457.1 secs

     total energy              =    -784.13212454 Ry
     Harris-Foulkes estimate   =    -789.79173191 Ry
     estimated scf accuracy    <      34.59480661 Ry

     total magnetization       =     4.00 Bohr mag/cell
     absolute magnetization    =     4.10 Bohr mag/cell

     iteration #  4     ecut=    70.00 Ry     beta= 0.70
     Davidson diagonalization with overlap
     ethr =  4.56E-03,  avg # of iterations =  4.0

     negative rho (up, down):  1.207E-03 3.729E-02

     total cpu time spent up to now is      551.9 secs

     total energy              =    -786.76955698 Ry
     Harris-Foulkes estimate   =    -787.16193365 Ry
     estimated scf accuracy    <       1.07609455 Ry

     total magnetization       =     1.99 Bohr mag/cell
     absolute magnetization    =     2.48 Bohr mag/cell

     iteration #  5     ecut=    70.00 Ry     beta= 0.70
     Davidson diagonalization with overlap
     ethr =  5.08E-04,  avg # of iterations =  6.5

     negative rho (up, down):  1.630E-03 4.123E-02

     total cpu time spent up to now is      663.1 secs

     total energy              =    -786.91155863 Ry
     Harris-Foulkes estimate   =    -787.00536602 Ry
     estimated scf accuracy    <       0.37904335 Ry

     total magnetization       =     4.00 Bohr mag/cell
     absolute magnetization    =     4.23 Bohr mag/cell

     iteration #  6     ecut=    70.00 Ry     beta= 0.70
     Davidson diagonalization with overlap
     ethr =  1.79E-04,  avg # of iterations =  4.0

     negative rho (up, down):  2.763E-03 3.928E-02

     total cpu time spent up to now is      768.2 secs

     total energy              =    -786.96514685 Ry
     Harris-Foulkes estimate   =    -787.03114836 Ry
     estimated scf accuracy    <       0.36320037 Ry

     total magnetization       =     2.00 Bohr mag/cell
     absolute magnetization    =     2.74 Bohr mag/cell

     iteration #  7     ecut=    70.00 Ry     beta= 0.70
     Davidson diagonalization with overlap
     ethr =  1.71E-04,  avg # of iterations =  4.5

     negative rho (up, down):  3.176E-03 4.928E-02

     total cpu time spent up to now is      861.6 secs

     total energy              =    -787.00625390 Ry
     Harris-Foulkes estimate   =    -786.99640540 Ry
     estimated scf accuracy    <       0.06549629 Ry

     total magnetization       =     2.53 Bohr mag/cell
     absolute magnetization    =     3.37 Bohr mag/cell

     iteration #  8     ecut=    70.00 Ry     beta= 0.70
     Davidson diagonalization with overlap
     ethr =  3.09E-05,  avg # of iterations =  8.5

     negative rho (up, down):  3.113E-03 7.215E-02

     total cpu time spent up to now is      961.3 secs

     total energy              =    -787.00262183 Ry
     Harris-Foulkes estimate   =    -787.01503558 Ry
     estimated scf accuracy    <       0.16514797 Ry

     total magnetization       =     3.69 Bohr mag/cell
     absolute magnetization    =     4.58 Bohr mag/cell

     iteration #  9     ecut=    70.00 Ry     beta= 0.70
     Davidson diagonalization with overlap
     ethr =  3.09E-05,  avg # of iterations =  2.0

     negative rho (up, down):  2.433E-03 7.517E-02

     total cpu time spent up to now is     1053.6 secs

     total energy              =    -786.99325660 Ry
     Harris-Foulkes estimate   =    -787.00574207 Ry
     estimated scf accuracy    <       0.15220466 Ry

     total magnetization       =     4.00 Bohr mag/cell
     absolute magnetization    =     4.73 Bohr mag/cell

     iteration # 10     ecut=    70.00 Ry     beta= 0.70
     Davidson diagonalization with overlap
     ethr =  3.09E-05,  avg # of iterations =  7.0

     negative rho (up, down):  2.490E-03 7.965E-02

     total cpu time spent up to now is     1156.2 secs

     total energy              =    -787.00343442 Ry
     Harris-Foulkes estimate   =    -787.02399206 Ry
     estimated scf accuracy    <       0.24529132 Ry

     total magnetization       =     1.97 Bohr mag/cell
     absolute magnetization    =     3.55 Bohr mag/cell

     iteration # 11     ecut=    70.00 Ry     beta= 0.70
     Davidson diagonalization with overlap
     ethr =  3.09E-05,  avg # of iterations =  2.5

     negative rho (up, down):  2.762E-03 7.459E-02

     total cpu time spent up to now is     1251.1 secs

     total energy              =    -786.98846987 Ry
     Harris-Foulkes estimate   =    -787.01241824 Ry
     estimated scf accuracy    <       0.15118206 Ry

     total magnetization       =     2.00 Bohr mag/cell
     absolute magnetization    =     3.31 Bohr mag/cell

     iteration # 12     ecut=    70.00 Ry     beta= 0.70
     Davidson diagonalization with overlap
     ethr =  3.09E-05,  avg # of iterations =  3.0

     negative rho (up, down):  2.701E-03 6.503E-02

     total cpu time spent up to now is     1346.5 secs

     total energy              =    -786.98931395 Ry
     Harris-Foulkes estimate   =    -786.99891731 Ry
     estimated scf accuracy    <       0.08166060 Ry

     total magnetization       =     2.03 Bohr mag/cell
     absolute magnetization    =     3.36 Bohr mag/cell

     iteration # 13     ecut=    70.00 Ry     beta= 0.70
     Davidson diagonalization with overlap
     ethr =  3.09E-05,  avg # of iterations =  2.0

     negative rho (up, down):  2.621E-03 5.231E-02

     total cpu time spent up to now is     1438.2 secs

     total energy              =    -786.97436475 Ry
     Harris-Foulkes estimate   =    -786.99160847 Ry
     estimated scf accuracy    <       0.03790326 Ry

     total magnetization       =     2.76 Bohr mag/cell
     absolute magnetization    =     3.72 Bohr mag/cell

     iteration # 14     ecut=    70.00 Ry     beta= 0.70
     Davidson diagonalization with overlap
     ethr =  1.79E-05,  avg # of iterations =  3.0

     negative rho (up, down):  2.614E-03 4.343E-02

     total cpu time spent up to now is     1533.8 secs

     total energy              =    -786.97611678 Ry
     Harris-Foulkes estimate   =    -786.97929962 Ry
     estimated scf accuracy    <       0.03361619 Ry

     total magnetization       =     2.05 Bohr mag/cell
     absolute magnetization    =     3.28 Bohr mag/cell

     iteration # 15     ecut=    70.00 Ry     beta= 0.70
     Davidson diagonalization with overlap
     ethr =  1.59E-05,  avg # of iterations =  1.5

     negative rho (up, down):  2.577E-03 3.579E-02

     total cpu time spent up to now is     1624.9 secs

     total energy              =    -786.96629811 Ry
     Harris-Foulkes estimate   =    -786.97658935 Ry
     estimated scf accuracy    <       0.01595553 Ry

     total magnetization       =     2.30 Bohr mag/cell
     absolute magnetization    =     3.37 Bohr mag/cell

     iteration # 16     ecut=    70.00 Ry     beta= 0.70
     Davidson diagonalization with overlap
     ethr =  7.53E-06,  avg # of iterations =  3.0

     negative rho (up, down):  2.564E-03 3.012E-02

     total cpu time spent up to now is     1722.1 secs

     total energy              =    -786.96638212 Ry
     Harris-Foulkes estimate   =    -786.96958505 Ry
     estimated scf accuracy    <       0.01864825 Ry

     total magnetization       =     2.00 Bohr mag/cell
     absolute magnetization    =     3.23 Bohr mag/cell

     iteration # 17     ecut=    70.00 Ry     beta= 0.70
     Davidson diagonalization with overlap
     ethr =  7.53E-06,  avg # of iterations =  2.0

     negative rho (up, down):  2.527E-03 2.441E-02

     total cpu time spent up to now is     1815.1 secs

     total energy              =    -786.96029570 Ry
     Harris-Foulkes estimate   =    -786.96717148 Ry
     estimated scf accuracy    <       0.01199920 Ry

     total magnetization       =     2.00 Bohr mag/cell
     absolute magnetization    =     3.24 Bohr mag/cell

     iteration # 18     ecut=    70.00 Ry     beta= 0.70
     Davidson diagonalization with overlap
     ethr =  5.66E-06,  avg # of iterations =  9.5

     negative rho (up, down):  2.512E-03 1.650E-02

     total cpu time spent up to now is     1918.8 secs

     total energy              =    -786.96186998 Ry
     Harris-Foulkes estimate   =    -786.96352159 Ry
     estimated scf accuracy    <       0.00513901 Ry

     total magnetization       =     2.00 Bohr mag/cell
     absolute magnetization    =     3.24 Bohr mag/cell

     iteration # 19     ecut=    70.00 Ry     beta= 0.70
     Davidson diagonalization with overlap
     ethr =  2.42E-06,  avg # of iterations =  3.5

     negative rho (up, down):  2.499E-03 1.125E-02

     total cpu time spent up to now is     2017.5 secs

     total energy              =    -786.96180988 Ry
     Harris-Foulkes estimate   =    -786.96261782 Ry
     estimated scf accuracy    <       0.00251522 Ry

     total magnetization       =     2.00 Bohr mag/cell
     absolute magnetization    =     3.26 Bohr mag/cell

     iteration # 20     ecut=    70.00 Ry     beta= 0.70
     Davidson diagonalization with overlap
     ethr =  1.19E-06,  avg # of iterations =  4.0

     negative rho (up, down):  2.494E-03 9.500E-03

     total cpu time spent up to now is     2117.1 secs

     total energy              =    -786.96220939 Ry
     Harris-Foulkes estimate   =    -786.96228376 Ry
     estimated scf accuracy    <       0.00137223 Ry

     total magnetization       =     2.15 Bohr mag/cell
     absolute magnetization    =     3.25 Bohr mag/cell

     iteration # 21     ecut=    70.00 Ry     beta= 0.70
     Davidson diagonalization with overlap
     ethr =  6.47E-07,  avg # of iterations =  2.0

     negative rho (up, down):  2.494E-03 8.380E-03

     total cpu time spent up to now is     2208.7 secs

     total energy              =    -786.96181383 Ry
     Harris-Foulkes estimate   =    -786.96225114 Ry
     estimated scf accuracy    <       0.00112395 Ry

     total magnetization       =     2.12 Bohr mag/cell
     absolute magnetization    =     3.24 Bohr mag/cell

     iteration # 22     ecut=    70.00 Ry     beta= 0.70
     Davidson diagonalization with overlap
     ethr =  5.30E-07,  avg # of iterations =  9.5

     negative rho (up, down):  2.492E-03 7.393E-03

     total cpu time spent up to now is     2306.3 secs

     total energy              =    -786.96200602 Ry
     Harris-Foulkes estimate   =    -786.96206505 Ry
     estimated scf accuracy    <       0.00055746 Ry

     total magnetization       =     1.85 Bohr mag/cell
     absolute magnetization    =     3.34 Bohr mag/cell

     iteration # 23     ecut=    70.00 Ry     beta= 0.70
     Davidson diagonalization with overlap
     ethr =  2.63E-07,  avg # of iterations =  3.0

     negative rho (up, down):  2.491E-03 5.949E-03

     total cpu time spent up to now is     2403.7 secs

     total energy              =    -786.96162274 Ry
     Harris-Foulkes estimate   =    -786.96195290 Ry
     estimated scf accuracy    <       0.00040609 Ry

     total magnetization       =     2.00 Bohr mag/cell
     absolute magnetization    =     3.33 Bohr mag/cell

     iteration # 24     ecut=    70.00 Ry     beta= 0.70
     Davidson diagonalization with overlap
     ethr =  1.92E-07,  avg # of iterations =  3.0

     negative rho (up, down):  2.489E-03 4.575E-03

     total cpu time spent up to now is     2503.5 secs

     total energy              =    -786.96164397 Ry
     Harris-Foulkes estimate   =    -786.96173433 Ry
     estimated scf accuracy    <       0.00019930 Ry

     total magnetization       =     2.00 Bohr mag/cell
     absolute magnetization    =     3.37 Bohr mag/cell

     iteration # 25     ecut=    70.00 Ry     beta= 0.70
     Davidson diagonalization with overlap
     ethr =  9.40E-08,  avg # of iterations =  3.0

     negative rho (up, down):  2.488E-03 3.846E-03

     total cpu time spent up to now is     2601.6 secs

     total energy              =    -786.96177769 Ry
     Harris-Foulkes estimate   =    -786.96168190 Ry
     estimated scf accuracy    <       0.00016436 Ry

     total magnetization       =     2.00 Bohr mag/cell
     absolute magnetization    =     3.38 Bohr mag/cell

     iteration # 26     ecut=    70.00 Ry     beta= 0.70
     Davidson diagonalization with overlap
     ethr =  7.75E-08,  avg # of iterations =  3.0

     negative rho (up, down):  2.490E-03 3.809E-03

     total cpu time spent up to now is     2697.0 secs

     total energy              =    -786.96187427 Ry
     Harris-Foulkes estimate   =    -786.96180437 Ry
     estimated scf accuracy    <       0.00020792 Ry

     total magnetization       =     2.00 Bohr mag/cell
     absolute magnetization    =     3.36 Bohr mag/cell

     iteration # 27     ecut=    70.00 Ry     beta= 0.70
     Davidson diagonalization with overlap
     ethr =  7.75E-08,  avg # of iterations =  3.0

     negative rho (up, down):  2.492E-03 3.896E-03

     total cpu time spent up to now is     2799.5 secs

     total energy              =    -786.96198051 Ry
     Harris-Foulkes estimate   =    -786.96195278 Ry
     estimated scf accuracy    <       0.00023747 Ry

     total magnetization       =     2.00 Bohr mag/cell
     absolute magnetization    =     3.35 Bohr mag/cell

     iteration # 28     ecut=    70.00 Ry     beta= 0.70
     Davidson diagonalization with overlap
     ethr =  7.75E-08,  avg # of iterations =  3.0

     negative rho (up, down):  2.494E-03 4.445E-03

     total cpu time spent up to now is     2899.1 secs

     total energy              =    -786.96205933 Ry
     Harris-Foulkes estimate   =    -786.96203336 Ry
     estimated scf accuracy    <       0.00014768 Ry

     total magnetization       =     2.00 Bohr mag/cell
     absolute magnetization    =     3.35 Bohr mag/cell

     iteration # 29     ecut=    70.00 Ry     beta= 0.70
     Davidson diagonalization with overlap
     ethr =  6.97E-08,  avg # of iterations =  4.0

     negative rho (up, down):  2.496E-03 5.277E-03

     total cpu time spent up to now is     2998.7 secs

     total energy              =    -786.96205655 Ry
     Harris-Foulkes estimate   =    -786.96210434 Ry
     estimated scf accuracy    <       0.00015859 Ry

     total magnetization       =     2.00 Bohr mag/cell
     absolute magnetization    =     3.33 Bohr mag/cell

     iteration # 30     ecut=    70.00 Ry     beta= 0.70
     Davidson diagonalization with overlap
     ethr =  6.97E-08,  avg # of iterations =  3.0

     negative rho (up, down):  2.496E-03 5.223E-03

     total cpu time spent up to now is     3096.6 secs

     total energy              =    -786.96206465 Ry
     Harris-Foulkes estimate   =    -786.96208697 Ry
     estimated scf accuracy    <       0.00019185 Ry

     total magnetization       =     2.00 Bohr mag/cell
     absolute magnetization    =     3.34 Bohr mag/cell

     iteration # 31     ecut=    70.00 Ry     beta= 0.70
     Davidson diagonalization with overlap
     ethr =  6.97E-08,  avg # of iterations =  3.0

     negative rho (up, down):  2.496E-03 4.778E-03

     total cpu time spent up to now is     3196.6 secs

     total energy              =    -786.96200018 Ry
     Harris-Foulkes estimate   =    -786.96212931 Ry
     estimated scf accuracy    <       0.00016482 Ry

     total magnetization       =     2.00 Bohr mag/cell
     absolute magnetization    =     3.35 Bohr mag/cell

     iteration # 32     ecut=    70.00 Ry     beta= 0.70
     Davidson diagonalization with overlap
     ethr =  6.97E-08,  avg # of iterations =  4.0

     negative rho (up, down):  2.496E-03 5.143E-03

     total cpu time spent up to now is     3298.2 secs

     total energy              =    -786.96210693 Ry
     Harris-Foulkes estimate   =    -786.96209887 Ry
     estimated scf accuracy    <       0.00017076 Ry

     total magnetization       =     2.00 Bohr mag/cell
     absolute magnetization    =     3.34 Bohr mag/cell

     iteration # 33     ecut=    70.00 Ry     beta= 0.70
     Davidson diagonalization with overlap
     ethr =  6.97E-08,  avg # of iterations =  2.0

     negative rho (up, down):  2.496E-03 5.340E-03

     total cpu time spent up to now is     3389.0 secs

     total energy              =    -786.96211235 Ry
     Harris-Foulkes estimate   =    -786.96211333 Ry
     estimated scf accuracy    <       0.00015656 Ry

     total magnetization       =     2.00 Bohr mag/cell
     absolute magnetization    =     3.34 Bohr mag/cell

     iteration # 34     ecut=    70.00 Ry     beta= 0.70
     Davidson diagonalization with overlap
     ethr =  6.97E-08,  avg # of iterations =  1.0

     negative rho (up, down):  2.496E-03 5.458E-03

     total cpu time spent up to now is     3479.3 secs

     total energy              =    -786.96209955 Ry
     Harris-Foulkes estimate   =    -786.96211364 Ry
     estimated scf accuracy    <       0.00015654 Ry

     total magnetization       =     2.00 Bohr mag/cell
     absolute magnetization    =     3.34 Bohr mag/cell

     iteration # 35     ecut=    70.00 Ry     beta= 0.70
     Davidson diagonalization with overlap
     ethr =  6.97E-08,  avg # of iterations =  2.0

     negative rho (up, down):  2.496E-03 5.277E-03

     total cpu time spent up to now is     3572.0 secs

     total energy              =    -786.96212673 Ry
     Harris-Foulkes estimate   =    -786.96210454 Ry
     estimated scf accuracy    <       0.00014696 Ry

     total magnetization       =     2.00 Bohr mag/cell
     absolute magnetization    =     3.34 Bohr mag/cell

     iteration # 36     ecut=    70.00 Ry     beta= 0.70
     Davidson diagonalization with overlap
     ethr =  6.93E-08,  avg # of iterations =  2.0

     negative rho (up, down):  2.496E-03 5.112E-03

     total cpu time spent up to now is     3665.3 secs

     total energy              =    -786.96218209 Ry
     Harris-Foulkes estimate   =    -786.96213537 Ry
     estimated scf accuracy    <       0.00015501 Ry

     total magnetization       =     2.00 Bohr mag/cell
     absolute magnetization    =     3.34 Bohr mag/cell

     iteration # 37     ecut=    70.00 Ry     beta= 0.70
     Davidson diagonalization with overlap
     ethr =  6.93E-08,  avg # of iterations =  2.5

     negative rho (up, down):  2.496E-03 5.065E-03

     total cpu time spent up to now is     3757.9 secs

     total energy              =    -786.96231585 Ry
     Harris-Foulkes estimate   =    -786.96219046 Ry
     estimated scf accuracy    <       0.00018823 Ry

     total magnetization       =     2.00 Bohr mag/cell
     absolute magnetization    =     3.33 Bohr mag/cell

     iteration # 38     ecut=    70.00 Ry     beta= 0.70
     Davidson diagonalization with overlap
     ethr =  6.93E-08,  avg # of iterations =  3.0

     negative rho (up, down):  2.498E-03 5.699E-03

     total cpu time spent up to now is     3856.0 secs

     total energy              =    -786.96237137 Ry
     Harris-Foulkes estimate   =    -786.96236378 Ry
     estimated scf accuracy    <       0.00026863 Ry

     total magnetization       =     1.99 Bohr mag/cell
     absolute magnetization    =     3.33 Bohr mag/cell

     iteration # 39     ecut=    70.00 Ry     beta= 0.70
     Davidson diagonalization with overlap
     ethr =  6.93E-08,  avg # of iterations =  2.0

     negative rho (up, down):  2.498E-03 5.999E-03

     total cpu time spent up to now is     3947.0 secs

     total energy              =    -786.96228766 Ry
     Harris-Foulkes estimate   =    -786.96237299 Ry
     estimated scf accuracy    <       0.00026236 Ry

     total magnetization       =     1.99 Bohr mag/cell
     absolute magnetization    =     3.33 Bohr mag/cell

     iteration # 40     ecut=    70.00 Ry     beta= 0.70
     Davidson diagonalization with overlap
     ethr =  6.93E-08,  avg # of iterations =  2.0

     negative rho (up, down):  2.498E-03 5.871E-03

     total cpu time spent up to now is     4040.9 secs

     total energy              =    -786.96205946 Ry
     Harris-Foulkes estimate   =    -786.96230047 Ry
     estimated scf accuracy    <       0.00023781 Ry

     total magnetization       =     1.99 Bohr mag/cell
     absolute magnetization    =     3.33 Bohr mag/cell

     iteration # 41     ecut=    70.00 Ry     beta= 0.70
     Davidson diagonalization with overlap
     ethr =  6.93E-08,  avg # of iterations =  4.0

     negative rho (up, down):  2.499E-03 6.395E-03

     total cpu time spent up to now is     4144.8 secs

     total energy              =    -786.96221998 Ry
     Harris-Foulkes estimate   =    -786.96223596 Ry
     estimated scf accuracy    <       0.00024510 Ry

     total magnetization       =     2.00 Bohr mag/cell
     absolute magnetization    =     3.31 Bohr mag/cell

     iteration # 42     ecut=    70.00 Ry     beta= 0.70
     Davidson diagonalization with overlap
     ethr =  6.93E-08,  avg # of iterations =  3.0

     negative rho (up, down):  2.498E-03 7.002E-03

     total cpu time spent up to now is     4240.4 secs

     total energy              =    -786.96212151 Ry
     Harris-Foulkes estimate   =    -786.96223714 Ry
     estimated scf accuracy    <       0.00024643 Ry

     total magnetization       =     2.00 Bohr mag/cell
     absolute magnetization    =     3.31 Bohr mag/cell

     iteration # 43     ecut=    70.00 Ry     beta= 0.70
     Davidson diagonalization with overlap
     ethr =  6.93E-08,  avg # of iterations =  3.0

     negative rho (up, down):  2.497E-03 6.920E-03

     total cpu time spent up to now is     4336.2 secs

     total energy              =    -786.96187438 Ry
     Harris-Foulkes estimate   =    -786.96214450 Ry
     estimated scf accuracy    <       0.00021146 Ry

     total magnetization       =     2.00 Bohr mag/cell
     absolute magnetization    =     3.31 Bohr mag/cell

     iteration # 44     ecut=    70.00 Ry     beta= 0.70
     Davidson diagonalization with overlap
     ethr =  6.93E-08,  avg # of iterations =  4.0

     negative rho (up, down):  2.495E-03 5.436E-03

     total cpu time spent up to now is     4440.8 secs

     total energy              =    -786.96181990 Ry
     Harris-Foulkes estimate   =    -786.96200553 Ry
     estimated scf accuracy    <       0.00014292 Ry

     total magnetization       =     2.00 Bohr mag/cell
     absolute magnetization    =     3.31 Bohr mag/cell

     iteration # 45     ecut=    70.00 Ry     beta= 0.70
     Davidson diagonalization with overlap
     ethr =  6.74E-08,  avg # of iterations =  4.0

     negative rho (up, down):  2.495E-03 4.286E-03

     total cpu time spent up to now is     4543.8 secs

     total energy              =    -786.96190730 Ry
     Harris-Foulkes estimate   =    -786.96192516 Ry
     estimated scf accuracy    <       0.00005391 Ry

     total magnetization       =     2.00 Bohr mag/cell
     absolute magnetization    =     3.30 Bohr mag/cell

     iteration # 46     ecut=    70.00 Ry     beta= 0.70
     Davidson diagonalization with overlap
     ethr =  2.54E-08,  avg # of iterations =  3.0

     negative rho (up, down):  2.496E-03 3.966E-03

     total cpu time spent up to now is     4644.9 secs

     total energy              =    -786.96194710 Ry
     Harris-Foulkes estimate   =    -786.96192950 Ry
     estimated scf accuracy    <       0.00003092 Ry

     total magnetization       =     2.00 Bohr mag/cell
     absolute magnetization    =     3.30 Bohr mag/cell

     iteration # 47     ecut=    70.00 Ry     beta= 0.70
     Davidson diagonalization with overlap
     ethr =  1.46E-08,  avg # of iterations =  3.5

     negative rho (up, down):  2.497E-03 3.872E-03

     total cpu time spent up to now is     4744.8 secs

     total energy              =    -786.96198358 Ry
     Harris-Foulkes estimate   =    -786.96195761 Ry
     estimated scf accuracy    <       0.00002382 Ry

     total magnetization       =     2.00 Bohr mag/cell
     absolute magnetization    =     3.29 Bohr mag/cell

     iteration # 48     ecut=    70.00 Ry     beta= 0.70
     Davidson diagonalization with overlap
     ethr =  1.12E-08,  avg # of iterations =  3.5

     negative rho (up, down):  2.500E-03 3.811E-03

     total cpu time spent up to now is     4846.6 secs

     total energy              =    -786.96200996 Ry
     Harris-Foulkes estimate   =    -786.96199860 Ry
     estimated scf accuracy    <       0.00002780 Ry

     total magnetization       =     1.99 Bohr mag/cell
     absolute magnetization    =     3.28 Bohr mag/cell

     iteration # 49     ecut=    70.00 Ry     beta= 0.70
     Davidson diagonalization with overlap
     ethr =  1.12E-08,  avg # of iterations =  2.5

     negative rho (up, down):  2.501E-03 3.842E-03

     total cpu time spent up to now is     4940.8 secs

     total energy              =    -786.96199072 Ry
     Harris-Foulkes estimate   =    -786.96201264 Ry
     estimated scf accuracy    <       0.00002842 Ry

     total magnetization       =     1.99 Bohr mag/cell
     absolute magnetization    =     3.28 Bohr mag/cell

     iteration # 50     ecut=    70.00 Ry     beta= 0.70
     Davidson diagonalization with overlap
     ethr =  1.12E-08,  avg # of iterations =  3.0

     negative rho (up, down):  2.501E-03 3.932E-03

     total cpu time spent up to now is     5037.5 secs

     total energy              =    -786.96196840 Ry
     Harris-Foulkes estimate   =    -786.96199559 Ry
     estimated scf accuracy    <       0.00003073 Ry

     total magnetization       =     2.00 Bohr mag/cell
     absolute magnetization    =     3.28 Bohr mag/cell

     iteration # 51     ecut=    70.00 Ry     beta= 0.70
     Davidson diagonalization with overlap
     ethr =  1.12E-08,  avg # of iterations =  3.0

     negative rho (up, down):  2.502E-03 4.284E-03

     total cpu time spent up to now is     5141.4 secs

     total energy              =    -786.96199311 Ry
     Harris-Foulkes estimate   =    -786.96199553 Ry
     estimated scf accuracy    <       0.00002897 Ry

     total magnetization       =     2.00 Bohr mag/cell
     absolute magnetization    =     3.27 Bohr mag/cell

     iteration # 52     ecut=    70.00 Ry     beta= 0.70
     Davidson diagonalization with overlap
     ethr =  1.12E-08,  avg # of iterations =  3.0

     negative rho (up, down):  2.502E-03 4.557E-03

     total cpu time spent up to now is     5240.7 secs

     total energy              =    -786.96200567 Ry
     Harris-Foulkes estimate   =    -786.96200065 Ry
     estimated scf accuracy    <       0.00002768 Ry

     total magnetization       =     2.00 Bohr mag/cell
     absolute magnetization    =     3.27 Bohr mag/cell

     iteration # 53     ecut=    70.00 Ry     beta= 0.70
     Davidson diagonalization with overlap
     ethr =  1.12E-08,  avg # of iterations =  2.5

     negative rho (up, down):  2.503E-03 4.801E-03

     total cpu time spent up to now is     5336.4 secs

     total energy              =    -786.96199785 Ry
     Harris-Foulkes estimate   =    -786.96200927 Ry
     estimated scf accuracy    <       0.00002693 Ry

     total magnetization       =     2.00 Bohr mag/cell
     absolute magnetization    =     3.27 Bohr mag/cell

     iteration # 54     ecut=    70.00 Ry     beta= 0.70
     Davidson diagonalization with overlap
     ethr =  1.12E-08,  avg # of iterations =  2.5

     negative rho (up, down):  2.502E-03 4.812E-03

     total cpu time spent up to now is     5431.1 secs

     total energy              =    -786.96197408 Ry
     Harris-Foulkes estimate   =    -786.96199988 Ry
     estimated scf accuracy    <       0.00002733 Ry

     total magnetization       =     2.00 Bohr mag/cell
     absolute magnetization    =     3.27 Bohr mag/cell

     iteration # 55     ecut=    70.00 Ry     beta= 0.70
     Davidson diagonalization with overlap
     ethr =  1.12E-08,  avg # of iterations =  3.0

     negative rho (up, down):  2.502E-03 4.530E-03

     total cpu time spent up to now is     5531.8 secs

     total energy              =    -786.96197312 Ry
     Harris-Foulkes estimate   =    -786.96198524 Ry
     estimated scf accuracy    <       0.00002018 Ry

     total magnetization       =     2.00 Bohr mag/cell
     absolute magnetization    =     3.26 Bohr mag/cell

     iteration # 56     ecut=    70.00 Ry     beta= 0.70
     Davidson diagonalization with overlap
     ethr =  9.52E-09,  avg # of iterations =  2.5

     negative rho (up, down):  2.501E-03 4.386E-03

     total cpu time spent up to now is     5626.4 secs

     total energy              =    -786.96198387 Ry
     Harris-Foulkes estimate   =    -786.96197552 Ry
     estimated scf accuracy    <       0.00001693 Ry

     total magnetization       =     2.00 Bohr mag/cell
     absolute magnetization    =     3.27 Bohr mag/cell

     iteration # 57     ecut=    70.00 Ry     beta= 0.70
     Davidson diagonalization with overlap
     ethr =  7.99E-09,  avg # of iterations =  2.5

     negative rho (up, down):  2.501E-03 4.366E-03

     total cpu time spent up to now is     5722.7 secs

     total energy              =    -786.96200311 Ry
     Harris-Foulkes estimate   =    -786.96198649 Ry
     estimated scf accuracy    <       0.00001719 Ry

     total magnetization       =     2.00 Bohr mag/cell
     absolute magnetization    =     3.27 Bohr mag/cell

     iteration # 58     ecut=    70.00 Ry     beta= 0.70
     Davidson diagonalization with overlap
     ethr =  7.99E-09,  avg # of iterations =  3.5

     negative rho (up, down):  2.503E-03 4.405E-03

     total cpu time spent up to now is     5821.9 secs

     total energy              =    -786.96200770 Ry
     Harris-Foulkes estimate   =    -786.96201125 Ry
     estimated scf accuracy    <       0.00002359 Ry

     total magnetization       =     2.00 Bohr mag/cell
     absolute magnetization    =     3.27 Bohr mag/cell

     iteration # 59     ecut=    70.00 Ry     beta= 0.70
     Davidson diagonalization with overlap
     ethr =  7.99E-09,  avg # of iterations =  2.0

     negative rho (up, down):  2.503E-03 4.451E-03

     total cpu time spent up to now is     5913.9 secs

     total energy              =    -786.96198695 Ry
     Harris-Foulkes estimate   =    -786.96200795 Ry
     estimated scf accuracy    <       0.00002370 Ry

     total magnetization       =     2.00 Bohr mag/cell
     absolute magnetization    =     3.27 Bohr mag/cell

     iteration # 60     ecut=    70.00 Ry     beta= 0.70
     Davidson diagonalization with overlap
     ethr =  7.99E-09,  avg # of iterations =  3.0

     negative rho (up, down):  2.503E-03 4.449E-03

     total cpu time spent up to now is     6011.9 secs

     total energy              =    -786.96198178 Ry
     Harris-Foulkes estimate   =    -786.96199221 Ry
     estimated scf accuracy    <       0.00002060 Ry

     total magnetization       =     2.00 Bohr mag/cell
     absolute magnetization    =     3.26 Bohr mag/cell

     iteration # 61     ecut=    70.00 Ry     beta= 0.70
     Davidson diagonalization with overlap
     ethr =  7.99E-09,  avg # of iterations =  3.0

     negative rho (up, down):  2.502E-03 4.502E-03

     total cpu time spent up to now is     6109.8 secs

     total energy              =    -786.96199074 Ry
     Harris-Foulkes estimate   =    -786.96198717 Ry
     estimated scf accuracy    <       0.00001742 Ry

     total magnetization       =     2.00 Bohr mag/cell
     absolute magnetization    =     3.26 Bohr mag/cell

     iteration # 62     ecut=    70.00 Ry     beta= 0.70
     Davidson diagonalization with overlap
     ethr =  7.99E-09,  avg # of iterations =  3.5

     negative rho (up, down):  2.503E-03 4.628E-03

     total cpu time spent up to now is     6209.9 secs

     total energy              =    -786.96200658 Ry
     Harris-Foulkes estimate   =    -786.96199717 Ry
     estimated scf accuracy    <       0.00001305 Ry

     total magnetization       =     2.00 Bohr mag/cell
     absolute magnetization    =     3.26 Bohr mag/cell

     iteration # 63     ecut=    70.00 Ry     beta= 0.70
     Davidson diagonalization with overlap
     ethr =  6.16E-09,  avg # of iterations =  3.0

     negative rho (up, down):  2.504E-03 4.759E-03

     total cpu time spent up to now is     6309.8 secs

     total energy              =    -786.96201339 Ry
     Harris-Foulkes estimate   =    -786.96201135 Ry
     estimated scf accuracy    <       0.00001531 Ry

     total magnetization       =     2.00 Bohr mag/cell
     absolute magnetization    =     3.26 Bohr mag/cell

     iteration # 64     ecut=    70.00 Ry     beta= 0.70
     Davidson diagonalization with overlap
     ethr =  6.16E-09,  avg # of iterations =  3.0

     negative rho (up, down):  2.504E-03 4.888E-03

     total cpu time spent up to now is     6408.2 secs

     total energy              =    -786.96200803 Ry
     Harris-Foulkes estimate   =    -786.96201621 Ry
     estimated scf accuracy    <       0.00001645 Ry

     total magnetization       =     2.00 Bohr mag/cell
     absolute magnetization    =     3.26 Bohr mag/cell

     iteration # 65     ecut=    70.00 Ry     beta= 0.70
     Davidson diagonalization with overlap
     ethr =  6.16E-09,  avg # of iterations =  2.5

     negative rho (up, down):  2.504E-03 4.846E-03

     total cpu time spent up to now is     6503.9 secs

     total energy              =    -786.96200222 Ry
     Harris-Foulkes estimate   =    -786.96200935 Ry
     estimated scf accuracy    <       0.00001640 Ry

     total magnetization       =     2.00 Bohr mag/cell
     absolute magnetization    =     3.26 Bohr mag/cell

     iteration # 66     ecut=    70.00 Ry     beta= 0.70
     Davidson diagonalization with overlap
     ethr =  6.16E-09,  avg # of iterations =  2.5

     negative rho (up, down):  2.504E-03 4.764E-03

     total cpu time spent up to now is     6601.9 secs

     total energy              =    -786.96200387 Ry
     Harris-Foulkes estimate   =    -786.96200421 Ry
     estimated scf accuracy    <       0.00001374 Ry

     total magnetization       =     2.00 Bohr mag/cell
     absolute magnetization    =     3.26 Bohr mag/cell

     iteration # 67     ecut=    70.00 Ry     beta= 0.70
     Davidson diagonalization with overlap
     ethr =  6.16E-09,  avg # of iterations =  3.0

     negative rho (up, down):  2.504E-03 4.701E-03

     total cpu time spent up to now is     6696.9 secs

     total energy              =    -786.96198025 Ry
     Harris-Foulkes estimate   =    -786.96200542 Ry
     estimated scf accuracy    <       0.00001530 Ry

     total magnetization       =     2.00 Bohr mag/cell
     absolute magnetization    =     3.26 Bohr mag/cell

     iteration # 68     ecut=    70.00 Ry     beta= 0.70
     Davidson diagonalization with overlap
     ethr =  6.16E-09,  avg # of iterations =  4.0

     negative rho (up, down):  2.504E-03 4.327E-03

     total cpu time spent up to now is     6800.2 secs

     total energy              =    -786.96199645 Ry
     Harris-Foulkes estimate   =    -786.96199522 Ry
     estimated scf accuracy    <       0.00001051 Ry

     total magnetization       =     2.00 Bohr mag/cell
     absolute magnetization    =     3.25 Bohr mag/cell

     iteration # 69     ecut=    70.00 Ry     beta= 0.70
     Davidson diagonalization with overlap
     ethr =  4.96E-09,  avg # of iterations =  4.0

     negative rho (up, down):  2.505E-03 4.112E-03

     total cpu time spent up to now is     6905.8 secs

     total energy              =    -786.96201674 Ry
     Harris-Foulkes estimate   =    -786.96200993 Ry
     estimated scf accuracy    <       0.00000800 Ry

     total magnetization       =     2.00 Bohr mag/cell
     absolute magnetization    =     3.25 Bohr mag/cell

     iteration # 70     ecut=    70.00 Ry     beta= 0.70
     Davidson diagonalization with overlap
     ethr =  3.77E-09,  avg # of iterations =  3.5

     negative rho (up, down):  2.507E-03 4.099E-03

     total cpu time spent up to now is     7009.6 secs

     total energy              =    -786.96200437 Ry
     Harris-Foulkes estimate   =    -786.96202269 Ry
     estimated scf accuracy    <       0.00001036 Ry

     total magnetization       =     2.00 Bohr mag/cell
     absolute magnetization    =     3.25 Bohr mag/cell

     iteration # 71     ecut=    70.00 Ry     beta= 0.70
     Davidson diagonalization with overlap
     ethr =  3.77E-09,  avg # of iterations =  3.5

     negative rho (up, down):  2.506E-03 4.035E-03

     total cpu time spent up to now is     7115.2 secs

     total energy              =    -786.96201649 Ry
     Harris-Foulkes estimate   =    -786.96201175 Ry
     estimated scf accuracy    <       0.00000892 Ry

     total magnetization       =     2.00 Bohr mag/cell
     absolute magnetization    =     3.26 Bohr mag/cell

     iteration # 72     ecut=    70.00 Ry     beta= 0.70
     Davidson diagonalization with overlap
     ethr =  3.77E-09,  avg # of iterations =  4.0

     negative rho (up, down):  2.508E-03 4.044E-03

     total cpu time spent up to now is     7220.9 secs

     total energy              =    -786.96203097 Ry
     Harris-Foulkes estimate   =    -786.96202913 Ry
     estimated scf accuracy    <       0.00000603 Ry

     total magnetization       =     2.00 Bohr mag/cell
     absolute magnetization    =     3.26 Bohr mag/cell

     iteration # 73     ecut=    70.00 Ry     beta= 0.70
     Davidson diagonalization with overlap
     ethr =  2.84E-09,  avg # of iterations =  2.0

     negative rho (up, down):  2.509E-03 4.074E-03

     total cpu time spent up to now is     7312.4 secs

     total energy              =    -786.96202604 Ry
     Harris-Foulkes estimate   =    -786.96203112 Ry
     estimated scf accuracy    <       0.00000604 Ry

     total magnetization       =     2.00 Bohr mag/cell
     absolute magnetization    =     3.26 Bohr mag/cell

     iteration # 74     ecut=    70.00 Ry     beta= 0.70
     Davidson diagonalization with overlap
     ethr =  2.84E-09,  avg # of iterations =  2.5

     negative rho (up, down):  2.509E-03 4.031E-03

     total cpu time spent up to now is     7407.3 secs

     total energy              =    -786.96202586 Ry
     Harris-Foulkes estimate   =    -786.96202684 Ry
     estimated scf accuracy    <       0.00000581 Ry

     total magnetization       =     2.00 Bohr mag/cell
     absolute magnetization    =     3.26 Bohr mag/cell

     iteration # 75     ecut=    70.00 Ry     beta= 0.70
     Davidson diagonalization with overlap
     ethr =  2.74E-09,  avg # of iterations =  2.0

     negative rho (up, down):  2.508E-03 4.009E-03

     total cpu time spent up to now is     7500.5 secs

     total energy              =    -786.96203237 Ry
     Harris-Foulkes estimate   =    -786.96202625 Ry
     estimated scf accuracy    <       0.00000608 Ry

     total magnetization       =     2.00 Bohr mag/cell
     absolute magnetization    =     3.26 Bohr mag/cell

     iteration # 76     ecut=    70.00 Ry     beta= 0.70
     Davidson diagonalization with overlap
     ethr =  2.74E-09,  avg # of iterations =  3.5

     negative rho (up, down):  2.509E-03 4.021E-03

     total cpu time spent up to now is     7601.9 secs

     total energy              =    -786.96203222 Ry
     Harris-Foulkes estimate   =    -786.96203528 Ry
     estimated scf accuracy    <       0.00000649 Ry

     total magnetization       =     2.00 Bohr mag/cell
     absolute magnetization    =     3.26 Bohr mag/cell

     iteration # 77     ecut=    70.00 Ry     beta= 0.70
     Davidson diagonalization with overlap
     ethr =  2.74E-09,  avg # of iterations =  3.0

     negative rho (up, down):  2.509E-03 3.973E-03

     total cpu time spent up to now is     7699.9 secs

     total energy              =    -786.96203549 Ry
     Harris-Foulkes estimate   =    -786.96203353 Ry
     estimated scf accuracy    <       0.00000663 Ry

     total magnetization       =     2.00 Bohr mag/cell
     absolute magnetization    =     3.26 Bohr mag/cell

     iteration # 78     ecut=    70.00 Ry     beta= 0.70
     Davidson diagonalization with overlap
     ethr =  2.74E-09,  avg # of iterations =  2.5

     negative rho (up, down):  2.510E-03 4.008E-03

     total cpu time spent up to now is     7795.5 secs

     total energy              =    -786.96203732 Ry
     Harris-Foulkes estimate   =    -786.96203644 Ry
     estimated scf accuracy    <       0.00000568 Ry

     total magnetization       =     2.00 Bohr mag/cell
     absolute magnetization    =     3.27 Bohr mag/cell

     iteration # 79     ecut=    70.00 Ry     beta= 0.70
     Davidson diagonalization with overlap
     ethr =  2.68E-09,  avg # of iterations =  2.0

     negative rho (up, down):  2.510E-03 4.063E-03

     total cpu time spent up to now is     7889.8 secs

     total energy              =    -786.96204072 Ry
     Harris-Foulkes estimate   =    -786.96203772 Ry
     estimated scf accuracy    <       0.00000574 Ry

     total magnetization       =     2.00 Bohr mag/cell
     absolute magnetization    =     3.27 Bohr mag/cell

     iteration # 80     ecut=    70.00 Ry     beta= 0.70
     Davidson diagonalization with overlap
     ethr =  2.68E-09,  avg # of iterations =  2.5

     negative rho (up, down):  2.510E-03 4.118E-03

     total cpu time spent up to now is     7983.4 secs

     total energy              =    -786.96204211 Ry
     Harris-Foulkes estimate   =    -786.96204127 Ry
     estimated scf accuracy    <       0.00000679 Ry

     total magnetization       =     2.00 Bohr mag/cell
     absolute magnetization    =     3.27 Bohr mag/cell

     iteration # 81     ecut=    70.00 Ry     beta= 0.70
     Davidson diagonalization with overlap
     ethr =  2.68E-09,  avg # of iterations =  3.0

     negative rho (up, down):  2.510E-03 4.202E-03

     total cpu time spent up to now is     8084.2 secs

     total energy              =    -786.96203857 Ry
     Harris-Foulkes estimate   =    -786.96204461 Ry
     estimated scf accuracy    <       0.00000716 Ry

     total magnetization       =     2.00 Bohr mag/cell
     absolute magnetization    =     3.27 Bohr mag/cell

     iteration # 82     ecut=    70.00 Ry     beta= 0.70
     Davidson diagonalization with overlap
     ethr =  2.68E-09,  avg # of iterations =  3.5

     negative rho (up, down):  2.510E-03 4.152E-03

     total cpu time spent up to now is     8186.5 secs

     total energy              =    -786.96203935 Ry
     Harris-Foulkes estimate   =    -786.96204154 Ry
     estimated scf accuracy    <       0.00000672 Ry

     total magnetization       =     2.00 Bohr mag/cell
     absolute magnetization    =     3.27 Bohr mag/cell

     iteration # 83     ecut=    70.00 Ry     beta= 0.70
     Davidson diagonalization with overlap
     ethr =  2.68E-09,  avg # of iterations =  2.5

     negative rho (up, down):  2.510E-03 4.136E-03

     total cpu time spent up to now is     8281.2 secs

     total energy              =    -786.96203841 Ry
     Harris-Foulkes estimate   =    -786.96203992 Ry
     estimated scf accuracy    <       0.00000644 Ry

     total magnetization       =     2.00 Bohr mag/cell
     absolute magnetization    =     3.27 Bohr mag/cell

     iteration # 84     ecut=    70.00 Ry     beta= 0.70
     Davidson diagonalization with overlap
     ethr =  2.68E-09,  avg # of iterations =  2.5

     negative rho (up, down):  2.510E-03 4.112E-03

     total cpu time spent up to now is     8373.3 secs

     total energy              =    -786.96203704 Ry
     Harris-Foulkes estimate   =    -786.96203880 Ry
     estimated scf accuracy    <       0.00000562 Ry

     total magnetization       =     2.00 Bohr mag/cell
     absolute magnetization    =     3.27 Bohr mag/cell

     iteration # 85     ecut=    70.00 Ry     beta= 0.70
     Davidson diagonalization with overlap
     ethr =  2.65E-09,  avg # of iterations =  3.0

     negative rho (up, down):  2.510E-03 4.077E-03

     total cpu time spent up to now is     8470.8 secs

     total energy              =    -786.96204128 Ry
     Harris-Foulkes estimate   =    -786.96203782 Ry
     estimated scf accuracy    <       0.00000461 Ry

     total magnetization       =     2.00 Bohr mag/cell
     absolute magnetization    =     3.27 Bohr mag/cell

     iteration # 86     ecut=    70.00 Ry     beta= 0.70
     Davidson diagonalization with overlap
     ethr =  2.17E-09,  avg # of iterations =  3.0

     negative rho (up, down):  2.510E-03 4.078E-03

     total cpu time spent up to now is     8569.2 secs

     total energy              =    -786.96204502 Ry
     Harris-Foulkes estimate   =    -786.96204269 Ry
     estimated scf accuracy    <       0.00000536 Ry

     total magnetization       =     2.00 Bohr mag/cell
     absolute magnetization    =     3.27 Bohr mag/cell

     iteration # 87     ecut=    70.00 Ry     beta= 0.70
     Davidson diagonalization with overlap
     ethr =  2.17E-09,  avg # of iterations =  2.5

     negative rho (up, down):  2.510E-03 4.110E-03

     total cpu time spent up to now is     8664.6 secs

     total energy              =    -786.96205052 Ry
     Harris-Foulkes estimate   =    -786.96204602 Ry
     estimated scf accuracy    <       0.00000495 Ry

     total magnetization       =     2.00 Bohr mag/cell
     absolute magnetization    =     3.27 Bohr mag/cell

     iteration # 88     ecut=    70.00 Ry     beta= 0.70
     Davidson diagonalization with overlap
     ethr =  2.17E-09,  avg # of iterations =  3.5

     negative rho (up, down):  2.511E-03 4.195E-03

     total cpu time spent up to now is     8766.5 secs

     total energy              =    -786.96205827 Ry
     Harris-Foulkes estimate   =    -786.96205309 Ry
     estimated scf accuracy    <       0.00000447 Ry

     total magnetization       =     2.00 Bohr mag/cell
     absolute magnetization    =     3.28 Bohr mag/cell

     iteration # 89     ecut=    70.00 Ry     beta= 0.70
     Davidson diagonalization with overlap
     ethr =  2.11E-09,  avg # of iterations =  3.5

     negative rho (up, down):  2.512E-03 4.268E-03

     total cpu time spent up to now is     8867.4 secs

     total energy              =    -786.96205786 Ry
     Harris-Foulkes estimate   =    -786.96206074 Ry
     estimated scf accuracy    <       0.00000470 Ry

     total magnetization       =     2.00 Bohr mag/cell
     absolute magnetization    =     3.28 Bohr mag/cell

     iteration # 90     ecut=    70.00 Ry     beta= 0.70
     Davidson diagonalization with overlap
     ethr =  2.11E-09,  avg # of iterations =  2.0

     negative rho (up, down):  2.512E-03 4.271E-03

     total cpu time spent up to now is     8960.5 secs

     total energy              =    -786.96205067 Ry
     Harris-Foulkes estimate   =    -786.96205819 Ry
     estimated scf accuracy    <       0.00000486 Ry

     total magnetization       =     2.00 Bohr mag/cell
     absolute magnetization    =     3.28 Bohr mag/cell

     iteration # 91     ecut=    70.00 Ry     beta= 0.70
     Davidson diagonalization with overlap
     ethr =  2.11E-09,  avg # of iterations =  3.0

     negative rho (up, down):  2.512E-03 4.252E-03

     total cpu time spent up to now is     9059.2 secs

     total energy              =    -786.96205147 Ry
     Harris-Foulkes estimate   =    -786.96205231 Ry
     estimated scf accuracy    <       0.00000451 Ry

     total magnetization       =     2.00 Bohr mag/cell
     absolute magnetization    =     3.28 Bohr mag/cell

     iteration # 92     ecut=    70.00 Ry     beta= 0.70
     Davidson diagonalization with overlap
     ethr =  2.11E-09,  avg # of iterations =  2.0

     negative rho (up, down):  2.512E-03 4.237E-03

     total cpu time spent up to now is     9151.0 secs

     total energy              =    -786.96205169 Ry
     Harris-Foulkes estimate   =    -786.96205194 Ry
     estimated scf accuracy    <       0.00000488 Ry

     total magnetization       =     2.00 Bohr mag/cell
     absolute magnetization    =     3.28 Bohr mag/cell

     iteration # 93     ecut=    70.00 Ry     beta= 0.70
     Davidson diagonalization with overlap
     ethr =  2.11E-09,  avg # of iterations =  1.5

     negative rho (up, down):  2.512E-03 4.222E-03

     total cpu time spent up to now is     9241.4 secs

     total energy              =    -786.96205023 Ry
     Harris-Foulkes estimate   =    -786.96205173 Ry
     estimated scf accuracy    <       0.00000475 Ry

     total magnetization       =     2.00 Bohr mag/cell
     absolute magnetization    =     3.28 Bohr mag/cell

     iteration # 94     ecut=    70.00 Ry     beta= 0.70
     Davidson diagonalization with overlap
     ethr =  2.11E-09,  avg # of iterations =  2.0

     negative rho (up, down):  2.511E-03 4.219E-03

     total cpu time spent up to now is     9332.4 secs

     total energy              =    -786.96205204 Ry
     Harris-Foulkes estimate   =    -786.96205033 Ry
     estimated scf accuracy    <       0.00000470 Ry

     total magnetization       =     2.00 Bohr mag/cell
     absolute magnetization    =     3.28 Bohr mag/cell

     iteration # 95     ecut=    70.00 Ry     beta= 0.70
     Davidson diagonalization with overlap
     ethr =  2.11E-09,  avg # of iterations =  3.0

     negative rho (up, down):  2.511E-03 4.213E-03

     total cpu time spent up to now is     9428.2 secs

     total energy              =    -786.96205220 Ry
     Harris-Foulkes estimate   =    -786.96205258 Ry
     estimated scf accuracy    <       0.00000524 Ry

     total magnetization       =     2.00 Bohr mag/cell
     absolute magnetization    =     3.28 Bohr mag/cell

     iteration # 96     ecut=    70.00 Ry     beta= 0.70
     Davidson diagonalization with overlap
     ethr =  2.11E-09,  avg # of iterations =  2.0

     negative rho (up, down):  2.511E-03 4.210E-03

     total cpu time spent up to now is     9520.8 secs

     total energy              =    -786.96205628 Ry
     Harris-Foulkes estimate   =    -786.96205264 Ry
     estimated scf accuracy    <       0.00000617 Ry

     total magnetization       =     2.00 Bohr mag/cell
     absolute magnetization    =     3.28 Bohr mag/cell

     iteration # 97     ecut=    70.00 Ry     beta= 0.70
     Davidson diagonalization with overlap
     ethr =  2.11E-09,  avg # of iterations =  3.0

     negative rho (up, down):  2.512E-03 4.271E-03

     total cpu time spent up to now is     9618.6 secs

     total energy              =    -786.96205739 Ry
     Harris-Foulkes estimate   =    -786.96205763 Ry
     estimated scf accuracy    <       0.00000707 Ry

     total magnetization       =     2.00 Bohr mag/cell
     absolute magnetization    =     3.28 Bohr mag/cell

     iteration # 98     ecut=    70.00 Ry     beta= 0.70
     Davidson diagonalization with overlap
     ethr =  2.11E-09,  avg # of iterations =  3.0

     negative rho (up, down):  2.512E-03 4.300E-03

     total cpu time spent up to now is     9715.6 secs

     total energy              =    -786.96205828 Ry
     Harris-Foulkes estimate   =    -786.96205806 Ry
     estimated scf accuracy    <       0.00000812 Ry

     total magnetization       =     2.00 Bohr mag/cell
     absolute magnetization    =     3.28 Bohr mag/cell

     iteration # 99     ecut=    70.00 Ry     beta= 0.70
     Davidson diagonalization with overlap
     ethr =  2.11E-09,  avg # of iterations =  3.0

     negative rho (up, down):  2.512E-03 4.297E-03

     total cpu time spent up to now is     9813.4 secs

     total energy              =    -786.96205942 Ry
     Harris-Foulkes estimate   =    -786.96205910 Ry
     estimated scf accuracy    <       0.00000771 Ry

     total magnetization       =     2.00 Bohr mag/cell
     absolute magnetization    =     3.28 Bohr mag/cell

     iteration #100     ecut=    70.00 Ry     beta= 0.70
     Davidson diagonalization with overlap
     ethr =  2.11E-09,  avg # of iterations =  3.0

     negative rho (up, down):  2.513E-03 4.296E-03

     Magnetic moment per site:
     atom:    1    charge:    0.2114    magn:   -0.0000    constr:    0.0000
     atom:    2    charge:    0.2112    magn:    0.0000    constr:    0.0000
     atom:    3    charge:    1.7169    magn:   -0.0133    constr:    0.0000
     atom:    4    charge:    1.7159    magn:    0.0185    constr:    0.0000
     atom:    5    charge:    1.7177    magn:   -0.0096    constr:    0.0000
     atom:    6    charge:    1.7142    magn:    0.0061    constr:    0.0000
     atom:    7    charge:    1.7177    magn:   -0.0096    constr:    0.0000
     atom:    8    charge:    1.7159    magn:    0.0185    constr:    0.0000
     atom:    9    charge:    1.7169    magn:   -0.0133    constr:    0.0000
     atom:   10    charge:    1.7162    magn:    0.0604    constr:    0.0000
     atom:   11    charge:    1.7172    magn:   -0.0187    constr:    0.0000
     atom:   12    charge:    1.7163    magn:    0.0604    constr:    0.0000
     atom:   13    charge:    1.7173    magn:   -0.0187    constr:    0.0000
     atom:   14    charge:    1.7165    magn:    0.0479    constr:    0.0000
     atom:   15    charge:    1.7146    magn:   -0.0159    constr:    0.0000
     atom:   16    charge:    1.7142    magn:    0.0610    constr:    0.0000
     atom:   17    charge:    1.7244    magn:   -0.0137    constr:    0.0000
     atom:   18    charge:    1.7142    magn:    0.0610    constr:    0.0000
     atom:   19    charge:    1.7146    magn:   -0.0159    constr:    0.0000
     atom:   20    charge:    1.7165    magn:    0.0479    constr:    0.0000
     atom:   21    charge:    1.7173    magn:   -0.0187    constr:    0.0000
     atom:   22    charge:    1.7163    magn:    0.0604    constr:    0.0000
     atom:   23    charge:    1.7169    magn:   -0.0133    constr:    0.0000
     atom:   24    charge:    1.7159    magn:    0.0185    constr:    0.0000
     atom:   25    charge:    1.7146    magn:   -0.0159    constr:    0.0000
     atom:   26    charge:    1.7142    magn:    0.0609    constr:    0.0000
     atom:   27    charge:    1.8998    magn:   -0.0147    constr:    0.0000
     atom:   28    charge:    8.9307    magn:    0.3095    constr:    0.0000
     atom:   29    charge:    1.8998    magn:   -0.0146    constr:    0.0000
     atom:   30    charge:    1.7142    magn:    0.0610    constr:    0.0000
     atom:   31    charge:    1.7146    magn:   -0.0159    constr:    0.0000
     atom:   32    charge:    1.7159    magn:    0.0185    constr:    0.0000
     atom:   33    charge:    1.7177    magn:   -0.0096    constr:    0.0000
     atom:   34    charge:    1.7145    magn:    0.0131    constr:    0.0000
     atom:   35    charge:    1.7177    magn:   -0.0096    constr:    0.0000
     atom:   36    charge:    1.7142    magn:    0.0061    constr:    0.0000
     atom:   37    charge:    1.7244    magn:   -0.0137    constr:    0.0000
     atom:   38    charge:    1.7143    magn:    0.0609    constr:    0.0000
     atom:   39    charge:    1.8999    magn:   -0.0146    constr:    0.0000
     atom:   40    charge:    1.7143    magn:    0.0609    constr:    0.0000
     atom:   41    charge:    1.7245    magn:   -0.0137    constr:    0.0000
     atom:   42    charge:    1.7143    magn:    0.0061    constr:    0.0000
     atom:   43    charge:    1.7177    magn:   -0.0096    constr:    0.0000
     atom:   44    charge:    1.7145    magn:    0.0131    constr:    0.0000
     atom:   45    charge:    1.7231    magn:   -0.0060    constr:    0.0000
     atom:   46    charge:    1.7145    magn:    0.0131    constr:    0.0000
     atom:   47    charge:    1.7177    magn:   -0.0096    constr:    0.0000
     atom:   48    charge:    1.7159    magn:    0.0185    constr:    0.0000
     atom:   49    charge:    1.7146    magn:   -0.0159    constr:    0.0000
     atom:   50    charge:    1.7165    magn:    0.0479    constr:    0.0000
     atom:   51    charge:    1.7146    magn:   -0.0159    constr:    0.0000
     atom:   52    charge:    1.7159    magn:    0.0185    constr:    0.0000

     total cpu time spent up to now is     9910.1 secs

     total energy              =    -786.96205800 Ry
     Harris-Foulkes estimate   =    -786.96206002 Ry
     estimated scf accuracy    <       0.00000857 Ry

     total magnetization       =     2.00 Bohr mag/cell
     absolute magnetization    =     3.28 Bohr mag/cell

     iteration #101     ecut=    70.00 Ry     beta= 0.70
     Davidson diagonalization with overlap
     ethr =  2.11E-09,  avg # of iterations =  3.0

     negative rho (up, down):  2.513E-03 4.270E-03

     total cpu time spent up to now is    10006.1 secs

     total energy              =    -786.96206042 Ry
     Harris-Foulkes estimate   =    -786.96205887 Ry
     estimated scf accuracy    <       0.00000591 Ry

     total magnetization       =     2.00 Bohr mag/cell
     absolute magnetization    =     3.28 Bohr mag/cell

     iteration #102     ecut=    70.00 Ry     beta= 0.70
     Davidson diagonalization with overlap
     ethr =  2.11E-09,  avg # of iterations =  3.0

     negative rho (up, down):  2.513E-03 4.296E-03

     total cpu time spent up to now is    10102.2 secs

     total energy              =    -786.96205905 Ry
     Harris-Foulkes estimate   =    -786.96206151 Ry
     estimated scf accuracy    <       0.00000734 Ry

     total magnetization       =     2.00 Bohr mag/cell
     absolute magnetization    =     3.28 Bohr mag/cell

     iteration #103     ecut=    70.00 Ry     beta= 0.70
     Davidson diagonalization with overlap
     ethr =  2.11E-09,  avg # of iterations =  3.0

     negative rho (up, down):  2.513E-03 4.296E-03

     total cpu time spent up to now is    10201.5 secs

     total energy              =    -786.96206001 Ry
     Harris-Foulkes estimate   =    -786.96205958 Ry
     estimated scf accuracy    <       0.00000698 Ry

     total magnetization       =     2.00 Bohr mag/cell
     absolute magnetization    =     3.28 Bohr mag/cell

     iteration #104     ecut=    70.00 Ry     beta= 0.70
     Davidson diagonalization with overlap
     ethr =  2.11E-09,  avg # of iterations =  1.0

     negative rho (up, down):  2.512E-03 4.306E-03

     total cpu time spent up to now is    10292.6 secs

     total energy              =    -786.96206408 Ry
     Harris-Foulkes estimate   =    -786.96206004 Ry
     estimated scf accuracy    <       0.00000691 Ry

     total magnetization       =     2.00 Bohr mag/cell
     absolute magnetization    =     3.28 Bohr mag/cell

     iteration #105     ecut=    70.00 Ry     beta= 0.70
     Davidson diagonalization with overlap
     ethr =  2.11E-09,  avg # of iterations =  3.0

     negative rho (up, down):  2.513E-03 4.378E-03

     total cpu time spent up to now is    10395.6 secs

     total energy              =    -786.96205941 Ry
     Harris-Foulkes estimate   =    -786.96206692 Ry
     estimated scf accuracy    <       0.00000707 Ry

     total magnetization       =     2.00 Bohr mag/cell
     absolute magnetization    =     3.28 Bohr mag/cell

     iteration #106     ecut=    70.00 Ry     beta= 0.70
     Davidson diagonalization with overlap
     ethr =  2.11E-09,  avg # of iterations =  3.0

     negative rho (up, down):  2.512E-03 4.340E-03

     total cpu time spent up to now is    10494.0 secs

     total energy              =    -786.96206185 Ry
     Harris-Foulkes estimate   =    -786.96206105 Ry
     estimated scf accuracy    <       0.00000655 Ry

     total magnetization       =     2.00 Bohr mag/cell
     absolute magnetization    =     3.28 Bohr mag/cell

     iteration #107     ecut=    70.00 Ry     beta= 0.70
     Davidson diagonalization with overlap
     ethr =  2.11E-09,  avg # of iterations =  4.0

     negative rho (up, down):  2.513E-03 4.337E-03

     total cpu time spent up to now is    10603.7 secs

     total energy              =    -786.96206218 Ry
     Harris-Foulkes estimate   =    -786.96206676 Ry
     estimated scf accuracy    <       0.00000765 Ry

     total magnetization       =     2.00 Bohr mag/cell
     absolute magnetization    =     3.28 Bohr mag/cell

     iteration #108     ecut=    70.00 Ry     beta= 0.70
     Davidson diagonalization with overlap
     ethr =  2.11E-09,  avg # of iterations =  3.0

     negative rho (up, down):  2.513E-03 4.306E-03

     total cpu time spent up to now is    10702.7 secs

     total energy              =    -786.96206410 Ry
     Harris-Foulkes estimate   =    -786.96206359 Ry
     estimated scf accuracy    <       0.00000703 Ry

     total magnetization       =     2.00 Bohr mag/cell
     absolute magnetization    =     3.28 Bohr mag/cell

     iteration #109     ecut=    70.00 Ry     beta= 0.70
     Davidson diagonalization with overlap
     ethr =  2.11E-09,  avg # of iterations =  2.0

     negative rho (up, down):  2.514E-03 4.308E-03

     total cpu time spent up to now is    10794.4 secs

     total energy              =    -786.96206364 Ry
     Harris-Foulkes estimate   =    -786.96206423 Ry
     estimated scf accuracy    <       0.00000685 Ry

     total magnetization       =     2.00 Bohr mag/cell
     absolute magnetization    =     3.28 Bohr mag/cell

     iteration #110     ecut=    70.00 Ry     beta= 0.70
     Davidson diagonalization with overlap
     ethr =  2.11E-09,  avg # of iterations =  2.5

     negative rho (up, down):  2.514E-03 4.302E-03

     total cpu time spent up to now is    10890.8 secs

     total energy              =    -786.96206338 Ry
     Harris-Foulkes estimate   =    -786.96206409 Ry
     estimated scf accuracy    <       0.00000544 Ry

     total magnetization       =     2.00 Bohr mag/cell
     absolute magnetization    =     3.28 Bohr mag/cell

     iteration #111     ecut=    70.00 Ry     beta= 0.70
     Davidson diagonalization with overlap
     ethr =  2.11E-09,  avg # of iterations =  2.0

     negative rho (up, down):  2.514E-03 4.302E-03

     total cpu time spent up to now is    10984.3 secs

     total energy              =    -786.96206379 Ry
     Harris-Foulkes estimate   =    -786.96206405 Ry
     estimated scf accuracy    <       0.00000802 Ry

     total magnetization       =     2.00 Bohr mag/cell
[...]

     iteration #377     ecut=    70.00 Ry     beta= 0.70
     Davidson diagonalization with overlap
     ethr =  5.42E-10,  avg # of iterations =  4.0

     negative rho (up, down):  2.524E-03 4.099E-03

     total cpu time spent up to now is    46619.5 secs

     total energy              =    -786.96211660 Ry
     Harris-Foulkes estimate   =    -786.96211813 Ry
     estimated scf accuracy    <       0.00001026 Ry

     total magnetization       =     2.00 Bohr mag/cell
     absolute magnetization    =     3.33 Bohr mag/cell

     iteration #378     ecut=    70.00 Ry     beta= 0.70
     Davidson diagonalization with overlap
     ethr =  5.42E-10,  avg # of iterations =  4.0

     negative rho (up, down):  2.524E-03 3.937E-03

     total cpu time spent up to now is    46735.5 secs

     total energy              =    -786.96211978 Ry
     Harris-Foulkes estimate   =    -786.96212124 Ry
     estimated scf accuracy    <       0.00000928 Ry

     total magnetization       =     1.99 Bohr mag/cell
     absolute magnetization    =     3.34 Bohr mag/cell

     iteration #379     ecut=    70.00 Ry     beta= 0.70
     Davidson diagonalization with overlap
     ethr =  5.42E-10,  avg # of iterations =  3.0

     negative rho (up, down):  2.524E-03 3.898E-03

     total cpu time spent up to now is    46832.4 secs

     total energy              =    -786.96210846 Ry
     Harris-Foulkes estimate   =    -786.96212000 Ry
     estimated scf accuracy    <       0.00000986 Ry

     total magnetization       =     1.99 Bohr mag/cell
     absolute magnetization    =     3.34 Bohr mag/cell

     iteration #380     ecut=    70.00 Ry     beta= 0.70
     Davidson diagonalization with overlap
     ethr =  5.42E-10,  avg # of iterations =  4.5

     negative rho (up, down):  2.524E-03 4.173E-03

     total cpu time spent up to now is    46966.7 secs

     total energy              =    -786.96212225 Ry
     Harris-Foulkes estimate   =    -786.96212225 Ry
     estimated scf accuracy    <       0.00001279 Ry

     total magnetization       =     2.00 Bohr mag/cell
     absolute magnetization    =     3.33 Bohr mag/cell

     iteration #381     ecut=    70.00 Ry     beta= 0.70
     Davidson diagonalization with overlap
     ethr =  5.42E-10,  avg # of iterations =  3.0

     negative rho (up, down):  2.524E-03 4.349E-03

     total cpu time spent up to now is    47080.1 secs

     total energy              =    -786.96212404 Ry
     Harris-Foulkes estimate   =    -786.96212341 Ry
     estimated scf accuracy    <       0.00000904 Ry

     total magnetization       =     2.00 Bohr mag/cell
     absolute magnetization    =     3.33 Bohr mag/cell

     iteration #382     ecut=    70.00 Ry     beta= 0.70
     Davidson diagonalization with overlap
     ethr =  5.42E-10,  avg # of iterations =  2.5

     negative rho (up, down):  2.524E-03 4.402E-03

     total cpu time spent up to now is    47175.0 secs

     total energy              =    -786.96212410 Ry
     Harris-Foulkes estimate   =    -786.96212415 Ry
     estimated scf accuracy    <       0.00000945 Ry

     total magnetization       =     2.00 Bohr mag/cell
     absolute magnetization    =     3.33 Bohr mag/cell

     iteration #383     ecut=    70.00 Ry     beta= 0.70
     Davidson diagonalization with overlap
     ethr =  5.42E-10,  avg # of iterations =  1.0

     negative rho (up, down):  2.524E-03 4.417E-03

     total cpu time spent up to now is    47265.1 secs

     total energy              =    -786.96212395 Ry
     Harris-Foulkes estimate   =    -786.96212410 Ry
     estimated scf accuracy    <       0.00000919 Ry

     total magnetization       =     2.00 Bohr mag/cell
     absolute magnetization    =     3.33 Bohr mag/cell

     iteration #384     ecut=    70.00 Ry     beta= 0.70
     Davidson diagonalization with overlap
     ethr =  5.42E-10,  avg # of iterations =  2.0

     negative rho (up, down):  2.525E-03 4.410E-03

     total cpu time spent up to now is    47357.0 secs

     total energy              =    -786.96212479 Ry
     Harris-Foulkes estimate   =    -786.96212398 Ry
     estimated scf accuracy    <       0.00000904 Ry

     total magnetization       =     2.00 Bohr mag/cell
     absolute magnetization    =     3.33 Bohr mag/cell

     iteration #385     ecut=    70.00 Ry     beta= 0.70
     Davidson diagonalization with overlap
     ethr =  5.42E-10,  avg # of iterations =  4.0

     negative rho (up, down):  2.525E-03 4.355E-03

     total cpu time spent up to now is    47474.4 secs

     total energy              =    -786.96212980 Ry
     Harris-Foulkes estimate   =    -786.96212696 Ry
     estimated scf accuracy    <       0.00001380 Ry

     total magnetization       =     2.00 Bohr mag/cell
     absolute magnetization    =     3.33 Bohr mag/cell

     iteration #386     ecut=    70.00 Ry     beta= 0.70
     Davidson diagonalization with overlap
     ethr =  5.42E-10,  avg # of iterations =  4.0

     negative rho (up, down):  2.525E-03 4.339E-03

     total cpu time spent up to now is    47605.0 secs

     total energy              =    -786.96213509 Ry
     Harris-Foulkes estimate   =    -786.96213462 Ry
     estimated scf accuracy    <       0.00002668 Ry

     total magnetization       =     2.00 Bohr mag/cell
     absolute magnetization    =     3.34 Bohr mag/cell

     iteration #387     ecut=    70.00 Ry     beta= 0.70
     Davidson diagonalization with overlap
     ethr =  5.42E-10,  avg # of iterations =  4.0

     negative rho (up, down):  2.525E-03 4.431E-03

     total cpu time spent up to now is    47721.8 secs

     total energy              =    -786.96212655 Ry
     Harris-Foulkes estimate   =    -786.96213682 Ry
     estimated scf accuracy    <       0.00001395 Ry

     total magnetization       =     2.00 Bohr mag/cell
     absolute magnetization    =     3.34 Bohr mag/cell

     iteration #388     ecut=    70.00 Ry     beta= 0.70
     Davidson diagonalization with overlap
     ethr =  5.42E-10,  avg # of iterations =  4.0

     negative rho (up, down):  2.525E-03 4.458E-03

     total cpu time spent up to now is    47837.4 secs

     total energy              =    -786.96208187 Ry
     Harris-Foulkes estimate   =    -786.96212908 Ry
     estimated scf accuracy    <       0.00001524 Ry

     total magnetization       =     2.00 Bohr mag/cell
     absolute magnetization    =     3.34 Bohr mag/cell

     iteration #389     ecut=    70.00 Ry     beta= 0.70
     Davidson diagonalization with overlap
     ethr =  5.42E-10,  avg # of iterations =  5.0

     negative rho (up, down):  2.524E-03 4.426E-03

     total cpu time spent up to now is    47980.3 secs

     total energy              =    -786.96211120 Ry
     Harris-Foulkes estimate   =    -786.96211621 Ry
     estimated scf accuracy    <       0.00001731 Ry

     total magnetization       =     2.00 Bohr mag/cell
     absolute magnetization    =     3.33 Bohr mag/cell

     iteration #390     ecut=    70.00 Ry     beta= 0.70
     Davidson diagonalization with overlap
     ethr =  5.42E-10,  avg # of iterations =  4.0

     negative rho (up, down):  2.524E-03 4.447E-03

     total cpu time spent up to now is    48104.7 secs

     total energy              =    -786.96211175 Ry
     Harris-Foulkes estimate   =    -786.96211478 Ry
     estimated scf accuracy    <       0.00000395 Ry

     total magnetization       =     2.00 Bohr mag/cell
     absolute magnetization    =     3.33 Bohr mag/cell

     iteration #391     ecut=    70.00 Ry     beta= 0.70
     Davidson diagonalization with overlap
     ethr =  5.42E-10,  avg # of iterations =  4.0

     negative rho (up, down):  2.524E-03 4.422E-03

     total cpu time spent up to now is    48211.5 secs

     total energy              =    -786.96210906 Ry
     Harris-Foulkes estimate   =    -786.96211334 Ry
     estimated scf accuracy    <       0.00000476 Ry

     total magnetization       =     2.00 Bohr mag/cell
     absolute magnetization    =     3.33 Bohr mag/cell

     iteration #392     ecut=    70.00 Ry     beta= 0.70
     Davidson diagonalization with overlap
     ethr =  5.42E-10,  avg # of iterations =  4.0

     negative rho (up, down):  2.524E-03 4.334E-03

     total cpu time spent up to now is    48319.0 secs

     total energy              =    -786.96210980 Ry
     Harris-Foulkes estimate   =    -786.96211114 Ry
     estimated scf accuracy    <       0.00000331 Ry

     total magnetization       =     2.00 Bohr mag/cell
     absolute magnetization    =     3.33 Bohr mag/cell

     iteration #393     ecut=    70.00 Ry     beta= 0.70
     Davidson diagonalization with overlap
     ethr =  5.42E-10,  avg # of iterations =  3.0

     negative rho (up, down):  2.524E-03 4.274E-03

     total cpu time spent up to now is    48418.5 secs

     total energy              =    -786.96211324 Ry
     Harris-Foulkes estimate   =    -786.96211020 Ry
     estimated scf accuracy    <       0.00000373 Ry

     total magnetization       =     2.00 Bohr mag/cell
     absolute magnetization    =     3.33 Bohr mag/cell

     iteration #394     ecut=    70.00 Ry     beta= 0.70
     Davidson diagonalization with overlap
     ethr =  5.42E-10,  avg # of iterations =  4.0

     negative rho (up, down):  2.524E-03 4.381E-03

     total cpu time spent up to now is    48535.6 secs

     total energy              =    -786.96211767 Ry
     Harris-Foulkes estimate   =    -786.96211665 Ry
     estimated scf accuracy    <       0.00000520 Ry

     total magnetization       =     2.00 Bohr mag/cell
     absolute magnetization    =     3.33 Bohr mag/cell

     iteration #395     ecut=    70.00 Ry     beta= 0.70
     Davidson diagonalization with overlap
     ethr =  5.42E-10,  avg # of iterations =  4.0

     negative rho (up, down):  2.525E-03 4.452E-03

     total cpu time spent up to now is    48644.0 secs

     total energy              =    -786.96211936 Ry
     Harris-Foulkes estimate   =    -786.96211908 Ry
     estimated scf accuracy    <       0.00000481 Ry

     total magnetization       =     2.00 Bohr mag/cell
     absolute magnetization    =     3.33 Bohr mag/cell

     iteration #396     ecut=    70.00 Ry     beta= 0.70
     Davidson diagonalization with overlap
     ethr =  5.42E-10,  avg # of iterations =  3.0

     negative rho (up, down):  2.525E-03 4.486E-03

     total cpu time spent up to now is    48742.9 secs

     total energy              =    -786.96211900 Ry
     Harris-Foulkes estimate   =    -786.96211973 Ry
     estimated scf accuracy    <       0.00000579 Ry

     total magnetization       =     2.00 Bohr mag/cell
     absolute magnetization    =     3.33 Bohr mag/cell

     iteration #397     ecut=    70.00 Ry     beta= 0.70
     Davidson diagonalization with overlap
     ethr =  5.42E-10,  avg # of iterations =  3.0

     negative rho (up, down):  2.525E-03 4.498E-03

     total cpu time spent up to now is    48839.2 secs

     total energy              =    -786.96211898 Ry
     Harris-Foulkes estimate   =    -786.96211924 Ry
     estimated scf accuracy    <       0.00000479 Ry

     total magnetization       =     2.00 Bohr mag/cell
     absolute magnetization    =     3.33 Bohr mag/cell

     iteration #398     ecut=    70.00 Ry     beta= 0.70
     Davidson diagonalization with overlap
     ethr =  5.42E-10,  avg # of iterations =  3.0

     negative rho (up, down):  2.525E-03 4.524E-03

     total cpu time spent up to now is    48939.3 secs

     total energy              =    -786.96211933 Ry
     Harris-Foulkes estimate   =    -786.96211965 Ry
     estimated scf accuracy    <       0.00000563 Ry

     total magnetization       =     2.00 Bohr mag/cell
     absolute magnetization    =     3.33 Bohr mag/cell

     iteration #399     ecut=    70.00 Ry     beta= 0.70
     Davidson diagonalization with overlap
     ethr =  5.42E-10,  avg # of iterations =  2.0

     negative rho (up, down):  2.525E-03 4.515E-03

     total cpu time spent up to now is    49031.1 secs

     total energy              =    -786.96211642 Ry
     Harris-Foulkes estimate   =    -786.96211940 Ry
     estimated scf accuracy    <       0.00000580 Ry

     total magnetization       =     2.00 Bohr mag/cell
     absolute magnetization    =     3.33 Bohr mag/cell

     iteration #400     ecut=    70.00 Ry     beta= 0.70
     Davidson diagonalization with overlap
     ethr =  5.42E-10,  avg # of iterations =  4.0

     negative rho (up, down):  2.525E-03 4.439E-03

     Magnetic moment per site:
     atom:    1    charge:    0.2113    magn:   -0.0000    constr:    0.0000
     atom:    2    charge:    0.2112    magn:    0.0001    constr:    0.0000
     atom:    3    charge:    1.7169    magn:   -0.0134    constr:    0.0000
     atom:    4    charge:    1.7159    magn:    0.0185    constr:    0.0000
     atom:    5    charge:    1.7177    magn:   -0.0098    constr:    0.0000
     atom:    6    charge:    1.7143    magn:    0.0062    constr:    0.0000
     atom:    7    charge:    1.7177    magn:   -0.0098    constr:    0.0000
     atom:    8    charge:    1.7159    magn:    0.0185    constr:    0.0000
     atom:    9    charge:    1.7169    magn:   -0.0134    constr:    0.0000
     atom:   10    charge:    1.7163    magn:    0.0603    constr:    0.0000
     atom:   11    charge:    1.7172    magn:   -0.0187    constr:    0.0000
     atom:   12    charge:    1.7163    magn:    0.0603    constr:    0.0000
     atom:   13    charge:    1.7172    magn:   -0.0187    constr:    0.0000
     atom:   14    charge:    1.7165    magn:    0.0479    constr:    0.0000
     atom:   15    charge:    1.7146    magn:   -0.0160    constr:    0.0000
     atom:   16    charge:    1.7142    magn:    0.0611    constr:    0.0000
     atom:   17    charge:    1.7243    magn:   -0.0142    constr:    0.0000
     atom:   18    charge:    1.7142    magn:    0.0611    constr:    0.0000
     atom:   19    charge:    1.7146    magn:   -0.0160    constr:    0.0000
     atom:   20    charge:    1.7165    magn:    0.0479    constr:    0.0000
     atom:   21    charge:    1.7172    magn:   -0.0187    constr:    0.0000
     atom:   22    charge:    1.7163    magn:    0.0603    constr:    0.0000
     atom:   23    charge:    1.7168    magn:   -0.0134    constr:    0.0000
     atom:   24    charge:    1.7159    magn:    0.0185    constr:    0.0000
     atom:   25    charge:    1.7146    magn:   -0.0160    constr:    0.0000
     atom:   26    charge:    1.7141    magn:    0.0611    constr:    0.0000
     atom:   27    charge:    1.8999    magn:   -0.0154    constr:    0.0000
     atom:   28    charge:    8.9295    magn:    0.3142    constr:    0.0000
     atom:   29    charge:    1.8999    magn:   -0.0154    constr:    0.0000
     atom:   30    charge:    1.7142    magn:    0.0611    constr:    0.0000
     atom:   31    charge:    1.7146    magn:   -0.0160    constr:    0.0000
     atom:   32    charge:    1.7159    magn:    0.0185    constr:    0.0000
     atom:   33    charge:    1.7177    magn:   -0.0098    constr:    0.0000
     atom:   34    charge:    1.7145    magn:    0.0132    constr:    0.0000
     atom:   35    charge:    1.7177    magn:   -0.0098    constr:    0.0000
     atom:   36    charge:    1.7142    magn:    0.0062    constr:    0.0000
     atom:   37    charge:    1.7243    magn:   -0.0142    constr:    0.0000
     atom:   38    charge:    1.7142    magn:    0.0611    constr:    0.0000
     atom:   39    charge:    1.8999    magn:   -0.0154    constr:    0.0000
     atom:   40    charge:    1.7142    magn:    0.0611    constr:    0.0000
     atom:   41    charge:    1.7244    magn:   -0.0142    constr:    0.0000
     atom:   42    charge:    1.7143    magn:    0.0062    constr:    0.0000
     atom:   43    charge:    1.7177    magn:   -0.0098    constr:    0.0000
     atom:   44    charge:    1.7145    magn:    0.0132    constr:    0.0000
     atom:   45    charge:    1.7230    magn:   -0.0068    constr:    0.0000
     atom:   46    charge:    1.7145    magn:    0.0132    constr:    0.0000
     atom:   47    charge:    1.7177    magn:   -0.0098    constr:    0.0000
     atom:   48    charge:    1.7159    magn:    0.0185    constr:    0.0000
     atom:   49    charge:    1.7146    magn:   -0.0160    constr:    0.0000
     atom:   50    charge:    1.7165    magn:    0.0479    constr:    0.0000
     atom:   51    charge:    1.7146    magn:   -0.0160    constr:    0.0000
     atom:   52    charge:    1.7159    magn:    0.0185    constr:    0.0000

     total cpu time spent up to now is    49139.1 secs

     total energy              =    -786.96211678 Ry
     Harris-Foulkes estimate   =    -786.96211820 Ry
     estimated scf accuracy    <       0.00000575 Ry

     total magnetization       =     2.00 Bohr mag/cell
     absolute magnetization    =     3.33 Bohr mag/cell

     End of self-consistent calculation

     convergence NOT achieved after 400 iterations: stopping

     Writing output data file distance-4.0.save/

     init_run     :     70.10s CPU     71.37s WALL (       1 calls)
     electrons    :  42437.55s CPU  49066.83s WALL (       1 calls)

     Called by init_run:
     wfcinit      :     41.50s CPU     41.77s WALL (       1 calls)
     wfcinit:atom :      0.07s CPU      0.09s WALL (       2 calls)
     wfcinit:wfcr :     41.08s CPU     41.27s WALL (       2 calls)
     potinit      :     11.98s CPU     12.39s WALL (       1 calls)
     hinit0       :      8.33s CPU      8.35s WALL (       1 calls)

     Called by electrons:
     c_bands      :  28211.16s CPU  28374.30s WALL (     400 calls)
     sum_band     :   8199.79s CPU   8436.64s WALL (     400 calls)
     v_of_rho     :   2891.42s CPU   3027.87s WALL (     401 calls)
     v_h          :     29.60s CPU     30.57s WALL (     401 calls)
     v_xc         :   2861.82s CPU   2997.30s WALL (     401 calls)
     newd         :   2863.21s CPU   8951.97s WALL (     401 calls)
     mix_rho      :    194.68s CPU    197.31s WALL (     400 calls)

     Called by c_bands:
     init_us_2    :     72.31s CPU     72.51s WALL (    1602 calls)
     cegterg      :  28002.65s CPU  28164.71s WALL (     800 calls)

     Called by sum_band:
     sum_band:bec :      0.64s CPU      0.65s WALL (     800 calls)
     addusdens    :   5069.37s CPU   5285.89s WALL (     400 calls)

     Called by *egterg:
     h_psi        :  14101.09s CPU  14215.53s WALL (    3469 calls)
     s_psi        :   4703.71s CPU   4706.34s WALL (    3469 calls)
     g_psi        :     16.58s CPU     16.65s WALL (    2667 calls)
     cdiaghg      :    276.70s CPU    276.86s WALL (    3467 calls)
     cegterg:over :   3718.26s CPU   3719.16s WALL (    2667 calls)
     cegterg:upda :   2437.23s CPU   2450.88s WALL (    2667 calls)
     cegterg:last :   1473.07s CPU   1473.57s WALL (     806 calls)

     Called by h_psi:
     h_psi:pot    :  14084.67s CPU  14180.89s WALL (    3469 calls)
     h_psi:calbec :   4706.89s CPU   4709.32s WALL (    3469 calls)
     vloc_psi     :   4674.97s CPU   4766.92s WALL (    3469 calls)
     add_vuspsi   :   4702.75s CPU   4704.63s WALL (    3469 calls)

     General routines
     calbec       :   6594.10s CPU   6597.33s WALL (    4269 calls)
     fft          :   1675.04s CPU   1728.74s WALL (   30073 calls)
     ffts         :     29.43s CPU     30.51s WALL (    1602 calls)
     fftw         :   4908.15s CPU   5006.19s WALL (  609044 calls)
     interpolate  :     67.81s CPU     69.75s WALL (     802 calls)
     davcio       :      0.01s CPU      0.12s WALL (      20 calls)

     Parallel routines
     fft_scatt_xy :   1190.46s CPU   1210.32s WALL (  640719 calls)
     fft_scatt_yz :   2210.27s CPU   2316.78s WALL (  640719 calls)

     PWSCF        :     11h48m CPU     13h38m WALL


   This run was terminated on:  15:44:12  20Aug2022            

=------------------------------------------------------------------------------=
   JOB DONE.
=------------------------------------------------------------------------------=
