
     Program PWSCF v.6.4.1 starts on 10Aug2022 at  4:38: 3 

     This program is part of the open-source Quantum ESPRESSO suite
     for quantum simulation of materials; please cite
         "P. Giannozzi et al., J. Phys.:Condens. Matter 21 395502 (2009);
         "P. Giannozzi et al., J. Phys.:Condens. Matter 29 465901 (2017);
          URL http://www.quantum-espresso.org", 
     in publications or presentations arising from this work. More details at
     http://www.quantum-espresso.org/quote

     Parallel version (MPI), running on     6 processors

     MPI processes distributed on     1 nodes
     R & G space division:  proc/nbgrp/npool/nimage =       6
     Reading input from distance-2.2.in

     Current dimensions of program PWSCF are:
     Max number of different atomic species (ntypx) = 10
     Max number of k-points (npk) =  40000
     Max angular momentum in pseudopotentials (lmaxx) =  3

     IMPORTANT: XC functional enforced from input :
     Exchange-correlation      = RVV10 ( 1  4 13  4 3 0)
     Any further DFT definition will be discarded
     Please, verify this is what you really want

               file H.pbe-rrkjus.UPF: wavefunction(s)  1S renormalized
               file Mn.pbe-spn-rrkjus_psl.0.3.1.UPF: wavefunction(s)  3D renormalized

     Subspace diagonalization in iterative solution of the eigenvalue problem:
     a serial algorithm will be used


     Parallelization info
     --------------------
     sticks:   dense  smooth     PW     G-vecs:    dense   smooth      PW
     Min        3051    1746    432               270999   117096   14629
     Max        3053    1747    437               271001   117099   14630
     Sum       18313   10477   2611              1626001   702581   87777



     bravais-lattice index     =            4
     lattice parameter (alat)  =      23.2937  a.u.
     unit-cell volume          =    8879.8548 (a.u.)^3
     number of atoms/cell      =           52
     number of atomic types    =            3
     number of electrons       =       213.00
     number of Kohn-Sham states=          128
     kinetic-energy cutoff     =      70.0000  Ry
     charge density cutoff     =     490.0000  Ry
     convergence threshold     =      1.0E-06
     mixing beta               =       0.7000
     number of iterations used =            8  plain     mixing
     Exchange-correlation      = RVV10 ( 1  4 13  4 3 0)

     celldm(1)=  23.293684  celldm(2)=   0.000000  celldm(3)=   0.811261
     celldm(4)=   0.000000  celldm(5)=   0.000000  celldm(6)=   0.000000

     crystal axes: (cart. coord. in units of alat)
               a(1) = (   1.000000   0.000000   0.000000 )  
               a(2) = (  -0.500000   0.866025   0.000000 )  
               a(3) = (   0.000000   0.000000   0.811261 )  

     reciprocal axes: (cart. coord. in units 2 pi/alat)
               b(1) = (  1.000000  0.577350 -0.000000 )  
               b(2) = (  0.000000  1.154701  0.000000 )  
               b(3) = (  0.000000 -0.000000  1.232649 )  


     PseudoPot. # 1 for H  read from file:
     /home/cristian/Escritorio/Proyecto_Grafeno/pseudopotenciales/H.pbe-rrkjus.UPF
     MD5 check sum: 7cc9d459525c9a0585f487a71c3c9563
     Pseudo is Ultrasoft, Zval =  1.0
     Generated by new atomic code, or converted to UPF format
     Using radial grid of 1061 points,  2 beta functions with: 
                l(1) =   0
                l(2) =   0
     Q(r) pseudized with 0 coefficients 


     PseudoPot. # 2 for C  read from file:
     /home/cristian/Escritorio/Proyecto_Grafeno/pseudopotenciales/C.pbe-n-rrkjus_psl.1.0.0.UPF
     MD5 check sum: 1fdd950c42eb37d8afe3dd2f8d12311e
     Pseudo is Ultrasoft + core correction, Zval =  4.0
     Generated using "atomic" code by A. Dal Corso v.6.3MaX
     Using radial grid of 1073 points,  4 beta functions with: 
                l(1) =   0
                l(2) =   0
                l(3) =   1
                l(4) =   1
     Q(r) pseudized with 0 coefficients 


     PseudoPot. # 3 for Mn read from file:
     /home/cristian/Escritorio/Proyecto_Grafeno/pseudopotenciales/Mn.pbe-spn-rrkjus_psl.0.3.1.UPF
     MD5 check sum: e1cac159bdd2ba70c18e85765a5d4279
     Pseudo is Ultrasoft + core correction, Zval = 15.0
     Generated using "atomic" code by A. Dal Corso v.6.2.2
     Using radial grid of 1187 points,  6 beta functions with: 
                l(1) =   0
                l(2) =   0
                l(3) =   1
                l(4) =   1
                l(5) =   2
                l(6) =   2
     Q(r) pseudized with 0 coefficients 


     vdW kernel table read from file rVV10_kernel_table
     MD5 check sum: b8e2538accc0c0b3206b45ba4daaba6c

     atomic species   valence    mass     pseudopotential
        H              1.00     1.00794     H ( 1.00)
        C              4.00    12.01070     C ( 1.00)
        Mn            15.00    54.93804     Mn( 1.00)

     Starting magnetic structure 
     atomic species   magnetization
        H            0.500
        C            0.300
        Mn           0.800

     No symmetry found


                                    s                        frac. trans.

      isym =  1     identity                                     

 cryst.   s( 1) = (     1          0          0      )
                  (     0          1          0      )
                  (     0          0          1      )

 cart.    s( 1) = (  1.0000000  0.0000000  0.0000000 )
                  (  0.0000000  1.0000000  0.0000000 )
                  (  0.0000000  0.0000000  1.0000000 )


     point group C_1 (1)    
     there are  1 classes
     the character table:

       E    
A      1.00

     the symmetry operations in each class and the name of the first element:

     E        1
          identity                                               

   Cartesian axes

     site n.     atom                  positions (alat units)
         1           H   tau(   1) = (   0.2500000   0.4907477   0.1784775  )
         2           H   tau(   2) = (   0.2500000   0.4907477   0.2394901  )
         3           C   tau(   3) = (   0.0000000   0.0000000   0.0000000  )
         4           C   tau(   4) = (   0.0000000   0.1154701   0.0000000  )
         5           C   tau(   5) = (  -0.1000000   0.1732051   0.0000000  )
         6           C   tau(   6) = (  -0.1000000   0.2886751   0.0000000  )
         7           C   tau(   7) = (  -0.2000000   0.3464102   0.0000000  )
         8           C   tau(   8) = (  -0.2000000   0.4618802   0.0000000  )
         9           C   tau(   9) = (  -0.3000000   0.5196152   0.0000000  )
        10           C   tau(  10) = (  -0.3000000   0.6350853   0.0000000  )
        11           C   tau(  11) = (  -0.4000000   0.6928203   0.0000000  )
        12           C   tau(  12) = (  -0.4000000   0.8082904   0.0000000  )
        13           C   tau(  13) = (   0.2000000   0.0000000   0.0000000  )
        14           C   tau(  14) = (   0.2000000   0.1154701   0.0000000  )
        15           C   tau(  15) = (   0.1000000   0.1732051   0.0000000  )
        16           C   tau(  16) = (   0.1000000   0.2886751   0.0000000  )
        17           C   tau(  17) = (   0.0000000   0.3464102   0.0000000  )
        18           C   tau(  18) = (   0.0000000   0.4618802   0.0000000  )
        19           C   tau(  19) = (  -0.1000000   0.5196152   0.0000000  )
        20           C   tau(  20) = (  -0.1000000   0.6350853   0.0000000  )
        21           C   tau(  21) = (  -0.2000000   0.6928203   0.0000000  )
        22           C   tau(  22) = (  -0.2000000   0.8082904   0.0000000  )
        23           C   tau(  23) = (   0.4000000   0.0000000   0.0000000  )
        24           C   tau(  24) = (   0.4000000   0.1154701   0.0000000  )
        25           C   tau(  25) = (   0.3000000   0.1732051   0.0000000  )
        26           C   tau(  26) = (   0.3000000   0.2886751   0.0000000  )
        27           C   tau(  27) = (   0.2000000   0.3464102   0.0000000  )
        28           Mn  tau(  28) = (   0.2000000   0.4618802   0.0000000  )
        29           C   tau(  29) = (   0.1000000   0.5196152   0.0000000  )
        30           C   tau(  30) = (   0.1000000   0.6350853   0.0000000  )
        31           C   tau(  31) = (   0.0000000   0.6928203   0.0000000  )
        32           C   tau(  32) = (   0.0000000   0.8082904   0.0000000  )
        33           C   tau(  33) = (   0.6000000   0.0000000   0.0000000  )
        34           C   tau(  34) = (   0.6000000   0.1154701   0.0000000  )
        35           C   tau(  35) = (   0.5000000   0.1732051   0.0000000  )
        36           C   tau(  36) = (   0.5000000   0.2886751   0.0000000  )
        37           C   tau(  37) = (   0.4000000   0.3464102   0.0000000  )
        38           C   tau(  38) = (   0.4000000   0.4618802   0.0000000  )
        39           C   tau(  39) = (   0.3000000   0.5196152   0.0000000  )
        40           C   tau(  40) = (   0.3000000   0.6350853   0.0000000  )
        41           C   tau(  41) = (   0.2000000   0.6928203   0.0000000  )
        42           C   tau(  42) = (   0.2000000   0.8082904   0.0000000  )
        43           C   tau(  43) = (   0.8000000   0.0000000   0.0000000  )
        44           C   tau(  44) = (   0.8000000   0.1154701   0.0000000  )
        45           C   tau(  45) = (   0.7000000   0.1732051   0.0000000  )
        46           C   tau(  46) = (   0.7000000   0.2886751   0.0000000  )
        47           C   tau(  47) = (   0.6000000   0.3464102   0.0000000  )
        48           C   tau(  48) = (   0.6000000   0.4618802   0.0000000  )
        49           C   tau(  49) = (   0.5000000   0.5196152   0.0000000  )
        50           C   tau(  50) = (   0.5000000   0.6350853   0.0000000  )
        51           C   tau(  51) = (   0.4000000   0.6928203   0.0000000  )
        52           C   tau(  52) = (   0.4000000   0.8082904   0.0000000  )

   Crystallographic axes

     site n.     atom                  positions (cryst. coord.)
         1           H   tau(   1) = (  0.5333333  0.5666667  0.2200000  )
         2           H   tau(   2) = (  0.5333333  0.5666667  0.2952072  )
         3           C   tau(   3) = (  0.0000000  0.0000000  0.0000000  )
         4           C   tau(   4) = (  0.0666667  0.1333333  0.0000000  )
         5           C   tau(   5) = (  0.0000000  0.2000000  0.0000000  )
         6           C   tau(   6) = (  0.0666667  0.3333333  0.0000000  )
         7           C   tau(   7) = (  0.0000000  0.4000000  0.0000000  )
         8           C   tau(   8) = (  0.0666667  0.5333333  0.0000000  )
         9           C   tau(   9) = (  0.0000000  0.6000000  0.0000000  )
        10           C   tau(  10) = (  0.0666667  0.7333333  0.0000000  )
        11           C   tau(  11) = (  0.0000000  0.8000000  0.0000000  )
        12           C   tau(  12) = (  0.0666667  0.9333333  0.0000000  )
        13           C   tau(  13) = (  0.2000000  0.0000000  0.0000000  )
        14           C   tau(  14) = (  0.2666667  0.1333333  0.0000000  )
        15           C   tau(  15) = (  0.2000000  0.2000000  0.0000000  )
        16           C   tau(  16) = (  0.2666667  0.3333333  0.0000000  )
        17           C   tau(  17) = (  0.2000000  0.4000000  0.0000000  )
        18           C   tau(  18) = (  0.2666667  0.5333333  0.0000000  )
        19           C   tau(  19) = (  0.2000000  0.6000000  0.0000000  )
        20           C   tau(  20) = (  0.2666667  0.7333333  0.0000000  )
        21           C   tau(  21) = (  0.2000000  0.8000000  0.0000000  )
        22           C   tau(  22) = (  0.2666667  0.9333333  0.0000000  )
        23           C   tau(  23) = (  0.4000000  0.0000000  0.0000000  )
        24           C   tau(  24) = (  0.4666667  0.1333333  0.0000000  )
        25           C   tau(  25) = (  0.4000000  0.2000000  0.0000000  )
        26           C   tau(  26) = (  0.4666667  0.3333333  0.0000000  )
        27           C   tau(  27) = (  0.4000000  0.4000000  0.0000000  )
        28           Mn  tau(  28) = (  0.4666667  0.5333333  0.0000000  )
        29           C   tau(  29) = (  0.4000000  0.6000000  0.0000000  )
        30           C   tau(  30) = (  0.4666667  0.7333333  0.0000000  )
        31           C   tau(  31) = (  0.4000000  0.8000000  0.0000000  )
        32           C   tau(  32) = (  0.4666667  0.9333333  0.0000000  )
        33           C   tau(  33) = (  0.6000000  0.0000000  0.0000000  )
        34           C   tau(  34) = (  0.6666667  0.1333333  0.0000000  )
        35           C   tau(  35) = (  0.6000000  0.2000000  0.0000000  )
        36           C   tau(  36) = (  0.6666667  0.3333333  0.0000000  )
        37           C   tau(  37) = (  0.6000000  0.4000000  0.0000000  )
        38           C   tau(  38) = (  0.6666667  0.5333333  0.0000000  )
        39           C   tau(  39) = (  0.6000000  0.6000000  0.0000000  )
        40           C   tau(  40) = (  0.6666667  0.7333333  0.0000000  )
        41           C   tau(  41) = (  0.6000000  0.8000000  0.0000000  )
        42           C   tau(  42) = (  0.6666667  0.9333333  0.0000000  )
        43           C   tau(  43) = (  0.8000000  0.0000000  0.0000000  )
        44           C   tau(  44) = (  0.8666667  0.1333333  0.0000000  )
        45           C   tau(  45) = (  0.8000000  0.2000000  0.0000000  )
        46           C   tau(  46) = (  0.8666667  0.3333333  0.0000000  )
        47           C   tau(  47) = (  0.8000000  0.4000000  0.0000000  )
        48           C   tau(  48) = (  0.8666667  0.5333333  0.0000000  )
        49           C   tau(  49) = (  0.8000000  0.6000000  0.0000000  )
        50           C   tau(  50) = (  0.8666667  0.7333333  0.0000000  )
        51           C   tau(  51) = (  0.8000000  0.8000000  0.0000000  )
        52           C   tau(  52) = (  0.8666667  0.9333333  0.0000000  )

     number of k points=     1  Marzari-Vanderbilt smearing, width (Ry)=  0.0010
                       cart. coord. in units 2pi/alat
        k(    1) = (   0.0000000   0.0000000   0.0000000), wk =   1.0000000

                       cryst. coord.
        k(    1) = (   0.0000000   0.0000000   0.0000000), wk =   1.0000000

     Dense  grid:  1626001 G-vectors     FFT dimensions: ( 180, 180, 135)

     Smooth grid:   702581 G-vectors     FFT dimensions: ( 125, 125, 108)

     Dynamical RAM for                 wfc:      28.59 MB

     Dynamical RAM for     wfc (w. buffer):      85.76 MB

     Dynamical RAM for           str. fact:      12.41 MB

     Dynamical RAM for           local pot:       0.00 MB

     Dynamical RAM for          nlocal pot:      92.46 MB

     Dynamical RAM for                qrad:      19.73 MB

     Dynamical RAM for          rho,v,vnew:      58.92 MB

     Dynamical RAM for               rhoin:      19.64 MB

     Dynamical RAM for            rho*nmix:     132.32 MB

     Dynamical RAM for           G-vectors:      16.40 MB

     Dynamical RAM for          h,s,v(r/c):      12.00 MB

     Dynamical RAM for          <psi|beta>:       0.81 MB

     Dynamical RAM for                 psi:     114.35 MB

     Dynamical RAM for                hpsi:     114.35 MB

     Dynamical RAM for                spsi:     114.35 MB

     Dynamical RAM for      wfcinit/wfcrot:      93.90 MB

     Dynamical RAM for           addusdens:     975.89 MB

     Estimated static dynamical RAM per process >     488.30 MB

     Estimated max dynamical RAM per process >       1.43 GB

     Estimated total dynamical RAM >       8.58 GB
     Generating pointlists ...
     new r_m :   0.0252 (alat units)  0.5862 (a.u.) for type    1
     new r_m :   0.0476 (alat units)  1.1095 (a.u.) for type    2
     new r_m :   0.0476 (alat units)  1.1095 (a.u.) for type    3

     Check: negative core charge=   -0.000002

     Initial potential from superposition of free atoms

     starting charge  212.80506, renormalised to  213.00000

     negative rho (up, down):  7.549E-05 1.139E-02


---------------------------------------------------------------------------------
Carrying out rVV10 run using the following parameters:
Nqs =      20    Nr_points =    1024   r_max =   100.000
b_value =  6.30000    beta =  0.00901
     q_mesh =  0.00010000  0.00030000  0.00058939  0.00100810
               0.00161396  0.00249058  0.00375900  0.00559430
               0.00824984  0.01209221  0.01765183  0.02569619
               0.03733578  0.05417739  0.07854596  0.11380545
               0.16482331  0.23864234  0.34545298  0.50000000

Gradients computed in Reciprocal space

---------------------------------------------------------------------------------


     Starting wfcs are  208 randomized atomic wfcs

     total cpu time spent up to now is       76.5 secs

     Self-consistent Calculation

     iteration #  1     ecut=    70.00 Ry     beta= 0.70
     Davidson diagonalization with overlap
     ethr =  1.00E-02,  avg # of iterations =  2.5

     negative rho (up, down):  1.515E-04 1.089E-02

     total cpu time spent up to now is      207.6 secs

     total energy              =    -821.71912529 Ry
     Harris-Foulkes estimate   =    -825.01950529 Ry
     estimated scf accuracy    <      11.59286866 Ry

     total magnetization       =     7.00 Bohr mag/cell
     absolute magnetization    =     7.37 Bohr mag/cell

     iteration #  2     ecut=    70.00 Ry     beta= 0.70
     Davidson diagonalization with overlap
     ethr =  5.44E-03,  avg # of iterations =  7.5

     negative rho (up, down):  1.880E-04 1.165E-02

     total cpu time spent up to now is      332.7 secs

     total energy              =    -812.01887535 Ry
     Harris-Foulkes estimate   =    -835.11436129 Ry
     estimated scf accuracy    <      96.83604588 Ry

     total magnetization       =     3.00 Bohr mag/cell
     absolute magnetization    =     3.24 Bohr mag/cell

     iteration #  3     ecut=    70.00 Ry     beta= 0.70
     Davidson diagonalization with overlap
     ethr =  5.44E-03,  avg # of iterations =  5.0

     negative rho (up, down):  2.302E-04 9.490E-03

     total cpu time spent up to now is      522.2 secs

     total energy              =    -823.81968772 Ry
     Harris-Foulkes estimate   =    -827.06632644 Ry
     estimated scf accuracy    <      18.18858060 Ry

     total magnetization       =     7.00 Bohr mag/cell
     absolute magnetization    =     7.05 Bohr mag/cell

     iteration #  4     ecut=    70.00 Ry     beta= 0.70
     Davidson diagonalization with overlap
     ethr =  5.44E-03,  avg # of iterations =  3.5

     negative rho (up, down):  2.688E-04 1.122E-02

     total cpu time spent up to now is      620.7 secs

     total energy              =    -825.29361563 Ry
     Harris-Foulkes estimate   =    -826.41263756 Ry
     estimated scf accuracy    <       3.40140677 Ry

     total magnetization       =     3.00 Bohr mag/cell
     absolute magnetization    =     3.43 Bohr mag/cell

     iteration #  5     ecut=    70.00 Ry     beta= 0.70
     Davidson diagonalization with overlap
     ethr =  1.60E-03,  avg # of iterations =  3.5

     negative rho (up, down):  3.542E-04 1.775E-02

     total cpu time spent up to now is      729.6 secs

     total energy              =    -825.78347392 Ry
     Harris-Foulkes estimate   =    -825.99008902 Ry
     estimated scf accuracy    <       0.58607806 Ry

     total magnetization       =     3.00 Bohr mag/cell
     absolute magnetization    =     3.35 Bohr mag/cell

     iteration #  6     ecut=    70.00 Ry     beta= 0.70
     Davidson diagonalization with overlap
     ethr =  2.75E-04,  avg # of iterations =  5.0

     negative rho (up, down):  5.788E-04 8.088E-03

     total cpu time spent up to now is      842.2 secs

     total energy              =    -825.90492916 Ry
     Harris-Foulkes estimate   =    -825.94788865 Ry
     estimated scf accuracy    <       0.13752270 Ry

     total magnetization       =     3.00 Bohr mag/cell
     absolute magnetization    =     3.38 Bohr mag/cell

     iteration #  7     ecut=    70.00 Ry     beta= 0.70
     Davidson diagonalization with overlap
     ethr =  6.46E-05,  avg # of iterations =  6.5

     negative rho (up, down):  6.434E-04 6.110E-03

     total cpu time spent up to now is      952.5 secs

     total energy              =    -825.92569401 Ry
     Harris-Foulkes estimate   =    -825.93994923 Ry
     estimated scf accuracy    <       0.03557947 Ry

     total magnetization       =     3.00 Bohr mag/cell
     absolute magnetization    =     3.60 Bohr mag/cell

     iteration #  8     ecut=    70.00 Ry     beta= 0.70
     Davidson diagonalization with overlap
     ethr =  1.67E-05,  avg # of iterations = 10.0

     negative rho (up, down):  6.592E-04 6.125E-03

     total cpu time spent up to now is     1069.9 secs

     total energy              =    -825.93353219 Ry
     Harris-Foulkes estimate   =    -825.93594998 Ry
     estimated scf accuracy    <       0.00803985 Ry

     total magnetization       =     3.00 Bohr mag/cell
     absolute magnetization    =     3.71 Bohr mag/cell

     iteration #  9     ecut=    70.00 Ry     beta= 0.70
     Davidson diagonalization with overlap
     ethr =  3.77E-06,  avg # of iterations =  4.0

     negative rho (up, down):  6.591E-04 6.184E-03

     total cpu time spent up to now is     1184.1 secs

     total energy              =    -825.93537153 Ry
     Harris-Foulkes estimate   =    -825.93578860 Ry
     estimated scf accuracy    <       0.00196158 Ry

     total magnetization       =     3.00 Bohr mag/cell
     absolute magnetization    =     3.84 Bohr mag/cell

     iteration # 10     ecut=    70.00 Ry     beta= 0.70
     Davidson diagonalization with overlap
     ethr =  9.21E-07,  avg # of iterations =  3.5

     negative rho (up, down):  6.607E-04 6.256E-03

     total cpu time spent up to now is     1291.2 secs

     total energy              =    -825.93586089 Ry
     Harris-Foulkes estimate   =    -825.93588918 Ry
     estimated scf accuracy    <       0.00050127 Ry

     total magnetization       =     3.00 Bohr mag/cell
     absolute magnetization    =     3.93 Bohr mag/cell

     iteration # 11     ecut=    70.00 Ry     beta= 0.70
     Davidson diagonalization with overlap
     ethr =  2.35E-07,  avg # of iterations =  3.0

     negative rho (up, down):  6.618E-04 6.340E-03

     total cpu time spent up to now is     1402.1 secs

     total energy              =    -825.93612214 Ry
     Harris-Foulkes estimate   =    -825.93602683 Ry
     estimated scf accuracy    <       0.00015439 Ry

     total magnetization       =     3.00 Bohr mag/cell
     absolute magnetization    =     4.01 Bohr mag/cell

     iteration # 12     ecut=    70.00 Ry     beta= 0.70
     Davidson diagonalization with overlap
     ethr =  7.25E-08,  avg # of iterations =  3.0

     negative rho (up, down):  6.574E-04 6.452E-03

     total cpu time spent up to now is     1529.0 secs

     total energy              =    -825.93623370 Ry
     Harris-Foulkes estimate   =    -825.93619801 Ry
     estimated scf accuracy    <       0.00003313 Ry

     total magnetization       =     3.00 Bohr mag/cell
     absolute magnetization    =     4.12 Bohr mag/cell

     iteration # 13     ecut=    70.00 Ry     beta= 0.70
     Davidson diagonalization with overlap
     ethr =  1.56E-08,  avg # of iterations =  3.0

     negative rho (up, down):  6.603E-04 6.466E-03

     total cpu time spent up to now is     1659.0 secs

     total energy              =    -825.93626824 Ry
     Harris-Foulkes estimate   =    -825.93626297 Ry
     estimated scf accuracy    <       0.00002254 Ry

     total magnetization       =     3.00 Bohr mag/cell
     absolute magnetization    =     4.20 Bohr mag/cell

     iteration # 14     ecut=    70.00 Ry     beta= 0.70
     Davidson diagonalization with overlap
     ethr =  1.06E-08,  avg # of iterations =  3.0

     negative rho (up, down):  6.596E-04 6.506E-03

     total cpu time spent up to now is     1770.6 secs

     total energy              =    -825.93628050 Ry
     Harris-Foulkes estimate   =    -825.93628035 Ry
     estimated scf accuracy    <       0.00003358 Ry

     total magnetization       =     3.00 Bohr mag/cell
     absolute magnetization    =     4.23 Bohr mag/cell

     iteration # 15     ecut=    70.00 Ry     beta= 0.70
     Davidson diagonalization with overlap
     ethr =  1.06E-08,  avg # of iterations =  3.0

     negative rho (up, down):  6.591E-04 6.544E-03

     total cpu time spent up to now is     1893.3 secs

     total energy              =    -825.93629446 Ry
     Harris-Foulkes estimate   =    -825.93629350 Ry
     estimated scf accuracy    <       0.00000485 Ry

     total magnetization       =     3.00 Bohr mag/cell
     absolute magnetization    =     4.28 Bohr mag/cell

     iteration # 16     ecut=    70.00 Ry     beta= 0.70
     Davidson diagonalization with overlap
     ethr =  2.28E-09,  avg # of iterations =  3.0

     negative rho (up, down):  6.595E-04 6.553E-03

     Magnetic moment per site:
     atom:    1    charge:    0.2122    magn:   -0.0011    constr:    0.0000
     atom:    2    charge:    0.2120    magn:    0.0107    constr:    0.0000
     atom:    3    charge:    1.7170    magn:   -0.0126    constr:    0.0000
     atom:    4    charge:    1.7155    magn:    0.0178    constr:    0.0000
     atom:    5    charge:    1.7177    magn:   -0.0095    constr:    0.0000
     atom:    6    charge:    1.7142    magn:    0.0060    constr:    0.0000
     atom:    7    charge:    1.7177    magn:   -0.0095    constr:    0.0000
     atom:    8    charge:    1.7155    magn:    0.0178    constr:    0.0000
     atom:    9    charge:    1.7170    magn:   -0.0126    constr:    0.0000
     atom:   10    charge:    1.7155    magn:    0.0575    constr:    0.0000
     atom:   11    charge:    1.7174    magn:   -0.0178    constr:    0.0000
     atom:   12    charge:    1.7155    magn:    0.0575    constr:    0.0000
     atom:   13    charge:    1.7175    magn:   -0.0179    constr:    0.0000
     atom:   14    charge:    1.7159    magn:    0.0461    constr:    0.0000
     atom:   15    charge:    1.7144    magn:   -0.0146    constr:    0.0000
     atom:   16    charge:    1.7124    magn:    0.0615    constr:    0.0000
     atom:   17    charge:    1.7236    magn:   -0.0137    constr:    0.0000
     atom:   18    charge:    1.7124    magn:    0.0615    constr:    0.0000
     atom:   19    charge:    1.7144    magn:   -0.0146    constr:    0.0000
     atom:   20    charge:    1.7159    magn:    0.0461    constr:    0.0000
     atom:   21    charge:    1.7175    magn:   -0.0179    constr:    0.0000
     atom:   22    charge:    1.7154    magn:    0.0576    constr:    0.0000
     atom:   23    charge:    1.7170    magn:   -0.0125    constr:    0.0000
     atom:   24    charge:    1.7155    magn:    0.0178    constr:    0.0000
     atom:   25    charge:    1.7144    magn:   -0.0147    constr:    0.0000
     atom:   26    charge:    1.7124    magn:    0.0615    constr:    0.0000
     atom:   27    charge:    1.8742    magn:   -0.0292    constr:    0.0000
     atom:   28    charge:   10.0216    magn:    0.7862    constr:    0.0000
     atom:   29    charge:    1.8742    magn:   -0.0292    constr:    0.0000
     atom:   30    charge:    1.7124    magn:    0.0615    constr:    0.0000
     atom:   31    charge:    1.7144    magn:   -0.0147    constr:    0.0000
     atom:   32    charge:    1.7155    magn:    0.0178    constr:    0.0000
     atom:   33    charge:    1.7177    magn:   -0.0096    constr:    0.0000
     atom:   34    charge:    1.7141    magn:    0.0125    constr:    0.0000
     atom:   35    charge:    1.7177    magn:   -0.0096    constr:    0.0000
     atom:   36    charge:    1.7143    magn:    0.0060    constr:    0.0000
     atom:   37    charge:    1.7235    magn:   -0.0138    constr:    0.0000
     atom:   38    charge:    1.7129    magn:    0.0607    constr:    0.0000
     atom:   39    charge:    1.8754    magn:   -0.0291    constr:    0.0000
     atom:   40    charge:    1.7129    magn:    0.0607    constr:    0.0000
     atom:   41    charge:    1.7235    magn:   -0.0138    constr:    0.0000
     atom:   42    charge:    1.7143    magn:    0.0060    constr:    0.0000
     atom:   43    charge:    1.7176    magn:   -0.0095    constr:    0.0000
     atom:   44    charge:    1.7141    magn:    0.0124    constr:    0.0000
     atom:   45    charge:    1.7232    magn:   -0.0066    constr:    0.0000
     atom:   46    charge:    1.7141    magn:    0.0124    constr:    0.0000
     atom:   47    charge:    1.7176    magn:   -0.0095    constr:    0.0000
     atom:   48    charge:    1.7156    magn:    0.0177    constr:    0.0000
     atom:   49    charge:    1.7143    magn:   -0.0144    constr:    0.0000
     atom:   50    charge:    1.7160    magn:    0.0457    constr:    0.0000
     atom:   51    charge:    1.7143    magn:   -0.0144    constr:    0.0000
     atom:   52    charge:    1.7156    magn:    0.0177    constr:    0.0000

     total cpu time spent up to now is     2017.6 secs

     End of self-consistent calculation

 ------ SPIN UP ------------


          k = 0.0000 0.0000 0.0000 ( 87777 PWs)   bands (ev):

   -80.7043 -50.2116 -50.2104 -49.1242 -19.7794 -18.9437 -18.9435 -18.8518
   -18.8321 -18.8313 -18.4894 -17.0812 -17.0809 -17.0752 -16.9968 -16.9962
   -16.6849 -16.2363 -16.2356 -16.1277 -16.0678 -16.0658 -15.3679 -14.1278
   -14.1247 -14.0591 -13.9935 -13.9929 -13.3280 -13.0678 -13.0671 -13.0402
   -12.7389 -12.7376 -12.3219 -11.8459 -11.8448 -11.6611 -11.3874 -11.3856
   -10.4759  -9.6778  -9.6775  -9.4398  -9.3215  -9.3213  -9.2270  -9.1997
    -9.1997  -9.1853  -8.6988  -8.6959  -8.1690  -8.1680  -8.0656  -7.9820
    -7.8344  -7.4503  -7.4293  -7.4056  -7.1993  -7.1953  -7.0062  -6.9206
    -6.9199  -6.8290  -6.8282  -6.8022  -6.7157  -6.5652  -6.5640  -6.5333
    -6.5239  -6.5234  -6.4782  -6.3072  -5.6462  -5.6037  -5.5254  -5.5243
    -5.3217  -5.3217  -5.0302  -4.9843  -4.8844  -4.7519  -4.7333  -4.7319
    -4.3877  -4.2329  -4.2318  -4.2181  -4.2178  -3.8927  -3.8918  -3.7934
    -3.6702  -3.6702  -3.1180  -2.7606  -2.7582  -1.9025  -1.8049  -1.8043
    -1.3266  -1.1187  -1.1182  -0.8352   0.8994   0.9605   0.9626   1.5606
     1.5654   1.5754   2.4893   2.7522   2.7553   2.8528   2.9878   3.0042
     3.4424   3.4640   3.4682   3.6609   3.6637   3.7295   3.7384   3.7434

     occupation numbers 
     1.0000   1.0000   1.0000   1.0000   1.0000   1.0000   1.0000   1.0000
     1.0000   1.0000   1.0000   1.0000   1.0000   1.0000   1.0000   1.0000
     1.0000   1.0000   1.0000   1.0000   1.0000   1.0000   1.0000   1.0000
     1.0000   1.0000   1.0000   1.0000   1.0000   1.0000   1.0000   1.0000
     1.0000   1.0000   1.0000   1.0000   1.0000   1.0000   1.0000   1.0000
     1.0000   1.0000   1.0000   1.0000   1.0000   1.0000   1.0000   1.0000
     1.0000   1.0000   1.0000   1.0000   1.0000   1.0000   1.0000   1.0000
     1.0000   1.0000   1.0000   1.0000   1.0000   1.0000   1.0000   1.0000
     1.0000   1.0000   1.0000   1.0000   1.0000   1.0000   1.0000   1.0000
     1.0000   1.0000   1.0000   1.0000   1.0000   1.0000   1.0000   1.0000
     1.0000   1.0000   1.0000   1.0000   1.0000   1.0000   1.0000   1.0000
     1.0000   1.0000   1.0000   1.0000   1.0000   1.0000   1.0000   1.0000
     1.0000   1.0000   1.0000   1.0000   1.0000   1.0000   1.0000   1.0000
     1.0000   1.0000   1.0000   1.0000   0.0000   0.0000   0.0000   0.0000
     0.0000   0.0000   0.0000   0.0000   0.0000   0.0000   0.0000   0.0000
     0.0000   0.0000   0.0000   0.0000   0.0000   0.0000   0.0000   0.0000

 ------ SPIN DOWN ----------


          k = 0.0000 0.0000 0.0000 ( 87777 PWs)   bands (ev):

   -79.3661 -49.1433 -49.1395 -47.3640 -19.7377 -18.8956 -18.8950 -18.8142
   -18.8057 -18.8046 -18.4244 -17.0459 -17.0437 -17.0436 -16.9409 -16.9401
   -16.6553 -16.1862 -16.1855 -16.0966 -16.0241 -16.0222 -15.3371 -14.0548
   -14.0513 -13.9905 -13.9834 -13.9828 -13.3341 -13.0413 -13.0409 -13.0074
   -12.7195 -12.7186 -12.2847 -11.8037 -11.8027 -11.6362 -11.3632 -11.3613
   -10.4383  -9.6100  -9.6095  -9.4090  -9.2866  -9.2865  -9.2109  -9.1751
    -9.1751  -9.1678  -8.6827  -8.6800  -8.1192  -8.1185  -8.0340  -7.8782
    -7.8163  -7.4163  -7.4130  -7.2566  -7.1244  -7.0040  -6.8619  -6.8590
    -6.8403  -6.7716  -6.7675  -6.7290  -6.6996  -6.5459  -6.5447  -6.5219
    -6.5109  -6.5103  -6.4606  -6.1529  -5.4875  -5.4863  -5.3598  -5.3159
    -5.2447  -5.2447  -4.9707  -4.8731  -4.6833  -4.6772  -4.6421  -4.6402
    -4.3127  -4.1018  -4.1018  -4.0122  -4.0104  -3.7572  -3.7553  -3.7064
    -3.6512  -3.6511  -3.0450  -2.5034  -2.5000  -1.7802  -1.7798  -1.7327
    -0.8105  -0.5243  -0.5218   0.0378   1.0022   1.0044   1.0565   1.7346
     1.7422   1.7437   2.5169   2.8891   2.8934   2.9218   3.2710   3.2855
     3.5958   3.6502   3.6519   3.7095   3.7215   3.7469   3.7508   3.7591

     occupation numbers 
     1.0000   1.0000   1.0000   1.0000   1.0000   1.0000   1.0000   1.0000
     1.0000   1.0000   1.0000   1.0000   1.0000   1.0000   1.0000   1.0000
     1.0000   1.0000   1.0000   1.0000   1.0000   1.0000   1.0000   1.0000
     1.0000   1.0000   1.0000   1.0000   1.0000   1.0000   1.0000   1.0000
     1.0000   1.0000   1.0000   1.0000   1.0000   1.0000   1.0000   1.0000
     1.0000   1.0000   1.0000   1.0000   1.0000   1.0000   1.0000   1.0000
     1.0000   1.0000   1.0000   1.0000   1.0000   1.0000   1.0000   1.0000
     1.0000   1.0000   1.0000   1.0000   1.0000   1.0000   1.0000   1.0000
     1.0000   1.0000   1.0000   1.0000   1.0000   1.0000   1.0000   1.0000
     1.0000   1.0000   1.0000   1.0000   1.0000   1.0000   1.0000   1.0000
     1.0000   1.0000   1.0000   1.0000   1.0000   1.0000   1.0000   1.0000
     1.0000   1.0000   1.0000   1.0000   1.0000   1.0000   1.0000   1.0000
     1.0000   1.0000   1.0000   1.0000   1.0000   1.0000   1.0000   1.0000
     1.0000   0.0000   0.0000   0.0000   0.0000   0.0000   0.0000   0.0000
     0.0000   0.0000   0.0000   0.0000   0.0000   0.0000   0.0000   0.0000
     0.0000   0.0000   0.0000   0.0000   0.0000   0.0000   0.0000   0.0000

     the Fermi energy is    -0.6707 ev

!    total energy              =    -825.93629715 Ry
     Harris-Foulkes estimate   =    -825.93629694 Ry
     estimated scf accuracy    <       0.00000088 Ry

     The total energy is the sum of the following terms:

     one-electron contribution =   -2733.25932212 Ry
     hartree contribution      =    1411.45609069 Ry
     xc contribution           =    -259.68385517 Ry
     ewald contribution        =     755.55078945 Ry
     smearing contrib. (-TS)   =       0.00000000 Ry

     total magnetization       =     3.00 Bohr mag/cell
     absolute magnetization    =     4.30 Bohr mag/cell

     convergence has been achieved in  16 iterations

     Writing output data file distance-2.2.save/

     init_run     :     74.06s CPU     75.37s WALL (       1 calls)
     electrons    :   1912.22s CPU   1941.28s WALL (       1 calls)

     Called by init_run:
     wfcinit      :     43.93s CPU     44.21s WALL (       1 calls)
     wfcinit:atom :      0.05s CPU      0.08s WALL (       2 calls)
     wfcinit:wfcr :     43.53s CPU     43.71s WALL (       2 calls)
     potinit      :     12.32s CPU     12.70s WALL (       1 calls)
     hinit0       :      9.09s CPU      9.14s WALL (       1 calls)

     Called by electrons:
     c_bands      :   1325.62s CPU   1332.54s WALL (      16 calls)
     sum_band     :    341.26s CPU    350.27s WALL (      16 calls)
     v_of_rho     :    124.38s CPU    129.82s WALL (      17 calls)
     v_h          :      1.33s CPU      1.37s WALL (      17 calls)
     v_xc         :    123.05s CPU    128.45s WALL (      17 calls)
     newd         :    124.99s CPU    133.32s WALL (      17 calls)
     mix_rho      :      6.88s CPU      7.01s WALL (      16 calls)

     Called by c_bands:
     init_us_2    :      3.20s CPU      3.24s WALL (      66 calls)
     cegterg      :   1318.21s CPU   1325.10s WALL (      32 calls)

     Called by sum_band:
     sum_band:bec :      0.03s CPU      0.03s WALL (      32 calls)
     addusdens    :    208.20s CPU    216.42s WALL (      16 calls)

     Called by *egterg:
     h_psi        :    677.14s CPU    682.22s WALL (     172 calls)
     s_psi        :    229.65s CPU    229.71s WALL (     172 calls)
     g_psi        :      0.77s CPU      0.78s WALL (     138 calls)
     cdiaghg      :     15.14s CPU     15.15s WALL (     170 calls)
     cegterg:over :    176.94s CPU    177.01s WALL (     138 calls)
     cegterg:upda :    122.08s CPU    122.72s WALL (     138 calls)
     cegterg:last :     78.18s CPU     78.20s WALL (      34 calls)

     Called by h_psi:
     h_psi:pot    :    676.41s CPU    680.65s WALL (     172 calls)
     h_psi:calbec :    226.48s CPU    226.56s WALL (     172 calls)
     vloc_psi     :    220.34s CPU    224.44s WALL (     172 calls)
     add_vuspsi   :    229.59s CPU    229.64s WALL (     172 calls)

     General routines
     calbec       :    307.03s CPU    307.14s WALL (     204 calls)
     fft          :     74.17s CPU     76.52s WALL (    1269 calls)
     ffts         :      1.26s CPU      1.29s WALL (      66 calls)
     fftw         :    224.63s CPU    228.89s WALL (   27154 calls)
     interpolate  :      2.98s CPU      3.08s WALL (      34 calls)

     Parallel routines
     fft_scatt_xy :     54.98s CPU     55.73s WALL (   28489 calls)
     fft_scatt_yz :     97.29s CPU    102.12s WALL (   28489 calls)

     PWSCF        :  33m 7.67s CPU  33m38.32s WALL


   This run was terminated on:   5:11:41  10Aug2022            

=------------------------------------------------------------------------------=
   JOB DONE.
=------------------------------------------------------------------------------=
