
     Program PWSCF v.6.4.1 starts on 10Aug2022 at  4: 4:21 

     This program is part of the open-source Quantum ESPRESSO suite
     for quantum simulation of materials; please cite
         "P. Giannozzi et al., J. Phys.:Condens. Matter 21 395502 (2009);
         "P. Giannozzi et al., J. Phys.:Condens. Matter 29 465901 (2017);
          URL http://www.quantum-espresso.org", 
     in publications or presentations arising from this work. More details at
     http://www.quantum-espresso.org/quote

     Parallel version (MPI), running on     6 processors

     MPI processes distributed on     1 nodes
     R & G space division:  proc/nbgrp/npool/nimage =       6
     Reading input from distance-2.4.in

     Current dimensions of program PWSCF are:
     Max number of different atomic species (ntypx) = 10
     Max number of k-points (npk) =  40000
     Max angular momentum in pseudopotentials (lmaxx) =  3

     IMPORTANT: XC functional enforced from input :
     Exchange-correlation      = RVV10 ( 1  4 13  4 3 0)
     Any further DFT definition will be discarded
     Please, verify this is what you really want

               file H.pbe-rrkjus.UPF: wavefunction(s)  1S renormalized
               file Mn.pbe-spn-rrkjus_psl.0.3.1.UPF: wavefunction(s)  3D renormalized

     Subspace diagonalization in iterative solution of the eigenvalue problem:
     a serial algorithm will be used


     Parallelization info
     --------------------
     sticks:   dense  smooth     PW     G-vecs:    dense   smooth      PW
     Min        3051    1746    432               270999   117096   14629
     Max        3053    1747    437               271001   117099   14630
     Sum       18313   10477   2611              1626001   702581   87777



     bravais-lattice index     =            4
     lattice parameter (alat)  =      23.2937  a.u.
     unit-cell volume          =    8879.8548 (a.u.)^3
     number of atoms/cell      =           52
     number of atomic types    =            3
     number of electrons       =       213.00
     number of Kohn-Sham states=          128
     kinetic-energy cutoff     =      70.0000  Ry
     charge density cutoff     =     490.0000  Ry
     convergence threshold     =      1.0E-06
     mixing beta               =       0.7000
     number of iterations used =            8  plain     mixing
     Exchange-correlation      = RVV10 ( 1  4 13  4 3 0)

     celldm(1)=  23.293684  celldm(2)=   0.000000  celldm(3)=   0.811261
     celldm(4)=   0.000000  celldm(5)=   0.000000  celldm(6)=   0.000000

     crystal axes: (cart. coord. in units of alat)
               a(1) = (   1.000000   0.000000   0.000000 )  
               a(2) = (  -0.500000   0.866025   0.000000 )  
               a(3) = (   0.000000   0.000000   0.811261 )  

     reciprocal axes: (cart. coord. in units 2 pi/alat)
               b(1) = (  1.000000  0.577350 -0.000000 )  
               b(2) = (  0.000000  1.154701  0.000000 )  
               b(3) = (  0.000000 -0.000000  1.232649 )  


     PseudoPot. # 1 for H  read from file:
     /home/cristian/Escritorio/Proyecto_Grafeno/pseudopotenciales/H.pbe-rrkjus.UPF
     MD5 check sum: 7cc9d459525c9a0585f487a71c3c9563
     Pseudo is Ultrasoft, Zval =  1.0
     Generated by new atomic code, or converted to UPF format
     Using radial grid of 1061 points,  2 beta functions with: 
                l(1) =   0
                l(2) =   0
     Q(r) pseudized with 0 coefficients 


     PseudoPot. # 2 for C  read from file:
     /home/cristian/Escritorio/Proyecto_Grafeno/pseudopotenciales/C.pbe-n-rrkjus_psl.1.0.0.UPF
     MD5 check sum: 1fdd950c42eb37d8afe3dd2f8d12311e
     Pseudo is Ultrasoft + core correction, Zval =  4.0
     Generated using "atomic" code by A. Dal Corso v.6.3MaX
     Using radial grid of 1073 points,  4 beta functions with: 
                l(1) =   0
                l(2) =   0
                l(3) =   1
                l(4) =   1
     Q(r) pseudized with 0 coefficients 


     PseudoPot. # 3 for Mn read from file:
     /home/cristian/Escritorio/Proyecto_Grafeno/pseudopotenciales/Mn.pbe-spn-rrkjus_psl.0.3.1.UPF
     MD5 check sum: e1cac159bdd2ba70c18e85765a5d4279
     Pseudo is Ultrasoft + core correction, Zval = 15.0
     Generated using "atomic" code by A. Dal Corso v.6.2.2
     Using radial grid of 1187 points,  6 beta functions with: 
                l(1) =   0
                l(2) =   0
                l(3) =   1
                l(4) =   1
                l(5) =   2
                l(6) =   2
     Q(r) pseudized with 0 coefficients 


     vdW kernel table read from file rVV10_kernel_table
     MD5 check sum: b8e2538accc0c0b3206b45ba4daaba6c

     atomic species   valence    mass     pseudopotential
        H              1.00     1.00794     H ( 1.00)
        C              4.00    12.01070     C ( 1.00)
        Mn            15.00    54.93804     Mn( 1.00)

     Starting magnetic structure 
     atomic species   magnetization
        H            0.500
        C            0.300
        Mn           0.800

     No symmetry found


                                    s                        frac. trans.

      isym =  1     identity                                     

 cryst.   s( 1) = (     1          0          0      )
                  (     0          1          0      )
                  (     0          0          1      )

 cart.    s( 1) = (  1.0000000  0.0000000  0.0000000 )
                  (  0.0000000  1.0000000  0.0000000 )
                  (  0.0000000  0.0000000  1.0000000 )


     point group C_1 (1)    
     there are  1 classes
     the character table:

       E    
A      1.00

     the symmetry operations in each class and the name of the first element:

     E        1
          identity                                               

   Cartesian axes

     site n.     atom                  positions (alat units)
         1           H   tau(   1) = (   0.2500000   0.4907477   0.1947027  )
         2           H   tau(   2) = (   0.2500000   0.4907477   0.2557154  )
         3           C   tau(   3) = (   0.0000000   0.0000000   0.0000000  )
         4           C   tau(   4) = (   0.0000000   0.1154701   0.0000000  )
         5           C   tau(   5) = (  -0.1000000   0.1732051   0.0000000  )
         6           C   tau(   6) = (  -0.1000000   0.2886751   0.0000000  )
         7           C   tau(   7) = (  -0.2000000   0.3464102   0.0000000  )
         8           C   tau(   8) = (  -0.2000000   0.4618802   0.0000000  )
         9           C   tau(   9) = (  -0.3000000   0.5196152   0.0000000  )
        10           C   tau(  10) = (  -0.3000000   0.6350853   0.0000000  )
        11           C   tau(  11) = (  -0.4000000   0.6928203   0.0000000  )
        12           C   tau(  12) = (  -0.4000000   0.8082904   0.0000000  )
        13           C   tau(  13) = (   0.2000000   0.0000000   0.0000000  )
        14           C   tau(  14) = (   0.2000000   0.1154701   0.0000000  )
        15           C   tau(  15) = (   0.1000000   0.1732051   0.0000000  )
        16           C   tau(  16) = (   0.1000000   0.2886751   0.0000000  )
        17           C   tau(  17) = (   0.0000000   0.3464102   0.0000000  )
        18           C   tau(  18) = (   0.0000000   0.4618802   0.0000000  )
        19           C   tau(  19) = (  -0.1000000   0.5196152   0.0000000  )
        20           C   tau(  20) = (  -0.1000000   0.6350853   0.0000000  )
        21           C   tau(  21) = (  -0.2000000   0.6928203   0.0000000  )
        22           C   tau(  22) = (  -0.2000000   0.8082904   0.0000000  )
        23           C   tau(  23) = (   0.4000000   0.0000000   0.0000000  )
        24           C   tau(  24) = (   0.4000000   0.1154701   0.0000000  )
        25           C   tau(  25) = (   0.3000000   0.1732051   0.0000000  )
        26           C   tau(  26) = (   0.3000000   0.2886751   0.0000000  )
        27           C   tau(  27) = (   0.2000000   0.3464102   0.0000000  )
        28           Mn  tau(  28) = (   0.2000000   0.4618802   0.0000000  )
        29           C   tau(  29) = (   0.1000000   0.5196152   0.0000000  )
        30           C   tau(  30) = (   0.1000000   0.6350853   0.0000000  )
        31           C   tau(  31) = (   0.0000000   0.6928203   0.0000000  )
        32           C   tau(  32) = (   0.0000000   0.8082904   0.0000000  )
        33           C   tau(  33) = (   0.6000000   0.0000000   0.0000000  )
        34           C   tau(  34) = (   0.6000000   0.1154701   0.0000000  )
        35           C   tau(  35) = (   0.5000000   0.1732051   0.0000000  )
        36           C   tau(  36) = (   0.5000000   0.2886751   0.0000000  )
        37           C   tau(  37) = (   0.4000000   0.3464102   0.0000000  )
        38           C   tau(  38) = (   0.4000000   0.4618802   0.0000000  )
        39           C   tau(  39) = (   0.3000000   0.5196152   0.0000000  )
        40           C   tau(  40) = (   0.3000000   0.6350853   0.0000000  )
        41           C   tau(  41) = (   0.2000000   0.6928203   0.0000000  )
        42           C   tau(  42) = (   0.2000000   0.8082904   0.0000000  )
        43           C   tau(  43) = (   0.8000000   0.0000000   0.0000000  )
        44           C   tau(  44) = (   0.8000000   0.1154701   0.0000000  )
        45           C   tau(  45) = (   0.7000000   0.1732051   0.0000000  )
        46           C   tau(  46) = (   0.7000000   0.2886751   0.0000000  )
        47           C   tau(  47) = (   0.6000000   0.3464102   0.0000000  )
        48           C   tau(  48) = (   0.6000000   0.4618802   0.0000000  )
        49           C   tau(  49) = (   0.5000000   0.5196152   0.0000000  )
        50           C   tau(  50) = (   0.5000000   0.6350853   0.0000000  )
        51           C   tau(  51) = (   0.4000000   0.6928203   0.0000000  )
        52           C   tau(  52) = (   0.4000000   0.8082904   0.0000000  )

   Crystallographic axes

     site n.     atom                  positions (cryst. coord.)
         1           H   tau(   1) = (  0.5333333  0.5666667  0.2400000  )
         2           H   tau(   2) = (  0.5333333  0.5666667  0.3152072  )
         3           C   tau(   3) = (  0.0000000  0.0000000  0.0000000  )
         4           C   tau(   4) = (  0.0666667  0.1333333  0.0000000  )
         5           C   tau(   5) = (  0.0000000  0.2000000  0.0000000  )
         6           C   tau(   6) = (  0.0666667  0.3333333  0.0000000  )
         7           C   tau(   7) = (  0.0000000  0.4000000  0.0000000  )
         8           C   tau(   8) = (  0.0666667  0.5333333  0.0000000  )
         9           C   tau(   9) = (  0.0000000  0.6000000  0.0000000  )
        10           C   tau(  10) = (  0.0666667  0.7333333  0.0000000  )
        11           C   tau(  11) = (  0.0000000  0.8000000  0.0000000  )
        12           C   tau(  12) = (  0.0666667  0.9333333  0.0000000  )
        13           C   tau(  13) = (  0.2000000  0.0000000  0.0000000  )
        14           C   tau(  14) = (  0.2666667  0.1333333  0.0000000  )
        15           C   tau(  15) = (  0.2000000  0.2000000  0.0000000  )
        16           C   tau(  16) = (  0.2666667  0.3333333  0.0000000  )
        17           C   tau(  17) = (  0.2000000  0.4000000  0.0000000  )
        18           C   tau(  18) = (  0.2666667  0.5333333  0.0000000  )
        19           C   tau(  19) = (  0.2000000  0.6000000  0.0000000  )
        20           C   tau(  20) = (  0.2666667  0.7333333  0.0000000  )
        21           C   tau(  21) = (  0.2000000  0.8000000  0.0000000  )
        22           C   tau(  22) = (  0.2666667  0.9333333  0.0000000  )
        23           C   tau(  23) = (  0.4000000  0.0000000  0.0000000  )
        24           C   tau(  24) = (  0.4666667  0.1333333  0.0000000  )
        25           C   tau(  25) = (  0.4000000  0.2000000  0.0000000  )
        26           C   tau(  26) = (  0.4666667  0.3333333  0.0000000  )
        27           C   tau(  27) = (  0.4000000  0.4000000  0.0000000  )
        28           Mn  tau(  28) = (  0.4666667  0.5333333  0.0000000  )
        29           C   tau(  29) = (  0.4000000  0.6000000  0.0000000  )
        30           C   tau(  30) = (  0.4666667  0.7333333  0.0000000  )
        31           C   tau(  31) = (  0.4000000  0.8000000  0.0000000  )
        32           C   tau(  32) = (  0.4666667  0.9333333  0.0000000  )
        33           C   tau(  33) = (  0.6000000  0.0000000  0.0000000  )
        34           C   tau(  34) = (  0.6666667  0.1333333  0.0000000  )
        35           C   tau(  35) = (  0.6000000  0.2000000  0.0000000  )
        36           C   tau(  36) = (  0.6666667  0.3333333  0.0000000  )
        37           C   tau(  37) = (  0.6000000  0.4000000  0.0000000  )
        38           C   tau(  38) = (  0.6666667  0.5333333  0.0000000  )
        39           C   tau(  39) = (  0.6000000  0.6000000  0.0000000  )
        40           C   tau(  40) = (  0.6666667  0.7333333  0.0000000  )
        41           C   tau(  41) = (  0.6000000  0.8000000  0.0000000  )
        42           C   tau(  42) = (  0.6666667  0.9333333  0.0000000  )
        43           C   tau(  43) = (  0.8000000  0.0000000  0.0000000  )
        44           C   tau(  44) = (  0.8666667  0.1333333  0.0000000  )
        45           C   tau(  45) = (  0.8000000  0.2000000  0.0000000  )
        46           C   tau(  46) = (  0.8666667  0.3333333  0.0000000  )
        47           C   tau(  47) = (  0.8000000  0.4000000  0.0000000  )
        48           C   tau(  48) = (  0.8666667  0.5333333  0.0000000  )
        49           C   tau(  49) = (  0.8000000  0.6000000  0.0000000  )
        50           C   tau(  50) = (  0.8666667  0.7333333  0.0000000  )
        51           C   tau(  51) = (  0.8000000  0.8000000  0.0000000  )
        52           C   tau(  52) = (  0.8666667  0.9333333  0.0000000  )

     number of k points=     1  Marzari-Vanderbilt smearing, width (Ry)=  0.0010
                       cart. coord. in units 2pi/alat
        k(    1) = (   0.0000000   0.0000000   0.0000000), wk =   1.0000000

                       cryst. coord.
        k(    1) = (   0.0000000   0.0000000   0.0000000), wk =   1.0000000

     Dense  grid:  1626001 G-vectors     FFT dimensions: ( 180, 180, 135)

     Smooth grid:   702581 G-vectors     FFT dimensions: ( 125, 125, 108)

     Dynamical RAM for                 wfc:      28.59 MB

     Dynamical RAM for     wfc (w. buffer):      85.76 MB

     Dynamical RAM for           str. fact:      12.41 MB

     Dynamical RAM for           local pot:       0.00 MB

     Dynamical RAM for          nlocal pot:      92.46 MB

     Dynamical RAM for                qrad:      19.73 MB

     Dynamical RAM for          rho,v,vnew:      58.92 MB

     Dynamical RAM for               rhoin:      19.64 MB

     Dynamical RAM for            rho*nmix:     132.32 MB

     Dynamical RAM for           G-vectors:      16.40 MB

     Dynamical RAM for          h,s,v(r/c):      12.00 MB

     Dynamical RAM for          <psi|beta>:       0.81 MB

     Dynamical RAM for                 psi:     114.35 MB

     Dynamical RAM for                hpsi:     114.35 MB

     Dynamical RAM for                spsi:     114.35 MB

     Dynamical RAM for      wfcinit/wfcrot:      93.90 MB

     Dynamical RAM for           addusdens:     975.89 MB

     Estimated static dynamical RAM per process >     488.30 MB

     Estimated max dynamical RAM per process >       1.43 GB

     Estimated total dynamical RAM >       8.58 GB
     Generating pointlists ...
     new r_m :   0.0252 (alat units)  0.5862 (a.u.) for type    1
     new r_m :   0.0476 (alat units)  1.1095 (a.u.) for type    2
     new r_m :   0.0476 (alat units)  1.1095 (a.u.) for type    3

     Check: negative core charge=   -0.000002

     Initial potential from superposition of free atoms

     starting charge  212.80506, renormalised to  213.00000

     negative rho (up, down):  7.251E-05 1.093E-02


---------------------------------------------------------------------------------
Carrying out rVV10 run using the following parameters:
Nqs =      20    Nr_points =    1024   r_max =   100.000
b_value =  6.30000    beta =  0.00901
     q_mesh =  0.00010000  0.00030000  0.00058939  0.00100810
               0.00161396  0.00249058  0.00375900  0.00559430
               0.00824984  0.01209221  0.01765183  0.02569619
               0.03733578  0.05417739  0.07854596  0.11380545
               0.16482331  0.23864234  0.34545298  0.50000000

Gradients computed in Reciprocal space

---------------------------------------------------------------------------------


     Starting wfcs are  208 randomized atomic wfcs

     total cpu time spent up to now is       74.8 secs

     Self-consistent Calculation

     iteration #  1     ecut=    70.00 Ry     beta= 0.70
     Davidson diagonalization with overlap
     ethr =  1.00E-02,  avg # of iterations =  2.5

     negative rho (up, down):  1.455E-04 1.027E-02

     total cpu time spent up to now is      206.8 secs

     total energy              =    -821.90313824 Ry
     Harris-Foulkes estimate   =    -824.97858043 Ry
     estimated scf accuracy    <      11.32781712 Ry

     total magnetization       =     7.00 Bohr mag/cell
     absolute magnetization    =     7.38 Bohr mag/cell

     iteration #  2     ecut=    70.00 Ry     beta= 0.70
     Davidson diagonalization with overlap
     ethr =  5.32E-03,  avg # of iterations =  7.0

     negative rho (up, down):  1.810E-04 1.103E-02

     total cpu time spent up to now is      331.4 secs

     total energy              =    -812.28915973 Ry
     Harris-Foulkes estimate   =    -834.35958261 Ry
     estimated scf accuracy    <      93.19696690 Ry

     total magnetization       =     3.00 Bohr mag/cell
     absolute magnetization    =     3.21 Bohr mag/cell

     iteration #  3     ecut=    70.00 Ry     beta= 0.70
     Davidson diagonalization with overlap
     ethr =  5.32E-03,  avg # of iterations =  5.0

     negative rho (up, down):  2.315E-04 8.192E-03

     total cpu time spent up to now is      515.1 secs

     total energy              =    -823.80206496 Ry
     Harris-Foulkes estimate   =    -827.13744644 Ry
     estimated scf accuracy    <      18.94794084 Ry

     total magnetization       =     7.00 Bohr mag/cell
     absolute magnetization    =     7.05 Bohr mag/cell

     iteration #  4     ecut=    70.00 Ry     beta= 0.70
     Davidson diagonalization with overlap
     ethr =  5.32E-03,  avg # of iterations =  3.5

     negative rho (up, down):  2.720E-04 9.383E-03

     total cpu time spent up to now is      614.5 secs

     total energy              =    -825.29939945 Ry
     Harris-Foulkes estimate   =    -826.42674532 Ry
     estimated scf accuracy    <       3.43209161 Ry

     total magnetization       =     3.00 Bohr mag/cell
     absolute magnetization    =     3.37 Bohr mag/cell

     iteration #  5     ecut=    70.00 Ry     beta= 0.70
     Davidson diagonalization with overlap
     ethr =  1.61E-03,  avg # of iterations =  3.5

     negative rho (up, down):  3.539E-04 1.695E-02

     total cpu time spent up to now is      724.9 secs

     total energy              =    -825.79575253 Ry
     Harris-Foulkes estimate   =    -825.98949426 Ry
     estimated scf accuracy    <       0.54586673 Ry

     total magnetization       =     3.00 Bohr mag/cell
     absolute magnetization    =     3.35 Bohr mag/cell

     iteration #  6     ecut=    70.00 Ry     beta= 0.70
     Davidson diagonalization with overlap
     ethr =  2.56E-04,  avg # of iterations =  5.0

     negative rho (up, down):  5.850E-04 7.004E-03

     total cpu time spent up to now is      839.3 secs

     total energy              =    -825.90862875 Ry
     Harris-Foulkes estimate   =    -825.95353911 Ry
     estimated scf accuracy    <       0.14147793 Ry

     total magnetization       =     3.00 Bohr mag/cell
     absolute magnetization    =     3.37 Bohr mag/cell

     iteration #  7     ecut=    70.00 Ry     beta= 0.70
     Davidson diagonalization with overlap
     ethr =  6.64E-05,  avg # of iterations =  7.0

     negative rho (up, down):  6.488E-04 5.838E-03

     total cpu time spent up to now is      949.8 secs

     total energy              =    -825.92990298 Ry
     Harris-Foulkes estimate   =    -825.94568831 Ry
     estimated scf accuracy    <       0.03974635 Ry

     total magnetization       =     3.00 Bohr mag/cell
     absolute magnetization    =     3.59 Bohr mag/cell

     iteration #  8     ecut=    70.00 Ry     beta= 0.70
     Davidson diagonalization with overlap
     ethr =  1.87E-05,  avg # of iterations =  6.5

     negative rho (up, down):  6.572E-04 5.776E-03

     total cpu time spent up to now is     1064.4 secs

     total energy              =    -825.93836066 Ry
     Harris-Foulkes estimate   =    -825.94073572 Ry
     estimated scf accuracy    <       0.00785773 Ry

     total magnetization       =     3.00 Bohr mag/cell
     absolute magnetization    =     3.71 Bohr mag/cell

     iteration #  9     ecut=    70.00 Ry     beta= 0.70
     Davidson diagonalization with overlap
     ethr =  3.69E-06,  avg # of iterations =  8.0

     negative rho (up, down):  6.541E-04 5.782E-03

     total cpu time spent up to now is     1182.8 secs

     total energy              =    -825.94025898 Ry
     Harris-Foulkes estimate   =    -825.94072584 Ry
     estimated scf accuracy    <       0.00209018 Ry

     total magnetization       =     3.00 Bohr mag/cell
     absolute magnetization    =     3.84 Bohr mag/cell

     iteration # 10     ecut=    70.00 Ry     beta= 0.70
     Davidson diagonalization with overlap
     ethr =  9.81E-07,  avg # of iterations =  3.5

     negative rho (up, down):  6.555E-04 5.864E-03

     total cpu time spent up to now is     1289.8 secs

     total energy              =    -825.94078448 Ry
     Harris-Foulkes estimate   =    -825.94080345 Ry
     estimated scf accuracy    <       0.00049956 Ry

     total magnetization       =     3.00 Bohr mag/cell
     absolute magnetization    =     3.93 Bohr mag/cell

     iteration # 11     ecut=    70.00 Ry     beta= 0.70
     Davidson diagonalization with overlap
     ethr =  2.35E-07,  avg # of iterations =  3.0

     negative rho (up, down):  6.566E-04 5.920E-03

     total cpu time spent up to now is     1400.9 secs

     total energy              =    -825.94105395 Ry
     Harris-Foulkes estimate   =    -825.94095866 Ry
     estimated scf accuracy    <       0.00016307 Ry

     total magnetization       =     3.00 Bohr mag/cell
     absolute magnetization    =     4.01 Bohr mag/cell

     iteration # 12     ecut=    70.00 Ry     beta= 0.70
     Davidson diagonalization with overlap
     ethr =  7.66E-08,  avg # of iterations =  3.0

     negative rho (up, down):  6.518E-04 6.022E-03

     total cpu time spent up to now is     1530.2 secs

     total energy              =    -825.94116920 Ry
     Harris-Foulkes estimate   =    -825.94113453 Ry
     estimated scf accuracy    <       0.00003281 Ry

     total magnetization       =     3.00 Bohr mag/cell
     absolute magnetization    =     4.13 Bohr mag/cell

     iteration # 13     ecut=    70.00 Ry     beta= 0.70
     Davidson diagonalization with overlap
     ethr =  1.54E-08,  avg # of iterations =  3.0

     negative rho (up, down):  6.555E-04 6.023E-03

     total cpu time spent up to now is     1662.7 secs

     total energy              =    -825.94120184 Ry
     Harris-Foulkes estimate   =    -825.94119551 Ry
     estimated scf accuracy    <       0.00002604 Ry

     total magnetization       =     3.00 Bohr mag/cell
     absolute magnetization    =     4.20 Bohr mag/cell

     iteration # 14     ecut=    70.00 Ry     beta= 0.70
     Davidson diagonalization with overlap
     ethr =  1.22E-08,  avg # of iterations =  3.0

     negative rho (up, down):  6.544E-04 6.078E-03

     total cpu time spent up to now is     1774.2 secs

     total energy              =    -825.94121600 Ry
     Harris-Foulkes estimate   =    -825.94121622 Ry
     estimated scf accuracy    <       0.00003852 Ry

     total magnetization       =     3.00 Bohr mag/cell
     absolute magnetization    =     4.23 Bohr mag/cell

     iteration # 15     ecut=    70.00 Ry     beta= 0.70
     Davidson diagonalization with overlap
     ethr =  1.22E-08,  avg # of iterations =  3.0

     negative rho (up, down):  6.541E-04 6.105E-03

     total cpu time spent up to now is     1892.7 secs

     total energy              =    -825.94123017 Ry
     Harris-Foulkes estimate   =    -825.94122901 Ry
     estimated scf accuracy    <       0.00000494 Ry

     total magnetization       =     3.00 Bohr mag/cell
     absolute magnetization    =     4.28 Bohr mag/cell

     iteration # 16     ecut=    70.00 Ry     beta= 0.70
     Davidson diagonalization with overlap
     ethr =  2.32E-09,  avg # of iterations =  3.0

     negative rho (up, down):  6.544E-04 6.119E-03

     Magnetic moment per site:
     atom:    1    charge:    0.2114    magn:   -0.0006    constr:    0.0000
     atom:    2    charge:    0.2121    magn:    0.0073    constr:    0.0000
     atom:    3    charge:    1.7170    magn:   -0.0126    constr:    0.0000
     atom:    4    charge:    1.7155    magn:    0.0178    constr:    0.0000
     atom:    5    charge:    1.7177    magn:   -0.0095    constr:    0.0000
     atom:    6    charge:    1.7143    magn:    0.0060    constr:    0.0000
     atom:    7    charge:    1.7177    magn:   -0.0095    constr:    0.0000
     atom:    8    charge:    1.7155    magn:    0.0178    constr:    0.0000
     atom:    9    charge:    1.7170    magn:   -0.0126    constr:    0.0000
     atom:   10    charge:    1.7154    magn:    0.0575    constr:    0.0000
     atom:   11    charge:    1.7175    magn:   -0.0178    constr:    0.0000
     atom:   12    charge:    1.7154    magn:    0.0575    constr:    0.0000
     atom:   13    charge:    1.7175    magn:   -0.0178    constr:    0.0000
     atom:   14    charge:    1.7159    magn:    0.0460    constr:    0.0000
     atom:   15    charge:    1.7144    magn:   -0.0146    constr:    0.0000
     atom:   16    charge:    1.7124    magn:    0.0615    constr:    0.0000
     atom:   17    charge:    1.7236    magn:   -0.0139    constr:    0.0000
     atom:   18    charge:    1.7124    magn:    0.0615    constr:    0.0000
     atom:   19    charge:    1.7144    magn:   -0.0146    constr:    0.0000
     atom:   20    charge:    1.7159    magn:    0.0460    constr:    0.0000
     atom:   21    charge:    1.7175    magn:   -0.0178    constr:    0.0000
     atom:   22    charge:    1.7154    magn:    0.0576    constr:    0.0000
     atom:   23    charge:    1.7170    magn:   -0.0126    constr:    0.0000
     atom:   24    charge:    1.7155    magn:    0.0178    constr:    0.0000
     atom:   25    charge:    1.7144    magn:   -0.0147    constr:    0.0000
     atom:   26    charge:    1.7124    magn:    0.0615    constr:    0.0000
     atom:   27    charge:    1.8741    magn:   -0.0296    constr:    0.0000
     atom:   28    charge:   10.0212    magn:    0.7883    constr:    0.0000
     atom:   29    charge:    1.8741    magn:   -0.0296    constr:    0.0000
     atom:   30    charge:    1.7124    magn:    0.0615    constr:    0.0000
     atom:   31    charge:    1.7144    magn:   -0.0147    constr:    0.0000
     atom:   32    charge:    1.7155    magn:    0.0178    constr:    0.0000
     atom:   33    charge:    1.7177    magn:   -0.0096    constr:    0.0000
     atom:   34    charge:    1.7141    magn:    0.0124    constr:    0.0000
     atom:   35    charge:    1.7177    magn:   -0.0096    constr:    0.0000
     atom:   36    charge:    1.7143    magn:    0.0060    constr:    0.0000
     atom:   37    charge:    1.7235    magn:   -0.0139    constr:    0.0000
     atom:   38    charge:    1.7127    magn:    0.0610    constr:    0.0000
     atom:   39    charge:    1.8748    magn:   -0.0295    constr:    0.0000
     atom:   40    charge:    1.7127    magn:    0.0610    constr:    0.0000
     atom:   41    charge:    1.7235    magn:   -0.0139    constr:    0.0000
     atom:   42    charge:    1.7143    magn:    0.0060    constr:    0.0000
     atom:   43    charge:    1.7176    magn:   -0.0095    constr:    0.0000
     atom:   44    charge:    1.7141    magn:    0.0124    constr:    0.0000
     atom:   45    charge:    1.7232    magn:   -0.0067    constr:    0.0000
     atom:   46    charge:    1.7141    magn:    0.0124    constr:    0.0000
     atom:   47    charge:    1.7176    magn:   -0.0095    constr:    0.0000
     atom:   48    charge:    1.7156    magn:    0.0177    constr:    0.0000
     atom:   49    charge:    1.7143    magn:   -0.0145    constr:    0.0000
     atom:   50    charge:    1.7160    magn:    0.0458    constr:    0.0000
     atom:   51    charge:    1.7143    magn:   -0.0145    constr:    0.0000
     atom:   52    charge:    1.7156    magn:    0.0177    constr:    0.0000

     total cpu time spent up to now is     2021.5 secs

     End of self-consistent calculation

 ------ SPIN UP ------------


          k = 0.0000 0.0000 0.0000 ( 87777 PWs)   bands (ev):

   -80.7149 -50.2204 -50.2191 -49.1360 -19.7805 -18.9449 -18.9447 -18.8528
   -18.8331 -18.8325 -18.4902 -17.0823 -17.0822 -17.0764 -16.9977 -16.9974
   -16.6857 -16.2374 -16.2370 -16.1288 -16.0683 -16.0672 -15.3682 -14.1281
   -14.1264 -14.0605 -13.9945 -13.9941 -13.3288 -13.0688 -13.0684 -13.0413
   -12.7395 -12.7388 -12.3224 -11.8470 -11.8463 -11.6623 -11.3878 -11.3868
   -10.4754  -9.6792  -9.6791  -9.4413  -9.3228  -9.3226  -9.2281  -9.2009
    -9.2009  -9.1864  -8.6985  -8.6972  -8.1704  -8.1698  -8.0655  -7.9628
    -7.8357  -7.4315  -7.4302  -7.2966  -7.1999  -7.1968  -6.9485  -6.9223
    -6.9211  -6.8297  -6.8291  -6.7915  -6.7172  -6.5663  -6.5654  -6.5346
    -6.5250  -6.5247  -6.4793  -6.3312  -5.6477  -5.6256  -5.5271  -5.5266
    -5.3234  -5.3234  -5.0360  -4.9856  -4.8857  -4.7528  -4.7338  -4.7327
    -4.3967  -4.2340  -4.2331  -4.2213  -4.2211  -3.8934  -3.8927  -3.7945
    -3.6714  -3.6714  -3.1329  -2.7613  -2.7600  -1.9035  -1.8058  -1.8054
    -1.3910  -1.1210  -1.1200  -0.8483   0.8985   0.9603   0.9618   1.5603
     1.5636   1.5725   2.4959   2.7521   2.7543   2.8520   2.9978   3.0079
     3.4415   3.4647   3.4670   3.6551   3.6573   3.7292   3.7382   3.7425

     occupation numbers 
     1.0000   1.0000   1.0000   1.0000   1.0000   1.0000   1.0000   1.0000
     1.0000   1.0000   1.0000   1.0000   1.0000   1.0000   1.0000   1.0000
     1.0000   1.0000   1.0000   1.0000   1.0000   1.0000   1.0000   1.0000
     1.0000   1.0000   1.0000   1.0000   1.0000   1.0000   1.0000   1.0000
     1.0000   1.0000   1.0000   1.0000   1.0000   1.0000   1.0000   1.0000
     1.0000   1.0000   1.0000   1.0000   1.0000   1.0000   1.0000   1.0000
     1.0000   1.0000   1.0000   1.0000   1.0000   1.0000   1.0000   1.0000
     1.0000   1.0000   1.0000   1.0000   1.0000   1.0000   1.0000   1.0000
     1.0000   1.0000   1.0000   1.0000   1.0000   1.0000   1.0000   1.0000
     1.0000   1.0000   1.0000   1.0000   1.0000   1.0000   1.0000   1.0000
     1.0000   1.0000   1.0000   1.0000   1.0000   1.0000   1.0000   1.0000
     1.0000   1.0000   1.0000   1.0000   1.0000   1.0000   1.0000   1.0000
     1.0000   1.0000   1.0000   1.0000   1.0000   1.0000   1.0000   1.0000
     1.0000   1.0000   1.0000   1.0000   0.0000   0.0000   0.0000   0.0000
     0.0000   0.0000   0.0000   0.0000   0.0000   0.0000   0.0000   0.0000
     0.0000   0.0000   0.0000   0.0000   0.0000   0.0000   0.0000   0.0000

 ------ SPIN DOWN ----------


          k = 0.0000 0.0000 0.0000 ( 87777 PWs)   bands (ev):

   -79.3725 -49.1480 -49.1464 -47.3686 -19.7388 -18.8967 -18.8964 -18.8153
   -18.8067 -18.8060 -18.4252 -17.0472 -17.0449 -17.0448 -16.9418 -16.9414
   -16.6562 -16.1873 -16.1869 -16.0978 -16.0247 -16.0237 -15.3374 -14.0551
   -14.0531 -13.9920 -13.9844 -13.9841 -13.3351 -13.0424 -13.0421 -13.0086
   -12.7202 -12.7198 -12.2853 -11.8048 -11.8041 -11.6374 -11.3636 -11.3627
   -10.4378  -9.6112  -9.6110  -9.4105  -9.2878  -9.2878  -9.2121  -9.1763
    -9.1763  -9.1689  -8.6826  -8.6814  -8.1205  -8.1201  -8.0342  -7.8633
    -7.8177  -7.4147  -7.4140  -7.1592  -7.0961  -7.0046  -6.8610  -6.8605
    -6.8051  -6.7725  -6.7667  -6.7226  -6.7011  -6.5469  -6.5461  -6.5231
    -6.5120  -6.5116  -6.4618  -6.1927  -5.4889  -5.4883  -5.3607  -5.3391
    -5.2462  -5.2462  -4.9720  -4.8744  -4.6861  -4.6782  -4.6427  -4.6413
    -4.3217  -4.1035  -4.1030  -4.0146  -4.0135  -3.7578  -3.7564  -3.7076
    -3.6524  -3.6524  -3.0616  -2.5032  -2.5011  -1.7812  -1.7809  -1.7337
    -0.8181  -0.5239  -0.5225  -0.0124   1.0019   1.0034   1.0556   1.7337
     1.7407   1.7424   2.5238   2.8891   2.8922   2.9206   3.2812   3.2906
     3.5989   3.6501   3.6510   3.7035   3.7150   3.7464   3.7502   3.7582

     occupation numbers 
     1.0000   1.0000   1.0000   1.0000   1.0000   1.0000   1.0000   1.0000
     1.0000   1.0000   1.0000   1.0000   1.0000   1.0000   1.0000   1.0000
     1.0000   1.0000   1.0000   1.0000   1.0000   1.0000   1.0000   1.0000
     1.0000   1.0000   1.0000   1.0000   1.0000   1.0000   1.0000   1.0000
     1.0000   1.0000   1.0000   1.0000   1.0000   1.0000   1.0000   1.0000
     1.0000   1.0000   1.0000   1.0000   1.0000   1.0000   1.0000   1.0000
     1.0000   1.0000   1.0000   1.0000   1.0000   1.0000   1.0000   1.0000
     1.0000   1.0000   1.0000   1.0000   1.0000   1.0000   1.0000   1.0000
     1.0000   1.0000   1.0000   1.0000   1.0000   1.0000   1.0000   1.0000
     1.0000   1.0000   1.0000   1.0000   1.0000   1.0000   1.0000   1.0000
     1.0000   1.0000   1.0000   1.0000   1.0000   1.0000   1.0000   1.0000
     1.0000   1.0000   1.0000   1.0000   1.0000   1.0000   1.0000   1.0000
     1.0000   1.0000   1.0000   1.0000   1.0000   1.0000   1.0000   1.0000
     1.0000   0.0000   0.0000   0.0000   0.0000   0.0000   0.0000   0.0000
     0.0000   0.0000   0.0000   0.0000   0.0000   0.0000   0.0000   0.0000
     0.0000   0.0000   0.0000   0.0000   0.0000   0.0000   0.0000   0.0000

     the Fermi energy is    -0.6721 ev

!    total energy              =    -825.94123317 Ry
     Harris-Foulkes estimate   =    -825.94123295 Ry
     estimated scf accuracy    <       0.00000100 Ry

     The total energy is the sum of the following terms:

     one-electron contribution =   -2728.40949498 Ry
     hartree contribution      =    1409.01765217 Ry
     xc contribution           =    -259.66947632 Ry
     ewald contribution        =     753.12008596 Ry
     smearing contrib. (-TS)   =       0.00000000 Ry

     total magnetization       =     3.00 Bohr mag/cell
     absolute magnetization    =     4.30 Bohr mag/cell

     convergence has been achieved in  16 iterations

     Writing output data file distance-2.4.save/

     init_run     :     72.29s CPU     73.69s WALL (       1 calls)
     electrons    :   1916.74s CPU   1946.83s WALL (       1 calls)

     Called by init_run:
     wfcinit      :     43.80s CPU     44.07s WALL (       1 calls)
     wfcinit:atom :      0.05s CPU      0.09s WALL (       2 calls)
     wfcinit:wfcr :     43.40s CPU     43.59s WALL (       2 calls)
     potinit      :     11.87s CPU     12.39s WALL (       1 calls)
     hinit0       :      7.99s CPU      8.03s WALL (       1 calls)

     Called by electrons:
     c_bands      :   1326.94s CPU   1333.75s WALL (      16 calls)
     sum_band     :    342.97s CPU    352.40s WALL (      16 calls)
     v_of_rho     :    125.30s CPU    131.28s WALL (      17 calls)
     v_h          :      1.37s CPU      1.39s WALL (      17 calls)
     v_xc         :    123.93s CPU    129.89s WALL (      17 calls)
     newd         :    125.29s CPU    133.94s WALL (      17 calls)
     mix_rho      :      6.99s CPU      7.09s WALL (      16 calls)

     Called by c_bands:
     init_us_2    :      3.21s CPU      3.25s WALL (      66 calls)
     cegterg      :   1318.76s CPU   1325.54s WALL (      32 calls)

     Called by sum_band:
     sum_band:bec :      0.03s CPU      0.03s WALL (      32 calls)
     addusdens    :    207.19s CPU    215.84s WALL (      16 calls)

     Called by *egterg:
     h_psi        :    676.41s CPU    681.18s WALL (     173 calls)
     s_psi        :    228.39s CPU    228.55s WALL (     173 calls)
     g_psi        :      0.78s CPU      0.79s WALL (     139 calls)
     cdiaghg      :     15.98s CPU     15.99s WALL (     171 calls)
     cegterg:over :    181.09s CPU    181.16s WALL (     139 calls)
     cegterg:upda :    124.28s CPU    124.96s WALL (     139 calls)
     cegterg:last :     71.72s CPU     71.75s WALL (      33 calls)

     Called by h_psi:
     h_psi:pot    :    675.71s CPU    679.60s WALL (     173 calls)
     h_psi:calbec :    226.51s CPU    226.63s WALL (     173 calls)
     vloc_psi     :    221.55s CPU    225.25s WALL (     173 calls)
     add_vuspsi   :    227.65s CPU    227.72s WALL (     173 calls)

     General routines
     calbec       :    307.12s CPU    307.27s WALL (     205 calls)
     fft          :     76.40s CPU     78.73s WALL (    1269 calls)
     ffts         :      1.39s CPU      1.42s WALL (      66 calls)
     fftw         :    227.80s CPU    231.71s WALL (   27112 calls)
     interpolate  :      3.10s CPU      3.18s WALL (      34 calls)

     Parallel routines
     fft_scatt_xy :     55.64s CPU     56.32s WALL (   28447 calls)
     fft_scatt_yz :    103.21s CPU    107.74s WALL (   28447 calls)

     PWSCF        :  33m10.34s CPU  33m42.17s WALL


   This run was terminated on:   4:38: 3  10Aug2022            

=------------------------------------------------------------------------------=
   JOB DONE.
=------------------------------------------------------------------------------=
