
     Program PWSCF v.6.4.1 starts on  9Mar2022 at 23:30:34 

     This program is part of the open-source Quantum ESPRESSO suite
     for quantum simulation of materials; please cite
         "P. Giannozzi et al., J. Phys.:Condens. Matter 21 395502 (2009);
         "P. Giannozzi et al., J. Phys.:Condens. Matter 29 465901 (2017);
          URL http://www.quantum-espresso.org", 
     in publications or presentations arising from this work. More details at
     http://www.quantum-espresso.org/quote

     Parallel version (MPI), running on     6 processors

     MPI processes distributed on     1 nodes
     R & G space division:  proc/nbgrp/npool/nimage =       6
     Reading input from degauss-0.03.in

     Current dimensions of program PWSCF are:
     Max number of different atomic species (ntypx) = 10
     Max number of k-points (npk) =  40000
     Max angular momentum in pseudopotentials (lmaxx) =  3
               file Cr.pbe-spn-rrkjus_psl.1.0.0.UPF: wavefunction(s)  3P renormalized
               file Cr.pbe-spn-rrkjus_psl.1.0.0.UPF: wavefunction(s)  3P renormalized

     Subspace diagonalization in iterative solution of the eigenvalue problem:
     a serial algorithm will be used

     Message from routine setup:
     DEPRECATED: symmetry with ibrav=0, use correct ibrav instead

     Parallelization info
     --------------------
     sticks:   dense  smooth     PW     G-vecs:    dense   smooth      PW
     Min         320     129     38                10576     2689     433
     Max         321     131     40                10577     2690     434
     Sum        1925     777    233                63461    16135    2601



     bravais-lattice index     =            0
     lattice parameter (alat)  =       5.4991  a.u.
     unit-cell volume          =     166.2936 (a.u.)^3
     number of atoms/cell      =            2
     number of atomic types    =            2
     number of electrons       =        28.00
     number of Kohn-Sham states=           18
     kinetic-energy cutoff     =      80.0000  Ry
     charge density cutoff     =     800.0000  Ry
     convergence threshold     =      1.0E-06
     mixing beta               =       0.7000
     number of iterations used =            8  plain     mixing
     Exchange-correlation      = PBE ( 1  4  3  4 0 0)

     celldm(1)=   5.499103  celldm(2)=   0.000000  celldm(3)=   0.000000
     celldm(4)=   0.000000  celldm(5)=   0.000000  celldm(6)=   0.000000

     crystal axes: (cart. coord. in units of alat)
               a(1) = (   1.000000   0.000000   0.000000 )  
               a(2) = (   0.000000   1.000000   0.000000 )  
               a(3) = (   0.000000   0.000000   1.000000 )  

     reciprocal axes: (cart. coord. in units 2 pi/alat)
               b(1) = (  1.000000  0.000000  0.000000 )  
               b(2) = (  0.000000  1.000000  0.000000 )  
               b(3) = (  0.000000  0.000000  1.000000 )  


     PseudoPot. # 1 for Cr read from file:
     /home/cristian/Escritorio/Proyecto_Grafeno/pseudopotenciales/Cr.pbe-spn-rrkjus_psl.1.0.0.UPF
     MD5 check sum: 793d051e4f89dd1e3290b85340a92c0a
     Pseudo is Ultrasoft + core correction, Zval = 14.0
     Generated using "atomic" code by A. Dal Corso v.6.2.2
     Using radial grid of 1183 points,  6 beta functions with: 
                l(1) =   0
                l(2) =   0
                l(3) =   1
                l(4) =   1
                l(5) =   2
                l(6) =   2
     Q(r) pseudized with 0 coefficients 


     PseudoPot. # 2 for Cr read from file:
     /home/cristian/Escritorio/Proyecto_Grafeno/pseudopotenciales/Cr.pbe-spn-rrkjus_psl.1.0.0.UPF
     MD5 check sum: 793d051e4f89dd1e3290b85340a92c0a
     Pseudo is Ultrasoft + core correction, Zval = 14.0
     Generated using "atomic" code by A. Dal Corso v.6.2.2
     Using radial grid of 1183 points,  6 beta functions with: 
                l(1) =   0
                l(2) =   0
                l(3) =   1
                l(4) =   1
                l(5) =   2
                l(6) =   2
     Q(r) pseudized with 0 coefficients 


     atomic species   valence    mass     pseudopotential
        Cr1           14.00    51.99610     Cr( 1.00)
        Cr2           14.00    51.99610     Cr( 1.00)

     Starting magnetic structure 
     atomic species   magnetization
        Cr1          0.100
        Cr2         -0.100

     48 Sym. Ops., with inversion, found



   Cartesian axes

     site n.     atom                  positions (alat units)
         1           Cr1 tau(   1) = (   0.0000000   0.0000000   0.0000000  )
         2           Cr2 tau(   2) = (   0.5000000   0.5000000   0.5000000  )

     number of k points=    20  Marzari-Vanderbilt smearing, width (Ry)=  0.0300
                       cart. coord. in units 2pi/alat
        k(    1) = (   0.0625000   0.0625000   0.0625000), wk =   0.0156250
        k(    2) = (   0.0625000   0.0625000   0.1875000), wk =   0.0468750
        k(    3) = (   0.0625000   0.0625000   0.3125000), wk =   0.0468750
        k(    4) = (   0.0625000   0.0625000   0.4375000), wk =   0.0468750
        k(    5) = (   0.0625000   0.1875000   0.1875000), wk =   0.0468750
        k(    6) = (   0.0625000   0.1875000   0.3125000), wk =   0.0937500
        k(    7) = (   0.0625000   0.1875000   0.4375000), wk =   0.0937500
        k(    8) = (   0.0625000   0.3125000   0.3125000), wk =   0.0468750
        k(    9) = (   0.0625000   0.3125000   0.4375000), wk =   0.0937500
        k(   10) = (   0.0625000   0.4375000   0.4375000), wk =   0.0468750
        k(   11) = (   0.1875000   0.1875000   0.1875000), wk =   0.0156250
        k(   12) = (   0.1875000   0.1875000   0.3125000), wk =   0.0468750
        k(   13) = (   0.1875000   0.1875000   0.4375000), wk =   0.0468750
        k(   14) = (   0.1875000   0.3125000   0.3125000), wk =   0.0468750
        k(   15) = (   0.1875000   0.3125000   0.4375000), wk =   0.0937500
        k(   16) = (   0.1875000   0.4375000   0.4375000), wk =   0.0468750
        k(   17) = (   0.3125000   0.3125000   0.3125000), wk =   0.0156250
        k(   18) = (   0.3125000   0.3125000   0.4375000), wk =   0.0468750
        k(   19) = (   0.3125000   0.4375000   0.4375000), wk =   0.0468750
        k(   20) = (   0.4375000   0.4375000   0.4375000), wk =   0.0156250

     Dense  grid:    63461 G-vectors     FFT dimensions: (  50,  50,  50)

     Smooth grid:    16135 G-vectors     FFT dimensions: (  32,  32,  32)

     Estimated max dynamical RAM per process >      48.55 MB

     Estimated total dynamical RAM >     291.30 MB
     Generating pointlists ...
     new r_m :   0.3572 (alat units)  1.9645 (a.u.) for type    1
     new r_m :   0.3572 (alat units)  1.9645 (a.u.) for type    2

     Check: negative core charge=   -0.000002

     Initial potential from superposition of free atoms

     starting charge   27.99845, renormalised to   28.00000
     Starting wfcs are   20 randomized atomic wfcs

     total cpu time spent up to now is        2.2 secs

     Self-consistent Calculation

     iteration #  1     ecut=    80.00 Ry     beta= 0.70
     Davidson diagonalization with overlap
     ethr =  1.00E-02,  avg # of iterations =  2.5

     Threshold (ethr) on eigenvalues was too large:
     Diagonalizing with lowered threshold

     Davidson diagonalization with overlap
     ethr =  6.37E-04,  avg # of iterations =  2.3

     total cpu time spent up to now is        3.9 secs

     total energy              =    -349.90046205 Ry
     Harris-Foulkes estimate   =    -350.02577005 Ry
     estimated scf accuracy    <       0.19126713 Ry

     total magnetization       =     0.00 Bohr mag/cell
     absolute magnetization    =     2.14 Bohr mag/cell

     iteration #  2     ecut=    80.00 Ry     beta= 0.70
     Davidson diagonalization with overlap
     ethr =  6.83E-04,  avg # of iterations =  3.1

     total cpu time spent up to now is        5.1 secs

     total energy              =    -349.93092725 Ry
     Harris-Foulkes estimate   =    -350.05563690 Ry
     estimated scf accuracy    <       0.27358914 Ry

     total magnetization       =     0.00 Bohr mag/cell
     absolute magnetization    =     2.73 Bohr mag/cell

     iteration #  3     ecut=    80.00 Ry     beta= 0.70
     Davidson diagonalization with overlap
     ethr =  6.83E-04,  avg # of iterations =  3.0

     total cpu time spent up to now is        6.1 secs

     total energy              =    -349.98651648 Ry
     Harris-Foulkes estimate   =    -349.98641301 Ry
     estimated scf accuracy    <       0.00160486 Ry

     total magnetization       =     0.00 Bohr mag/cell
     absolute magnetization    =     2.45 Bohr mag/cell

     iteration #  4     ecut=    80.00 Ry     beta= 0.70
     Davidson diagonalization with overlap
     ethr =  5.73E-06,  avg # of iterations =  4.0

     total cpu time spent up to now is        7.5 secs

     total energy              =    -349.98428948 Ry
     Harris-Foulkes estimate   =    -349.99054404 Ry
     estimated scf accuracy    <       0.06996980 Ry

     total magnetization       =    -0.04 Bohr mag/cell
     absolute magnetization    =     2.52 Bohr mag/cell

     iteration #  5     ecut=    80.00 Ry     beta= 0.70
     Davidson diagonalization with overlap
     ethr =  5.73E-06,  avg # of iterations =  3.9

     total cpu time spent up to now is        8.5 secs

     total energy              =    -349.98745252 Ry
     Harris-Foulkes estimate   =    -349.98739522 Ry
     estimated scf accuracy    <       0.00007515 Ry

     total magnetization       =     0.00 Bohr mag/cell
     absolute magnetization    =     2.55 Bohr mag/cell

     iteration #  6     ecut=    80.00 Ry     beta= 0.70
     Davidson diagonalization with overlap
     ethr =  2.68E-07,  avg # of iterations =  3.6

     total cpu time spent up to now is        9.5 secs

     total energy              =    -349.98747878 Ry
     Harris-Foulkes estimate   =    -349.98747535 Ry
     estimated scf accuracy    <       0.00005775 Ry

     total magnetization       =     0.00 Bohr mag/cell
     absolute magnetization    =     2.59 Bohr mag/cell

     iteration #  7     ecut=    80.00 Ry     beta= 0.70
     Davidson diagonalization with overlap
     ethr =  2.06E-07,  avg # of iterations =  4.1

     total cpu time spent up to now is       10.6 secs

     total energy              =    -349.98721215 Ry
     Harris-Foulkes estimate   =    -349.98765446 Ry
     estimated scf accuracy    <       0.00003209 Ry

     total magnetization       =     0.00 Bohr mag/cell
     absolute magnetization    =     2.72 Bohr mag/cell

     iteration #  8     ecut=    80.00 Ry     beta= 0.70
     Davidson diagonalization with overlap
     ethr =  1.15E-07,  avg # of iterations =  4.7

     Magnetic moment per site:
     atom:    1    charge:   12.2792    magn:    1.3781    constr:    0.0000
     atom:    2    charge:   12.2778    magn:   -1.3780    constr:    0.0000

     total cpu time spent up to now is       11.9 secs

     End of self-consistent calculation

 ------ SPIN UP ------------


          k = 0.0625 0.0625 0.0625 (  2013 PWs)   bands (ev):

   -54.1890 -52.6951 -25.5179 -25.5179 -25.5061 -23.9160 -23.9019 -23.9019
    10.7055  14.3300  14.3300  17.2155  17.2155  17.4365  19.3531  19.3531
    20.2567  20.6550

          k = 0.0625 0.0625 0.1875 (  2003 PWs)   bands (ev):

   -54.1827 -52.6951 -25.5446 -25.5037 -25.4955 -23.9603 -23.9117 -23.9108
    11.3278  14.6342  14.6363  17.0874  17.1437  17.6621  18.9867  19.5195
    19.5580  19.9959

          k = 0.0625 0.0625 0.3125 (  2003 PWs)   bands (ev):

   -54.1738 -52.6951 -25.5798 -25.4833 -25.4832 -24.0239 -23.9259 -23.9219
    12.4471  14.9611  15.2041  17.0358  17.0531  17.8142  18.3632  19.0328
    19.2158  19.7690

          k = 0.0625 0.0625 0.4375 (  2011 PWs)   bands (ev):

   -54.1675 -52.6951 -25.6043 -25.4749 -25.4687 -24.0684 -23.9362 -23.9298
    13.7540  14.7794  15.8888  16.8159  17.1517  17.7093  17.8107  18.7115
    19.0501  19.9006

          k = 0.0625 0.1875 0.1875 (  1999 PWs)   bands (ev):

   -54.1773 -52.6941 -25.5598 -25.5153 -25.4897 -23.9806 -23.9248 -23.9178
    11.9009  14.8269  15.0005  16.8077  16.9729  17.7500  19.0675  19.1344
    19.4305  19.6043

          k = 0.0625 0.1875 0.3125 (  2012 PWs)   bands (ev):

   -54.1695 -52.6927 -25.5944 -25.5233 -25.4772 -24.0158 -23.9393 -23.9246
    12.8948  15.0205  15.5444  16.6221  16.8360  17.3868  18.7713  19.0475
    19.3722  19.6627

          k = 0.0625 0.1875 0.4375 (  2008 PWs)   bands (ev):

   -54.1640 -52.6917 -25.6209 -25.5293 -25.4663 -24.0414 -23.9493 -23.9279
    13.9813  14.7814  16.0544  16.5162  16.8718  17.0502  18.4913  18.8617
    19.6497  20.1736

          k = 0.0625 0.3125 0.3125 (  2007 PWs)   bands (ev):

   -54.1634 -52.6893 -25.6203 -25.5752 -25.4675 -24.0085 -23.9552 -23.9268
    13.5436  14.8188  16.2485  16.3225  16.7887  16.9559  18.8607  19.2090
    19.5507  19.9883

          k = 0.0625 0.3125 0.4375 (  2016 PWs)   bands (ev):

   -54.1591 -52.6869 -25.6454 -25.6055 -25.4602 -24.0067 -23.9652 -23.9264
    14.0741  14.4814  16.1682  16.3602  16.9272  17.4331  18.9765  19.1932
    19.7940  20.6346

          k = 0.0625 0.4375 0.4375 (  2020 PWs)   bands (ev):

   -54.1556 -52.6835 -25.6640 -25.6567 -25.4559 -23.9845 -23.9754 -23.9252
    14.0300  14.2230  15.9398  16.0044  18.0479  18.4027  19.1974  19.4929
    19.4947  20.5314

          k = 0.1875 0.1875 0.1875 (  1992 PWs)   bands (ev):

   -54.1724 -52.6924 -25.5428 -25.5428 -25.5078 -23.9794 -23.9374 -23.9374
    12.4546  15.1884  15.1884  16.6459  16.6459  17.2204  19.3085  19.3085
    19.3314  20.0884

          k = 0.1875 0.1875 0.3125 (  2002 PWs)   bands (ev):

   -54.1655 -52.6900 -25.5905 -25.5248 -25.5183 -24.0027 -23.9558 -23.9398
    13.3859  15.4733  15.5078  16.4050  16.4962  16.7574  19.0904  19.4126
    19.5477  19.9701

          k = 0.1875 0.1875 0.4375 (  2014 PWs)   bands (ev):

   -54.1606 -52.6883 -25.6249 -25.5361 -25.5006 -24.0273 -23.9693 -23.9331
    14.3399  15.0684  15.8555  16.1487  16.5983  16.9571  18.8772  19.0418
    19.4914  20.2646

          k = 0.1875 0.3125 0.3125 (  2011 PWs)   bands (ev):

   -54.1598 -52.6862 -25.5991 -25.5769 -25.5111 -24.0002 -23.9724 -23.9533
    14.0858  15.2694  16.0647  16.2256  16.3091  16.4745  19.2497  19.4024
    19.5145  20.2019

          k = 0.1875 0.3125 0.4375 (  2010 PWs)   bands (ev):

   -54.1558 -52.6835 -25.6322 -25.5921 -25.4999 -24.0109 -23.9877 -23.9470
    14.5463  14.9474  15.9296  16.0864  16.6208  17.0811  19.1450  19.3655
    19.4709  20.2699

          k = 0.1875 0.4375 0.4375 (  2027 PWs)   bands (ev):

   -54.1523 -52.6801 -25.6396 -25.6363 -25.4921 -24.0032 -23.9961 -23.9584
    14.4619  14.7542  15.8244  15.8600  17.5462  17.5794  19.1945  19.2362
    19.6799  20.2920

          k = 0.3125 0.3125 0.3125 (  2016 PWs)   bands (ev):

   -54.1547 -52.6818 -25.5832 -25.5683 -25.5683 -23.9975 -23.9975 -23.9819
    14.8693  15.6880  15.8420  15.8420  16.2414  16.2414  19.3638  19.3638
    19.8582  19.8582

          k = 0.3125 0.3125 0.4375 (  2019 PWs)   bands (ev):

   -54.1511 -52.6787 -25.6159 -25.5802 -25.5457 -24.0186 -24.0158 -23.9790
    15.0533  15.5189  15.6958  16.0770  16.1718  16.8293  19.2254  19.2615
    19.7715  20.1873

          k = 0.3125 0.4375 0.4375 (  2001 PWs)   bands (ev):

   -54.1477 -52.6753 -25.6070 -25.6038 -25.5427 -24.0304 -24.0263 -24.0046
    15.0735  15.5574  15.6819  15.7858  16.8267  16.9037  19.1377  19.2013
    19.9976  20.2709

          k = 0.4375 0.4375 0.4375 (  1977 PWs)   bands (ev):

   -54.1444 -52.6718 -25.5864 -25.5776 -25.5776 -24.0486 -24.0486 -24.0387
    15.4396  15.6027  15.6027  16.4410  16.4960  16.4960  19.1183  19.1183
    20.2792  20.2792

 ------ SPIN DOWN ----------


          k = 0.0625 0.0625 0.0625 (  2013 PWs)   bands (ev):

   -54.1884 -52.6956 -25.5172 -25.5172 -25.5053 -23.9169 -23.9028 -23.9028
    10.7056  14.3302  14.3302  17.2158  17.2158  17.4369  19.3529  19.3529
    20.2562  20.6545

          k = 0.0625 0.0625 0.1875 (  2003 PWs)   bands (ev):

   -54.1821 -52.6956 -25.5439 -25.5029 -25.4947 -23.9612 -23.9126 -23.9117
    11.3278  14.6344  14.6365  17.0876  17.1440  17.6626  18.9865  19.5194
    19.5574  19.9954

          k = 0.0625 0.0625 0.3125 (  2003 PWs)   bands (ev):

   -54.1732 -52.6957 -25.5791 -25.4825 -25.4824 -24.0248 -23.9269 -23.9228
    12.4472  14.9612  15.2043  17.0362  17.0534  17.8148  18.3630  19.0321
    19.2153  19.7689

          k = 0.0625 0.0625 0.4375 (  2011 PWs)   bands (ev):

   -54.1669 -52.6957 -25.6035 -25.4741 -25.4679 -24.0694 -23.9372 -23.9308
    13.7541  14.7794  15.8893  16.8161  17.1522  17.7096  17.8106  18.7109
    19.0497  19.9001

          k = 0.0625 0.1875 0.1875 (  1999 PWs)   bands (ev):

   -54.1766 -52.6946 -25.5590 -25.5145 -25.4889 -23.9816 -23.9257 -23.9188
    11.9010  14.8271  15.0007  16.8079  16.9733  17.7507  19.0671  19.1339
    19.4303  19.6039

          k = 0.0625 0.1875 0.3125 (  2012 PWs)   bands (ev):

   -54.1689 -52.6933 -25.5937 -25.5225 -25.4764 -24.0167 -23.9402 -23.9255
    12.8949  15.0207  15.5447  16.6224  16.8363  17.3872  18.7711  19.0471
    19.3716  19.6626

          k = 0.0625 0.1875 0.4375 (  2008 PWs)   bands (ev):

   -54.1634 -52.6923 -25.6202 -25.5285 -25.4655 -24.0423 -23.9502 -23.9288
    13.9814  14.7815  16.0549  16.5165  16.8719  17.0504  18.4911  18.8614
    19.6496  20.1735

          k = 0.0625 0.3125 0.3125 (  2007 PWs)   bands (ev):

   -54.1628 -52.6899 -25.6196 -25.5744 -25.4667 -24.0095 -23.9561 -23.9278
    13.5437  14.8190  16.2487  16.3227  16.7890  16.9563  18.8603  19.2088
    19.5506  19.9879

          k = 0.0625 0.3125 0.4375 (  2016 PWs)   bands (ev):

   -54.1585 -52.6875 -25.6447 -25.6047 -25.4594 -24.0076 -23.9661 -23.9273
    14.0742  14.4816  16.1684  16.3604  16.9276  17.4331  18.9764  19.1930
    19.7940  20.6342

          k = 0.0625 0.4375 0.4375 (  2020 PWs)   bands (ev):

   -54.1550 -52.6841 -25.6632 -25.6559 -25.4551 -23.9854 -23.9763 -23.9261
    14.0301  14.2231  15.9400  16.0045  18.0482  18.4029  19.1974  19.4925
    19.4949  20.5308

          k = 0.1875 0.1875 0.1875 (  1992 PWs)   bands (ev):

   -54.1718 -52.6929 -25.5420 -25.5420 -25.5070 -23.9804 -23.9383 -23.9383
    12.4547  15.1886  15.1886  16.6462  16.6462  17.2208  19.3084  19.3084
    19.3309  20.0881

          k = 0.1875 0.1875 0.3125 (  2002 PWs)   bands (ev):

   -54.1649 -52.6906 -25.5897 -25.5240 -25.5175 -24.0036 -23.9568 -23.9407
    13.3859  15.4735  15.5081  16.4052  16.4964  16.7577  19.0901  19.4122
    19.5476  19.9698

          k = 0.1875 0.1875 0.4375 (  2014 PWs)   bands (ev):

   -54.1600 -52.6889 -25.6242 -25.5354 -25.4998 -24.0282 -23.9702 -23.9340
    14.3400  15.0686  15.8557  16.1490  16.5986  16.9571  18.8769  19.0414
    19.4917  20.2640

          k = 0.1875 0.3125 0.3125 (  2011 PWs)   bands (ev):

   -54.1592 -52.6868 -25.5984 -25.5762 -25.5103 -24.0011 -23.9733 -23.9542
    14.0859  15.2696  16.0650  16.2259  16.3092  16.4746  19.2496  19.4020
    19.5144  20.2015

          k = 0.1875 0.3125 0.4375 (  2010 PWs)   bands (ev):

   -54.1551 -52.6841 -25.6315 -25.5913 -25.4991 -24.0118 -23.9887 -23.9480
    14.5465  14.9475  15.9299  16.0866  16.6211  17.0808  19.1450  19.3652
    19.4710  20.2693

          k = 0.1875 0.4375 0.4375 (  2027 PWs)   bands (ev):

   -54.1517 -52.6807 -25.6388 -25.6356 -25.4913 -24.0041 -23.9969 -23.9593
    14.4621  14.7542  15.8246  15.8603  17.5462  17.5793  19.1947  19.2368
    19.6794  20.2913

          k = 0.3125 0.3125 0.3125 (  2016 PWs)   bands (ev):

   -54.1541 -52.6824 -25.5824 -25.5675 -25.5675 -23.9984 -23.9984 -23.9828
    14.8694  15.6879  15.8423  15.8423  16.2414  16.2414  19.3639  19.3639
    19.8577  19.8577

          k = 0.3125 0.3125 0.4375 (  2019 PWs)   bands (ev):

   -54.1504 -52.6793 -25.6152 -25.5794 -25.5449 -24.0195 -24.0168 -23.9799
    15.0536  15.5188  15.6962  16.0774  16.1718  16.8290  19.2255  19.2620
    19.7710  20.1866

          k = 0.3125 0.4375 0.4375 (  2001 PWs)   bands (ev):

   -54.1471 -52.6758 -25.6062 -25.6030 -25.5419 -24.0314 -24.0272 -24.0055
    15.0738  15.5574  15.6822  15.7860  16.8264  16.9034  19.1383  19.2017
    19.9970  20.2701

          k = 0.4375 0.4375 0.4375 (  1977 PWs)   bands (ev):

   -54.1438 -52.6724 -25.5856 -25.5767 -25.5767 -24.0495 -24.0495 -24.0397
    15.4400  15.6032  15.6032  16.4406  16.4956  16.4956  19.1190  19.1190
    20.2784  20.2784

     the Fermi energy is    18.0756 ev

!    total energy              =    -349.98780348 Ry
     Harris-Foulkes estimate   =    -349.98780302 Ry
     estimated scf accuracy    <       0.00000089 Ry

     The total energy is the sum of the following terms:

     one-electron contribution =    -121.60314095 Ry
     hartree contribution      =      75.59668088 Ry
     xc contribution           =     -44.56456596 Ry
     ewald contribution        =    -259.42040003 Ry
     smearing contrib. (-TS)   =       0.00362258 Ry

     total magnetization       =     0.00 Bohr mag/cell
     absolute magnetization    =     2.95 Bohr mag/cell

     convergence has been achieved in   8 iterations

     Writing output data file degauss-0.03.save/

     init_run     :      0.69s CPU      0.71s WALL (       1 calls)
     electrons    :      9.54s CPU      9.73s WALL (       1 calls)

     Called by init_run:
     wfcinit      :      0.23s CPU      0.24s WALL (       1 calls)
     potinit      :      0.07s CPU      0.07s WALL (       1 calls)
     hinit0       :      0.25s CPU      0.25s WALL (       1 calls)

     Called by electrons:
     c_bands      :      7.00s CPU      7.15s WALL (       9 calls)
     sum_band     :      1.73s CPU      1.76s WALL (       9 calls)
     v_of_rho     :      0.30s CPU      0.31s WALL (       9 calls)
     newd         :      0.56s CPU      0.57s WALL (       9 calls)
     mix_rho      :      0.02s CPU      0.02s WALL (       9 calls)

     Called by c_bands:
     init_us_2    :      0.10s CPU      0.10s WALL (     760 calls)
     cegterg      :      6.63s CPU      6.77s WALL (     360 calls)

     Called by sum_band:
     sum_band:bec :      0.01s CPU      0.01s WALL (     360 calls)
     addusdens    :      0.95s CPU      0.95s WALL (       9 calls)

     Called by *egterg:
     h_psi        :      3.52s CPU      3.61s WALL (    1645 calls)
     s_psi        :      0.40s CPU      0.42s WALL (    1645 calls)
     g_psi        :      0.04s CPU      0.04s WALL (    1245 calls)
     cdiaghg      :      1.02s CPU      1.03s WALL (    1565 calls)

     Called by h_psi:
     h_psi:pot    :      3.51s CPU      3.60s WALL (    1645 calls)
     h_psi:calbec :      0.53s CPU      0.55s WALL (    1645 calls)
     vloc_psi     :      2.58s CPU      2.64s WALL (    1645 calls)
     add_vuspsi   :      0.39s CPU      0.41s WALL (    1645 calls)

     General routines
     calbec       :      0.70s CPU      0.73s WALL (    2005 calls)
     fft          :      0.15s CPU      0.15s WALL (     221 calls)
     ffts         :      0.01s CPU      0.01s WALL (      36 calls)
     fftw         :      2.62s CPU      2.69s WALL (   44194 calls)
     interpolate  :      0.01s CPU      0.01s WALL (      18 calls)

     Parallel routines
     fft_scatt_xy :      0.35s CPU      0.36s WALL (   44451 calls)
     fft_scatt_yz :      1.38s CPU      1.42s WALL (   44451 calls)

     PWSCF        :     11.71s CPU     11.96s WALL


   This run was terminated on:  23:30:46   9Mar2022            

=------------------------------------------------------------------------------=
   JOB DONE.
=------------------------------------------------------------------------------=
