
     Program PWSCF v.6.4.1 starts on  9Mar2022 at 23:31: 0 

     This program is part of the open-source Quantum ESPRESSO suite
     for quantum simulation of materials; please cite
         "P. Giannozzi et al., J. Phys.:Condens. Matter 21 395502 (2009);
         "P. Giannozzi et al., J. Phys.:Condens. Matter 29 465901 (2017);
          URL http://www.quantum-espresso.org", 
     in publications or presentations arising from this work. More details at
     http://www.quantum-espresso.org/quote

     Parallel version (MPI), running on     6 processors

     MPI processes distributed on     1 nodes
     R & G space division:  proc/nbgrp/npool/nimage =       6
     Reading input from degauss-0.07.in

     Current dimensions of program PWSCF are:
     Max number of different atomic species (ntypx) = 10
     Max number of k-points (npk) =  40000
     Max angular momentum in pseudopotentials (lmaxx) =  3
               file Cr.pbe-spn-rrkjus_psl.1.0.0.UPF: wavefunction(s)  3P renormalized
               file Cr.pbe-spn-rrkjus_psl.1.0.0.UPF: wavefunction(s)  3P renormalized

     Subspace diagonalization in iterative solution of the eigenvalue problem:
     a serial algorithm will be used

     Message from routine setup:
     DEPRECATED: symmetry with ibrav=0, use correct ibrav instead

     Parallelization info
     --------------------
     sticks:   dense  smooth     PW     G-vecs:    dense   smooth      PW
     Min         320     129     38                10576     2689     433
     Max         321     131     40                10577     2690     434
     Sum        1925     777    233                63461    16135    2601



     bravais-lattice index     =            0
     lattice parameter (alat)  =       5.4991  a.u.
     unit-cell volume          =     166.2936 (a.u.)^3
     number of atoms/cell      =            2
     number of atomic types    =            2
     number of electrons       =        28.00
     number of Kohn-Sham states=           18
     kinetic-energy cutoff     =      80.0000  Ry
     charge density cutoff     =     800.0000  Ry
     convergence threshold     =      1.0E-06
     mixing beta               =       0.7000
     number of iterations used =            8  plain     mixing
     Exchange-correlation      = PBE ( 1  4  3  4 0 0)

     celldm(1)=   5.499103  celldm(2)=   0.000000  celldm(3)=   0.000000
     celldm(4)=   0.000000  celldm(5)=   0.000000  celldm(6)=   0.000000

     crystal axes: (cart. coord. in units of alat)
               a(1) = (   1.000000   0.000000   0.000000 )  
               a(2) = (   0.000000   1.000000   0.000000 )  
               a(3) = (   0.000000   0.000000   1.000000 )  

     reciprocal axes: (cart. coord. in units 2 pi/alat)
               b(1) = (  1.000000  0.000000  0.000000 )  
               b(2) = (  0.000000  1.000000  0.000000 )  
               b(3) = (  0.000000  0.000000  1.000000 )  


     PseudoPot. # 1 for Cr read from file:
     /home/cristian/Escritorio/Proyecto_Grafeno/pseudopotenciales/Cr.pbe-spn-rrkjus_psl.1.0.0.UPF
     MD5 check sum: 793d051e4f89dd1e3290b85340a92c0a
     Pseudo is Ultrasoft + core correction, Zval = 14.0
     Generated using "atomic" code by A. Dal Corso v.6.2.2
     Using radial grid of 1183 points,  6 beta functions with: 
                l(1) =   0
                l(2) =   0
                l(3) =   1
                l(4) =   1
                l(5) =   2
                l(6) =   2
     Q(r) pseudized with 0 coefficients 


     PseudoPot. # 2 for Cr read from file:
     /home/cristian/Escritorio/Proyecto_Grafeno/pseudopotenciales/Cr.pbe-spn-rrkjus_psl.1.0.0.UPF
     MD5 check sum: 793d051e4f89dd1e3290b85340a92c0a
     Pseudo is Ultrasoft + core correction, Zval = 14.0
     Generated using "atomic" code by A. Dal Corso v.6.2.2
     Using radial grid of 1183 points,  6 beta functions with: 
                l(1) =   0
                l(2) =   0
                l(3) =   1
                l(4) =   1
                l(5) =   2
                l(6) =   2
     Q(r) pseudized with 0 coefficients 


     atomic species   valence    mass     pseudopotential
        Cr1           14.00    51.99610     Cr( 1.00)
        Cr2           14.00    51.99610     Cr( 1.00)

     Starting magnetic structure 
     atomic species   magnetization
        Cr1          0.100
        Cr2         -0.100

     48 Sym. Ops., with inversion, found



   Cartesian axes

     site n.     atom                  positions (alat units)
         1           Cr1 tau(   1) = (   0.0000000   0.0000000   0.0000000  )
         2           Cr2 tau(   2) = (   0.5000000   0.5000000   0.5000000  )

     number of k points=    20  Marzari-Vanderbilt smearing, width (Ry)=  0.0700
                       cart. coord. in units 2pi/alat
        k(    1) = (   0.0625000   0.0625000   0.0625000), wk =   0.0156250
        k(    2) = (   0.0625000   0.0625000   0.1875000), wk =   0.0468750
        k(    3) = (   0.0625000   0.0625000   0.3125000), wk =   0.0468750
        k(    4) = (   0.0625000   0.0625000   0.4375000), wk =   0.0468750
        k(    5) = (   0.0625000   0.1875000   0.1875000), wk =   0.0468750
        k(    6) = (   0.0625000   0.1875000   0.3125000), wk =   0.0937500
        k(    7) = (   0.0625000   0.1875000   0.4375000), wk =   0.0937500
        k(    8) = (   0.0625000   0.3125000   0.3125000), wk =   0.0468750
        k(    9) = (   0.0625000   0.3125000   0.4375000), wk =   0.0937500
        k(   10) = (   0.0625000   0.4375000   0.4375000), wk =   0.0468750
        k(   11) = (   0.1875000   0.1875000   0.1875000), wk =   0.0156250
        k(   12) = (   0.1875000   0.1875000   0.3125000), wk =   0.0468750
        k(   13) = (   0.1875000   0.1875000   0.4375000), wk =   0.0468750
        k(   14) = (   0.1875000   0.3125000   0.3125000), wk =   0.0468750
        k(   15) = (   0.1875000   0.3125000   0.4375000), wk =   0.0937500
        k(   16) = (   0.1875000   0.4375000   0.4375000), wk =   0.0468750
        k(   17) = (   0.3125000   0.3125000   0.3125000), wk =   0.0156250
        k(   18) = (   0.3125000   0.3125000   0.4375000), wk =   0.0468750
        k(   19) = (   0.3125000   0.4375000   0.4375000), wk =   0.0468750
        k(   20) = (   0.4375000   0.4375000   0.4375000), wk =   0.0156250

     Dense  grid:    63461 G-vectors     FFT dimensions: (  50,  50,  50)

     Smooth grid:    16135 G-vectors     FFT dimensions: (  32,  32,  32)

     Estimated max dynamical RAM per process >      48.55 MB

     Estimated total dynamical RAM >     291.30 MB
     Generating pointlists ...
     new r_m :   0.3572 (alat units)  1.9645 (a.u.) for type    1
     new r_m :   0.3572 (alat units)  1.9645 (a.u.) for type    2

     Check: negative core charge=   -0.000002

     Initial potential from superposition of free atoms

     starting charge   27.99845, renormalised to   28.00000
     Starting wfcs are   20 randomized atomic wfcs

     total cpu time spent up to now is        2.2 secs

     Self-consistent Calculation

     iteration #  1     ecut=    80.00 Ry     beta= 0.70
     Davidson diagonalization with overlap
     ethr =  1.00E-02,  avg # of iterations =  2.5

     Threshold (ethr) on eigenvalues was too large:
     Diagonalizing with lowered threshold

     Davidson diagonalization with overlap
     ethr =  6.46E-04,  avg # of iterations =  2.3

     total cpu time spent up to now is        3.9 secs

     total energy              =    -349.88610868 Ry
     Harris-Foulkes estimate   =    -350.01362488 Ry
     estimated scf accuracy    <       0.19444232 Ry

     total magnetization       =    -0.00 Bohr mag/cell
     absolute magnetization    =     2.06 Bohr mag/cell

     iteration #  2     ecut=    80.00 Ry     beta= 0.70
     Davidson diagonalization with overlap
     ethr =  6.94E-04,  avg # of iterations =  3.1

     total cpu time spent up to now is        5.1 secs

     total energy              =    -349.91359077 Ry
     Harris-Foulkes estimate   =    -350.04640008 Ry
     estimated scf accuracy    <       0.29258982 Ry

     total magnetization       =    -0.00 Bohr mag/cell
     absolute magnetization    =     2.60 Bohr mag/cell

     iteration #  3     ecut=    80.00 Ry     beta= 0.70
     Davidson diagonalization with overlap
     ethr =  6.94E-04,  avg # of iterations =  3.0

     total cpu time spent up to now is        6.2 secs

     total energy              =    -349.97295122 Ry
     Harris-Foulkes estimate   =    -349.97331087 Ry
     estimated scf accuracy    <       0.00233585 Ry

     total magnetization       =     0.00 Bohr mag/cell
     absolute magnetization    =     2.28 Bohr mag/cell

     iteration #  4     ecut=    80.00 Ry     beta= 0.70
     Davidson diagonalization with overlap
     ethr =  8.34E-06,  avg # of iterations =  3.9

     total cpu time spent up to now is        7.6 secs

     total energy              =    -349.96820008 Ry
     Harris-Foulkes estimate   =    -349.97991039 Ry
     estimated scf accuracy    <       0.13552603 Ry

     total magnetization       =    -0.06 Bohr mag/cell
     absolute magnetization    =     2.28 Bohr mag/cell

     iteration #  5     ecut=    80.00 Ry     beta= 0.70
     Davidson diagonalization with overlap
     ethr =  8.34E-06,  avg # of iterations =  4.0

     total cpu time spent up to now is        8.7 secs

     total energy              =    -349.97397104 Ry
     Harris-Foulkes estimate   =    -349.97396397 Ry
     estimated scf accuracy    <       0.00001558 Ry

     total magnetization       =     0.00 Bohr mag/cell
     absolute magnetization    =     2.29 Bohr mag/cell

     iteration #  6     ecut=    80.00 Ry     beta= 0.70
     Davidson diagonalization with overlap
     ethr =  5.56E-08,  avg # of iterations =  3.5

     Magnetic moment per site:
     atom:    1    charge:   12.2759    magn:    1.0688    constr:    0.0000
     atom:    2    charge:   12.2754    magn:   -1.0686    constr:    0.0000

     total cpu time spent up to now is        9.9 secs

     End of self-consistent calculation

 ------ SPIN UP ------------


          k = 0.0625 0.0625 0.0625 (  2013 PWs)   bands (ev):

   -54.1040 -52.9321 -25.4296 -25.4296 -25.4147 -24.1498 -24.1326 -24.1326
    10.7004  14.3172  14.3172  17.2268  17.2268  17.4608  19.2796  19.2796
    20.1102  20.5183

          k = 0.0625 0.0625 0.1875 (  2003 PWs)   bands (ev):

   -54.0969 -52.9330 -25.4552 -25.4125 -25.4010 -24.1966 -24.1454 -24.1430
    11.3224  14.6216  14.6256  17.0997  17.1636  17.7172  18.9139  19.3867
    19.4479  19.8574

          k = 0.0625 0.0625 0.3125 (  2003 PWs)   bands (ev):

   -54.0867 -52.9343 -25.4862 -25.3876 -25.3867 -24.2614 -24.1641 -24.1584
    12.4417  14.9480  15.2007  17.0687  17.0803  17.9034  18.2960  18.8349
    19.0601  19.7095

          k = 0.0625 0.0625 0.4375 (  2011 PWs)   bands (ev):

   -54.0795 -52.9353 -25.5072 -25.3777 -25.3695 -24.3062 -24.1778 -24.1699
    13.7523  14.7615  15.9144  16.8176  17.2086  17.7259  17.7833  18.5227
    18.9448  19.7170

          k = 0.0625 0.1875 0.1875 (  1999 PWs)   bands (ev):

   -54.0908 -52.9327 -25.4740 -25.4187 -25.3942 -24.2215 -24.1535 -24.1526
    11.8951  14.8166  14.9893  16.8108  16.9964  17.8544  18.8913  19.0311
    19.3574  19.4587

          k = 0.0625 0.1875 0.3125 (  2012 PWs)   bands (ev):

   -54.0821 -52.9323 -25.5067 -25.4269 -25.3806 -24.2538 -24.1716 -24.1610
    12.8884  15.0115  15.5379  16.6268  16.8590  17.4318  18.7083  18.9142
    19.2115  19.5939

          k = 0.0625 0.1875 0.4375 (  2008 PWs)   bands (ev):

   -54.0760 -52.9320 -25.5292 -25.4378 -25.3673 -24.2736 -24.1867 -24.1663
    13.9752  14.7728  16.0691  16.5287  16.8615  17.0544  18.4448  18.7279
    19.5828  20.0892

          k = 0.0625 0.3125 0.3125 (  2007 PWs)   bands (ev):

   -54.0756 -52.9293 -25.5383 -25.4817 -25.3694 -24.2436 -24.1788 -24.1674
    13.5356  14.8105  16.2524  16.3080  16.8056  16.9739  18.7448  19.1340
    19.4818  19.8632

          k = 0.0625 0.3125 0.4375 (  2016 PWs)   bands (ev):

   -54.0710 -52.9273 -25.5614 -25.5203 -25.3609 -24.2332 -24.1925 -24.1665
    14.0665  14.4702  16.1686  16.3577  16.9496  17.3992  18.9003  19.1185
    19.7473  20.5113

          k = 0.0625 0.4375 0.4375 (  2020 PWs)   bands (ev):

   -54.0674 -52.9239 -25.5847 -25.5758 -25.3563 -24.2071 -24.1959 -24.1670
    14.0350  14.1945  15.9333  15.9994  18.0522  18.3992  19.1372  19.3995
    19.4819  20.3913

          k = 0.1875 0.1875 0.1875 (  1992 PWs)   bands (ev):

   -54.0854 -52.9315 -25.4535 -25.4535 -25.4087 -24.2206 -24.1688 -24.1688
    12.4485  15.1787  15.1787  16.6525  16.6525  17.2618  19.1823  19.2338
    19.2338  19.9686

          k = 0.1875 0.1875 0.3125 (  2002 PWs)   bands (ev):

   -54.0779 -52.9298 -25.5017 -25.4307 -25.4236 -24.2376 -24.1927 -24.1715
    13.3793  15.4666  15.5019  16.4149  16.4945  16.7624  19.0149  19.2927
    19.4856  19.8625

          k = 0.1875 0.1875 0.4375 (  2014 PWs)   bands (ev):

   -54.0725 -52.9286 -25.5348 -25.4475 -25.4017 -24.2567 -24.2103 -24.1658
    14.3334  15.0623  15.8564  16.1571  16.6179  16.9136  18.8060  18.9154
    19.4939  20.1124

          k = 0.1875 0.3125 0.3125 (  2011 PWs)   bands (ev):

   -54.0719 -52.9263 -25.5128 -25.4849 -25.4154 -24.2346 -24.2003 -24.1904
    14.0801  15.2610  16.0857  16.2392  16.2766  16.4539  19.1617  19.3084
    19.4533  20.0871

          k = 0.1875 0.3125 0.4375 (  2010 PWs)   bands (ev):

   -54.0676 -52.9239 -25.5453 -25.5055 -25.4015 -24.2398 -24.2228 -24.1803
    14.5504  14.9230  15.9521  16.0770  16.6382  17.0062  19.0761  19.2793
    19.4547  20.1198

          k = 0.1875 0.4375 0.4375 (  2027 PWs)   bands (ev):

   -54.0642 -52.9206 -25.5555 -25.5515 -25.3928 -24.2325 -24.2215 -24.1967
    14.4833  14.7073  15.8293  15.8674  17.5075  17.5291  19.1607  19.2666
    19.5666  20.1199

          k = 0.3125 0.3125 0.3125 (  2016 PWs)   bands (ev):

   -54.0666 -52.9221 -25.4939 -25.4751 -25.4751 -24.2323 -24.2323 -24.2129
    14.8824  15.6434  15.8777  15.8777  16.1899  16.1899  19.3189  19.3189
    19.7328  19.7328

          k = 0.3125 0.3125 0.4375 (  2019 PWs)   bands (ev):

   -54.0629 -52.9191 -25.5261 -25.4912 -25.4471 -24.2561 -24.2490 -24.2105
    15.0908  15.4534  15.7416  16.1057  16.1258  16.7270  19.1883  19.2818
    19.6432  20.0281

          k = 0.3125 0.4375 0.4375 (  2001 PWs)   bands (ev):

   -54.0596 -52.9158 -25.5161 -25.5118 -25.4438 -24.2679 -24.2596 -24.2400
    15.1180  15.5023  15.7107  15.7966  16.7362  16.8229  19.1839  19.2031
    19.8516  20.0936

          k = 0.4375 0.4375 0.4375 (  1977 PWs)   bands (ev):

   -54.0563 -52.9124 -25.4905 -25.4792 -25.4792 -24.2883 -24.2883 -24.2760
    15.4881  15.6644  15.6644  16.3313  16.3765  16.3765  19.1694  19.1694
    20.1003  20.1003

 ------ SPIN DOWN ----------


          k = 0.0625 0.0625 0.0625 (  2013 PWs)   bands (ev):

   -54.1037 -52.9319 -25.4296 -25.4296 -25.4146 -24.1495 -24.1323 -24.1323
    10.7004  14.3173  14.3173  17.2270  17.2270  17.4609  19.2798  19.2798
    20.1104  20.5186

          k = 0.0625 0.0625 0.1875 (  2003 PWs)   bands (ev):

   -54.0966 -52.9328 -25.4551 -25.4124 -25.4009 -24.1962 -24.1450 -24.1426
    11.3224  14.6217  14.6256  17.0998  17.1638  17.7173  18.9140  19.3870
    19.4481  19.8576

          k = 0.0625 0.0625 0.3125 (  2003 PWs)   bands (ev):

   -54.0864 -52.9341 -25.4861 -25.3876 -25.3867 -24.2610 -24.1637 -24.1580
    12.4416  14.9480  15.2007  17.0688  17.0805  17.9035  18.2961  18.8352
    19.0603  19.7096

          k = 0.0625 0.0625 0.4375 (  2011 PWs)   bands (ev):

   -54.0792 -52.9351 -25.5071 -25.3776 -25.3695 -24.3059 -24.1775 -24.1695
    13.7522  14.7615  15.9144  16.8178  17.2088  17.7260  17.7835  18.5230
    18.9450  19.7173

          k = 0.0625 0.1875 0.1875 (  1999 PWs)   bands (ev):

   -54.0905 -52.9325 -25.4739 -25.4186 -25.3941 -24.2211 -24.1532 -24.1523
    11.8951  14.8167  14.9894  16.8110  16.9965  17.8545  18.8915  19.0313
    19.3576  19.4589

          k = 0.0625 0.1875 0.3125 (  2012 PWs)   bands (ev):

   -54.0818 -52.9321 -25.5066 -25.4268 -25.3805 -24.2534 -24.1713 -24.1607
    12.8884  15.0116  15.5379  16.6270  16.8591  17.4319  18.7085  18.9144
    19.2117  19.5941

          k = 0.0625 0.1875 0.4375 (  2008 PWs)   bands (ev):

   -54.0757 -52.9318 -25.5292 -25.4377 -25.3672 -24.2732 -24.1863 -24.1659
    13.9752  14.7729  16.0691  16.5288  16.8616  17.0545  18.4449  18.7281
    19.5830  20.0894

          k = 0.0625 0.3125 0.3125 (  2007 PWs)   bands (ev):

   -54.0753 -52.9291 -25.5383 -25.4817 -25.3694 -24.2432 -24.1784 -24.1671
    13.5356  14.8105  16.2525  16.3082  16.8057  16.9740  18.7451  19.1342
    19.4820  19.8634

          k = 0.0625 0.3125 0.4375 (  2016 PWs)   bands (ev):

   -54.0707 -52.9271 -25.5614 -25.5203 -25.3608 -24.2328 -24.1921 -24.1661
    14.0665  14.4703  16.1687  16.3579  16.9496  17.3992  18.9005  19.1187
    19.7475  20.5116

          k = 0.0625 0.4375 0.4375 (  2020 PWs)   bands (ev):

   -54.0672 -52.9237 -25.5847 -25.5757 -25.3562 -24.2068 -24.1956 -24.1666
    14.0350  14.1946  15.9335  15.9996  18.0522  18.3992  19.1374  19.3997
    19.4820  20.3915

          k = 0.1875 0.1875 0.1875 (  1992 PWs)   bands (ev):

   -54.0852 -52.9313 -25.4535 -25.4535 -25.4087 -24.2202 -24.1684 -24.1684
    12.4485  15.1787  15.1787  16.6526  16.6526  17.2619  19.1825  19.2340
    19.2340  19.9688

          k = 0.1875 0.1875 0.3125 (  2002 PWs)   bands (ev):

   -54.0776 -52.9296 -25.5016 -25.4306 -25.4235 -24.2373 -24.1923 -24.1711
    13.3793  15.4667  15.5020  16.4151  16.4947  16.7625  19.0150  19.2929
    19.4858  19.8628

          k = 0.1875 0.1875 0.4375 (  2014 PWs)   bands (ev):

   -54.0722 -52.9284 -25.5348 -25.4474 -25.4016 -24.2563 -24.2099 -24.1654
    14.3334  15.0623  15.8564  16.1572  16.6180  16.9137  18.8061  18.9156
    19.4940  20.1127

          k = 0.1875 0.3125 0.3125 (  2011 PWs)   bands (ev):

   -54.0716 -52.9261 -25.5128 -25.4848 -25.4154 -24.2342 -24.2000 -24.1901
    14.0801  15.2611  16.0858  16.2393  16.2767  16.4540  19.1619  19.3086
    19.4535  20.0873

          k = 0.1875 0.3125 0.4375 (  2010 PWs)   bands (ev):

   -54.0673 -52.9237 -25.5452 -25.5054 -25.4014 -24.2394 -24.2224 -24.1799
    14.5504  14.9231  15.9522  16.0772  16.6383  17.0063  19.0763  19.2795
    19.4549  20.1201

          k = 0.1875 0.4375 0.4375 (  2027 PWs)   bands (ev):

   -54.0639 -52.9204 -25.5554 -25.5515 -25.3927 -24.2321 -24.2211 -24.1964
    14.4834  14.7074  15.8294  15.8676  17.5075  17.5291  19.1608  19.2667
    19.5668  20.1202

          k = 0.3125 0.3125 0.3125 (  2016 PWs)   bands (ev):

   -54.0663 -52.9219 -25.4938 -25.4751 -25.4751 -24.2319 -24.2319 -24.2125
    14.8824  15.6435  15.8778  15.8778  16.1900  16.1900  19.3191  19.3191
    19.7330  19.7330

          k = 0.3125 0.3125 0.4375 (  2019 PWs)   bands (ev):

   -54.0626 -52.9189 -25.5260 -25.4911 -25.4471 -24.2557 -24.2486 -24.2101
    15.0909  15.4535  15.7417  16.1058  16.1258  16.7272  19.1885  19.2819
    19.6434  20.0283

          k = 0.3125 0.4375 0.4375 (  2001 PWs)   bands (ev):

   -54.0593 -52.9156 -25.5160 -25.5117 -25.4438 -24.2675 -24.2593 -24.2396
    15.1181  15.5025  15.7107  15.7967  16.7363  16.8230  19.1841  19.2033
    19.8518  20.0938

          k = 0.4375 0.4375 0.4375 (  1977 PWs)   bands (ev):

   -54.0560 -52.9122 -25.4904 -25.4791 -25.4791 -24.2879 -24.2879 -24.2756
    15.4881  15.6644  15.6644  16.3314  16.3766  16.3766  19.1695  19.1695
    20.1006  20.1006

     the Fermi energy is    17.9396 ev

!    total energy              =    -349.97397925 Ry
     Harris-Foulkes estimate   =    -349.97397825 Ry
     estimated scf accuracy    <       0.00000065 Ry

     The total energy is the sum of the following terms:

     one-electron contribution =    -121.56044121 Ry
     hartree contribution      =      75.48840497 Ry
     xc contribution           =     -44.51349972 Ry
     ewald contribution        =    -259.42040003 Ry
     smearing contrib. (-TS)   =       0.03195674 Ry

     total magnetization       =     0.00 Bohr mag/cell
     absolute magnetization    =     2.29 Bohr mag/cell

     convergence has been achieved in   6 iterations

     Writing output data file degauss-0.07.save/

     init_run     :      0.70s CPU      0.73s WALL (       1 calls)
     electrons    :      7.61s CPU      7.70s WALL (       1 calls)

     Called by init_run:
     wfcinit      :      0.25s CPU      0.26s WALL (       1 calls)
     potinit      :      0.07s CPU      0.07s WALL (       1 calls)
     hinit0       :      0.26s CPU      0.26s WALL (       1 calls)

     Called by electrons:
     c_bands      :      5.62s CPU      5.70s WALL (       7 calls)
     sum_band     :      1.35s CPU      1.36s WALL (       7 calls)
     v_of_rho     :      0.25s CPU      0.25s WALL (       7 calls)
     newd         :      0.44s CPU      0.45s WALL (       7 calls)
     mix_rho      :      0.02s CPU      0.02s WALL (       7 calls)

     Called by c_bands:
     init_us_2    :      0.08s CPU      0.08s WALL (     600 calls)
     cegterg      :      5.31s CPU      5.39s WALL (     280 calls)

     Called by sum_band:
     sum_band:bec :      0.01s CPU      0.01s WALL (     280 calls)
     addusdens    :      0.73s CPU      0.73s WALL (       7 calls)

     Called by *egterg:
     h_psi        :      2.90s CPU      2.94s WALL (    1206 calls)
     s_psi        :      0.31s CPU      0.32s WALL (    1206 calls)
     g_psi        :      0.03s CPU      0.03s WALL (     886 calls)
     cdiaghg      :      0.74s CPU      0.75s WALL (    1126 calls)

     Called by h_psi:
     h_psi:pot    :      2.88s CPU      2.93s WALL (    1206 calls)
     h_psi:calbec :      0.42s CPU      0.43s WALL (    1206 calls)
     vloc_psi     :      2.15s CPU      2.18s WALL (    1206 calls)
     add_vuspsi   :      0.31s CPU      0.32s WALL (    1206 calls)

     General routines
     calbec       :      0.56s CPU      0.57s WALL (    1486 calls)
     fft          :      0.12s CPU      0.12s WALL (     171 calls)
     ffts         :      0.00s CPU      0.00s WALL (      28 calls)
     fftw         :      2.18s CPU      2.21s WALL (   35046 calls)
     interpolate  :      0.01s CPU      0.01s WALL (      14 calls)

     Parallel routines
     fft_scatt_xy :      0.28s CPU      0.28s WALL (   35245 calls)
     fft_scatt_yz :      1.20s CPU      1.22s WALL (   35245 calls)

     PWSCF        :      9.82s CPU      9.98s WALL


   This run was terminated on:  23:31:10   9Mar2022            

=------------------------------------------------------------------------------=
   JOB DONE.
=------------------------------------------------------------------------------=
