
     Program PWSCF v.6.4.1 starts on  9Mar2022 at 23:31:10 

     This program is part of the open-source Quantum ESPRESSO suite
     for quantum simulation of materials; please cite
         "P. Giannozzi et al., J. Phys.:Condens. Matter 21 395502 (2009);
         "P. Giannozzi et al., J. Phys.:Condens. Matter 29 465901 (2017);
          URL http://www.quantum-espresso.org", 
     in publications or presentations arising from this work. More details at
     http://www.quantum-espresso.org/quote

     Parallel version (MPI), running on     6 processors

     MPI processes distributed on     1 nodes
     R & G space division:  proc/nbgrp/npool/nimage =       6
     Reading input from degauss-0.09.in

     Current dimensions of program PWSCF are:
     Max number of different atomic species (ntypx) = 10
     Max number of k-points (npk) =  40000
     Max angular momentum in pseudopotentials (lmaxx) =  3
               file Cr.pbe-spn-rrkjus_psl.1.0.0.UPF: wavefunction(s)  3P renormalized
               file Cr.pbe-spn-rrkjus_psl.1.0.0.UPF: wavefunction(s)  3P renormalized

     Subspace diagonalization in iterative solution of the eigenvalue problem:
     a serial algorithm will be used

     Message from routine setup:
     DEPRECATED: symmetry with ibrav=0, use correct ibrav instead

     Parallelization info
     --------------------
     sticks:   dense  smooth     PW     G-vecs:    dense   smooth      PW
     Min         320     129     38                10576     2689     433
     Max         321     131     40                10577     2690     434
     Sum        1925     777    233                63461    16135    2601



     bravais-lattice index     =            0
     lattice parameter (alat)  =       5.4991  a.u.
     unit-cell volume          =     166.2936 (a.u.)^3
     number of atoms/cell      =            2
     number of atomic types    =            2
     number of electrons       =        28.00
     number of Kohn-Sham states=           18
     kinetic-energy cutoff     =      80.0000  Ry
     charge density cutoff     =     800.0000  Ry
     convergence threshold     =      1.0E-06
     mixing beta               =       0.7000
     number of iterations used =            8  plain     mixing
     Exchange-correlation      = PBE ( 1  4  3  4 0 0)

     celldm(1)=   5.499103  celldm(2)=   0.000000  celldm(3)=   0.000000
     celldm(4)=   0.000000  celldm(5)=   0.000000  celldm(6)=   0.000000

     crystal axes: (cart. coord. in units of alat)
               a(1) = (   1.000000   0.000000   0.000000 )  
               a(2) = (   0.000000   1.000000   0.000000 )  
               a(3) = (   0.000000   0.000000   1.000000 )  

     reciprocal axes: (cart. coord. in units 2 pi/alat)
               b(1) = (  1.000000  0.000000  0.000000 )  
               b(2) = (  0.000000  1.000000  0.000000 )  
               b(3) = (  0.000000  0.000000  1.000000 )  


     PseudoPot. # 1 for Cr read from file:
     /home/cristian/Escritorio/Proyecto_Grafeno/pseudopotenciales/Cr.pbe-spn-rrkjus_psl.1.0.0.UPF
     MD5 check sum: 793d051e4f89dd1e3290b85340a92c0a
     Pseudo is Ultrasoft + core correction, Zval = 14.0
     Generated using "atomic" code by A. Dal Corso v.6.2.2
     Using radial grid of 1183 points,  6 beta functions with: 
                l(1) =   0
                l(2) =   0
                l(3) =   1
                l(4) =   1
                l(5) =   2
                l(6) =   2
     Q(r) pseudized with 0 coefficients 


     PseudoPot. # 2 for Cr read from file:
     /home/cristian/Escritorio/Proyecto_Grafeno/pseudopotenciales/Cr.pbe-spn-rrkjus_psl.1.0.0.UPF
     MD5 check sum: 793d051e4f89dd1e3290b85340a92c0a
     Pseudo is Ultrasoft + core correction, Zval = 14.0
     Generated using "atomic" code by A. Dal Corso v.6.2.2
     Using radial grid of 1183 points,  6 beta functions with: 
                l(1) =   0
                l(2) =   0
                l(3) =   1
                l(4) =   1
                l(5) =   2
                l(6) =   2
     Q(r) pseudized with 0 coefficients 


     atomic species   valence    mass     pseudopotential
        Cr1           14.00    51.99610     Cr( 1.00)
        Cr2           14.00    51.99610     Cr( 1.00)

     Starting magnetic structure 
     atomic species   magnetization
        Cr1          0.100
        Cr2         -0.100

     48 Sym. Ops., with inversion, found



   Cartesian axes

     site n.     atom                  positions (alat units)
         1           Cr1 tau(   1) = (   0.0000000   0.0000000   0.0000000  )
         2           Cr2 tau(   2) = (   0.5000000   0.5000000   0.5000000  )

     number of k points=    20  Marzari-Vanderbilt smearing, width (Ry)=  0.0900
                       cart. coord. in units 2pi/alat
        k(    1) = (   0.0625000   0.0625000   0.0625000), wk =   0.0156250
        k(    2) = (   0.0625000   0.0625000   0.1875000), wk =   0.0468750
        k(    3) = (   0.0625000   0.0625000   0.3125000), wk =   0.0468750
        k(    4) = (   0.0625000   0.0625000   0.4375000), wk =   0.0468750
        k(    5) = (   0.0625000   0.1875000   0.1875000), wk =   0.0468750
        k(    6) = (   0.0625000   0.1875000   0.3125000), wk =   0.0937500
        k(    7) = (   0.0625000   0.1875000   0.4375000), wk =   0.0937500
        k(    8) = (   0.0625000   0.3125000   0.3125000), wk =   0.0468750
        k(    9) = (   0.0625000   0.3125000   0.4375000), wk =   0.0937500
        k(   10) = (   0.0625000   0.4375000   0.4375000), wk =   0.0468750
        k(   11) = (   0.1875000   0.1875000   0.1875000), wk =   0.0156250
        k(   12) = (   0.1875000   0.1875000   0.3125000), wk =   0.0468750
        k(   13) = (   0.1875000   0.1875000   0.4375000), wk =   0.0468750
        k(   14) = (   0.1875000   0.3125000   0.3125000), wk =   0.0468750
        k(   15) = (   0.1875000   0.3125000   0.4375000), wk =   0.0937500
        k(   16) = (   0.1875000   0.4375000   0.4375000), wk =   0.0468750
        k(   17) = (   0.3125000   0.3125000   0.3125000), wk =   0.0156250
        k(   18) = (   0.3125000   0.3125000   0.4375000), wk =   0.0468750
        k(   19) = (   0.3125000   0.4375000   0.4375000), wk =   0.0468750
        k(   20) = (   0.4375000   0.4375000   0.4375000), wk =   0.0156250

     Dense  grid:    63461 G-vectors     FFT dimensions: (  50,  50,  50)

     Smooth grid:    16135 G-vectors     FFT dimensions: (  32,  32,  32)

     Estimated max dynamical RAM per process >      48.55 MB

     Estimated total dynamical RAM >     291.30 MB
     Generating pointlists ...
     new r_m :   0.3572 (alat units)  1.9645 (a.u.) for type    1
     new r_m :   0.3572 (alat units)  1.9645 (a.u.) for type    2

     Check: negative core charge=   -0.000002

     Initial potential from superposition of free atoms

     starting charge   27.99845, renormalised to   28.00000
     Starting wfcs are   20 randomized atomic wfcs

     total cpu time spent up to now is        2.2 secs

     Self-consistent Calculation

     iteration #  1     ecut=    80.00 Ry     beta= 0.70
     Davidson diagonalization with overlap
     ethr =  1.00E-02,  avg # of iterations =  2.5

     Threshold (ethr) on eigenvalues was too large:
     Diagonalizing with lowered threshold

     Davidson diagonalization with overlap
     ethr =  6.31E-04,  avg # of iterations =  2.3

     total cpu time spent up to now is        3.9 secs

     total energy              =    -349.87931967 Ry
     Harris-Foulkes estimate   =    -350.00391100 Ry
     estimated scf accuracy    <       0.19011520 Ry

     total magnetization       =    -0.00 Bohr mag/cell
     absolute magnetization    =     2.02 Bohr mag/cell

     iteration #  2     ecut=    80.00 Ry     beta= 0.70
     Davidson diagonalization with overlap
     ethr =  6.79E-04,  avg # of iterations =  3.1

     total cpu time spent up to now is        5.1 secs

     total energy              =    -349.90599389 Ry
     Harris-Foulkes estimate   =    -350.03709588 Ry
     estimated scf accuracy    <       0.28762154 Ry

     total magnetization       =    -0.00 Bohr mag/cell
     absolute magnetization    =     2.49 Bohr mag/cell

     iteration #  3     ecut=    80.00 Ry     beta= 0.70
     Davidson diagonalization with overlap
     ethr =  6.79E-04,  avg # of iterations =  3.0

     total cpu time spent up to now is        6.2 secs

     total energy              =    -349.96476000 Ry
     Harris-Foulkes estimate   =    -349.96485641 Ry
     estimated scf accuracy    <       0.00212812 Ry

     total magnetization       =     0.00 Bohr mag/cell
     absolute magnetization    =     2.18 Bohr mag/cell

     iteration #  4     ecut=    80.00 Ry     beta= 0.70
     Davidson diagonalization with overlap
     ethr =  7.60E-06,  avg # of iterations =  4.0

     total cpu time spent up to now is        7.5 secs

     total energy              =    -349.96315134 Ry
     Harris-Foulkes estimate   =    -349.96799011 Ry
     estimated scf accuracy    <       0.05545678 Ry

     total magnetization       =    -0.04 Bohr mag/cell
     absolute magnetization    =     2.14 Bohr mag/cell

     iteration #  5     ecut=    80.00 Ry     beta= 0.70
     Davidson diagonalization with overlap
     ethr =  7.60E-06,  avg # of iterations =  3.8

     total cpu time spent up to now is        8.6 secs

     total energy              =    -349.96557418 Ry
     Harris-Foulkes estimate   =    -349.96554800 Ry
     estimated scf accuracy    <       0.00004681 Ry

     total magnetization       =     0.00 Bohr mag/cell
     absolute magnetization    =     2.14 Bohr mag/cell

     iteration #  6     ecut=    80.00 Ry     beta= 0.70
     Davidson diagonalization with overlap
     ethr =  1.67E-07,  avg # of iterations =  3.9

     total cpu time spent up to now is        9.7 secs

     total energy              =    -349.96560198 Ry
     Harris-Foulkes estimate   =    -349.96560148 Ry
     estimated scf accuracy    <       0.00002221 Ry

     total magnetization       =     0.00 Bohr mag/cell
     absolute magnetization    =     2.10 Bohr mag/cell

     iteration #  7     ecut=    80.00 Ry     beta= 0.70
     Davidson diagonalization with overlap
     ethr =  7.93E-08,  avg # of iterations =  4.0

     total cpu time spent up to now is       10.9 secs

     total energy              =    -349.96528309 Ry
     Harris-Foulkes estimate   =    -349.96566105 Ry
     estimated scf accuracy    <       0.00001263 Ry

     total magnetization       =    -0.00 Bohr mag/cell
     absolute magnetization    =     2.02 Bohr mag/cell

     iteration #  8     ecut=    80.00 Ry     beta= 0.70
     Davidson diagonalization with overlap
     ethr =  4.51E-08,  avg # of iterations =  4.9

     total cpu time spent up to now is       12.4 secs

     total energy              =    -349.96459337 Ry
     Harris-Foulkes estimate   =    -349.96578734 Ry
     estimated scf accuracy    <       0.00000476 Ry

     total magnetization       =    -0.00 Bohr mag/cell
     absolute magnetization    =     1.79 Bohr mag/cell

     iteration #  9     ecut=    80.00 Ry     beta= 0.70
     Davidson diagonalization with overlap
     ethr =  1.70E-08,  avg # of iterations =  5.1

     total cpu time spent up to now is       14.0 secs

     total energy              =    -349.96558570 Ry
     Harris-Foulkes estimate   =    -349.96587172 Ry
     estimated scf accuracy    <       0.00000319 Ry

     total magnetization       =    -0.00 Bohr mag/cell
     absolute magnetization    =     1.42 Bohr mag/cell

     iteration # 10     ecut=    80.00 Ry     beta= 0.70
     Davidson diagonalization with overlap
     ethr =  1.14E-08,  avg # of iterations =  4.9

     Magnetic moment per site:
     atom:    1    charge:   12.2736    magn:    0.5779    constr:    0.0000
     atom:    2    charge:   12.2732    magn:   -0.5779    constr:    0.0000

     total cpu time spent up to now is       15.6 secs

     End of self-consistent calculation

 ------ SPIN UP ------------


          k = 0.0625 0.0625 0.0625 (  2013 PWs)   bands (ev):

   -53.9106 -53.2409 -25.2496 -25.2496 -25.2252 -24.4491 -24.4225 -24.4225
    10.6958  14.3155  14.3155  17.2541  17.2541  17.5038  19.2128  19.2128
    19.9722  20.3935

          k = 0.0625 0.0625 0.1875 (  2003 PWs)   bands (ev):

   -53.9004 -53.2449 -25.2727 -25.2236 -25.1997 -24.5069 -24.4441 -24.4358
    11.3177  14.6200  14.6273  17.1277  17.2006  17.8036  18.8463  19.2106
    19.3835  19.7276

          k = 0.0625 0.0625 0.3125 (  2003 PWs)   bands (ev):

   -53.8856 -53.2508 -25.2906 -25.1841 -25.1783 -24.5777 -24.4775 -24.4651
    12.4374  14.9439  15.2136  17.1202  17.1258  18.0762  18.2357  18.5787
    18.9040  19.6619

          k = 0.0625 0.0625 0.4375 (  2011 PWs)   bands (ev):

   -53.8750 -53.2552 -25.2980 -25.1695 -25.1537 -24.6221 -24.5036 -24.4901
    13.7547  14.7467  15.9755  16.8062  17.3011  17.7407  17.8084  18.2994
    18.8704  19.5134

          k = 0.0625 0.1875 0.1875 (  1999 PWs)   bands (ev):

   -53.8920 -53.2469 -25.3012 -25.2169 -25.1855 -24.5463 -24.4585 -24.4351
    11.8902  14.8187  14.9900  16.8282  17.0375  18.0503  18.6186  18.9641
    19.2912  19.3196

          k = 0.0625 0.1875 0.3125 (  2012 PWs)   bands (ev):

   -53.8799 -53.2499 -25.3301 -25.2175 -25.1739 -24.5723 -24.4835 -24.4520
    12.8836  15.0136  15.5451  16.6453  16.9002  17.5012  18.6595  18.7774
    19.0492  19.5351

          k = 0.0625 0.1875 0.4375 (  2008 PWs)   bands (ev):

   -53.8713 -53.2521 -25.3383 -25.2489 -25.1515 -24.5703 -24.5065 -24.4737
    13.9735  14.7704  16.1111  16.5496  16.8576  17.0718  18.4199  18.5828
    19.5336  20.0007

          k = 0.0625 0.3125 0.3125 (  2007 PWs)   bands (ev):

   -53.8718 -53.2485 -25.3757 -25.2855 -25.1575 -24.5491 -24.4893 -24.4508
    13.5308  14.8121  16.2728  16.3037  16.8365  17.0116  18.6304  19.0660
    19.4209  19.7494

          k = 0.0625 0.3125 0.4375 (  2016 PWs)   bands (ev):

   -53.8661 -53.2476 -25.3938 -25.3489 -25.1440 -24.5170 -24.4966 -24.4627
    14.0640  14.4684  16.1815  16.3678  17.0046  17.3554  18.8360  19.0478
    19.7225  20.3920

          k = 0.0625 0.4375 0.4375 (  2020 PWs)   bands (ev):

   -53.8624 -53.2445 -25.4291 -25.4159 -25.1385 -24.4982 -24.4726 -24.4606
    14.0448  14.1772  15.9388  16.0066  18.0747  18.4061  19.1101  19.2868
    19.5017  20.2314

          k = 0.1875 0.1875 0.1875 (  1992 PWs)   bands (ev):

   -53.8849 -53.2474 -25.2706 -25.2706 -25.1927 -24.5462 -24.4613 -24.4613
    12.4433  15.1816  15.1816  16.6734  16.6734  17.3253  19.0354  19.1649
    19.1649  19.8599

          k = 0.1875 0.1875 0.3125 (  2002 PWs)   bands (ev):

   -53.8749 -53.2482 -25.3212 -25.2308 -25.2234 -24.5453 -24.5024 -24.4630
    13.3744  15.4705  15.5099  16.4399  16.5062  16.7812  18.9422  19.1835
    19.4389  19.7640

          k = 0.1875 0.1875 0.4375 (  2014 PWs)   bands (ev):

   -53.8677 -53.2489 -25.3482 -25.2681 -25.1865 -24.5437 -24.5352 -24.4634
    14.3310  15.0640  15.8728  16.1811  16.6608  16.8679  18.7349  18.7994
    19.5603  19.9248

          k = 0.1875 0.3125 0.3125 (  2011 PWs)   bands (ev):

   -53.8677 -53.2460 -25.3384 -25.2936 -25.2118 -24.5389 -24.5000 -24.4840
    14.0775  15.2634  16.1269  16.2497  16.2658  16.4462  19.1013  19.2021
    19.4102  19.9729

          k = 0.1875 0.3125 0.4375 (  2010 PWs)   bands (ev):

   -53.8627 -53.2444 -25.3684 -25.3316 -25.1871 -24.5484 -24.5137 -24.4738
    14.5600  14.9087  15.9938  16.0712  16.7009  16.9075  19.0421  19.1661
    19.5152  19.9252

          k = 0.1875 0.4375 0.4375 (  2027 PWs)   bands (ev):

   -53.8591 -53.2412 -25.3872 -25.3814 -25.1759 -24.5406 -24.4988 -24.4944
    14.5203  14.6620  15.8466  15.8875  17.4762  17.4834  19.1873  19.3926
    19.4138  19.8751

          k = 0.3125 0.3125 0.3125 (  2016 PWs)   bands (ev):

   -53.8619 -53.2423 -25.3107 -25.2801 -25.2801 -24.5366 -24.5366 -24.5053
    14.9015  15.6057  15.9398  15.9398  16.1366  16.1366  19.3285  19.3285
    19.5718  19.5718

          k = 0.3125 0.3125 0.4375 (  2019 PWs)   bands (ev):

   -53.8578 -53.2397 -25.3407 -25.3097 -25.2330 -24.5796 -24.5399 -24.5048
    15.1602  15.3711  15.8222  16.0282  16.2175  16.6000  19.2175  19.3932
    19.4678  19.8017

          k = 0.3125 0.4375 0.4375 (  2001 PWs)   bands (ev):

   -53.8544 -53.2364 -25.3284 -25.3205 -25.2282 -24.5888 -24.5600 -24.5408
    15.1992  15.4178  15.7565  15.8386  16.6426  16.7432  19.2897  19.3384
    19.6435  19.8329

          k = 0.4375 0.4375 0.4375 (  1977 PWs)   bands (ev):

   -53.8511 -53.2331 -25.2862 -25.2658 -25.2658 -24.6107 -24.6107 -24.5893
    15.5651  15.7695  15.7695  16.2094  16.2314  16.2314  19.3309  19.3309
    19.8362  19.8362

 ------ SPIN DOWN ----------


          k = 0.0625 0.0625 0.0625 (  2013 PWs)   bands (ev):

   -53.9104 -53.2412 -25.2495 -25.2495 -25.2251 -24.4494 -24.4228 -24.4228
    10.6957  14.3155  14.3155  17.2540  17.2540  17.5037  19.2128  19.2128
    19.9721  20.3934

          k = 0.0625 0.0625 0.1875 (  2003 PWs)   bands (ev):

   -53.9002 -53.2452 -25.2726 -25.2235 -25.1995 -24.5072 -24.4444 -24.4361
    11.3176  14.6200  14.6273  17.1277  17.2006  17.8036  18.8462  19.2104
    19.3834  19.7275

          k = 0.0625 0.0625 0.3125 (  2003 PWs)   bands (ev):

   -53.8854 -53.2512 -25.2905 -25.1839 -25.1782 -24.5780 -24.4778 -24.4653
    12.4373  14.9439  15.2135  17.1201  17.1257  18.0763  18.2356  18.5785
    18.9039  19.6619

          k = 0.0625 0.0625 0.4375 (  2011 PWs)   bands (ev):

   -53.8748 -53.2556 -25.2979 -25.1693 -25.1535 -24.6224 -24.5039 -24.4904
    13.7546  14.7466  15.9755  16.8061  17.3011  17.7406  17.8084  18.2992
    18.8703  19.5132

          k = 0.0625 0.1875 0.1875 (  1999 PWs)   bands (ev):

   -53.8918 -53.2472 -25.3011 -25.2168 -25.1853 -24.5466 -24.4588 -24.4353
    11.8901  14.8186  14.9900  16.8281  17.0375  18.0504  18.6183  18.9641
    19.2911  19.3194

          k = 0.0625 0.1875 0.3125 (  2012 PWs)   bands (ev):

   -53.8797 -53.2502 -25.3300 -25.2174 -25.1738 -24.5726 -24.4838 -24.4523
    12.8836  15.0136  15.5451  16.6452  16.9002  17.5012  18.6594  18.7773
    19.0491  19.5350

          k = 0.0625 0.1875 0.4375 (  2008 PWs)   bands (ev):

   -53.8711 -53.2525 -25.3382 -25.2488 -25.1514 -24.5706 -24.5068 -24.4740
    13.9734  14.7704  16.1111  16.5495  16.8576  17.0717  18.4199  18.5826
    19.5335  20.0006

          k = 0.0625 0.3125 0.3125 (  2007 PWs)   bands (ev):

   -53.8716 -53.2489 -25.3756 -25.2854 -25.1573 -24.5494 -24.4896 -24.4510
    13.5307  14.8121  16.2727  16.3036  16.8365  17.0116  18.6303  19.0660
    19.4208  19.7492

          k = 0.0625 0.3125 0.4375 (  2016 PWs)   bands (ev):

   -53.8659 -53.2480 -25.3937 -25.3488 -25.1439 -24.5173 -24.4969 -24.4629
    14.0640  14.4684  16.1814  16.3677  17.0046  17.3553  18.8359  19.0477
    19.7224  20.3918

          k = 0.0625 0.4375 0.4375 (  2020 PWs)   bands (ev):

   -53.8622 -53.2448 -25.4290 -25.4158 -25.1384 -24.4985 -24.4728 -24.4609
    14.0447  14.1771  15.9388  16.0065  18.0746  18.4060  19.1101  19.2867
    19.5017  20.2313

          k = 0.1875 0.1875 0.1875 (  1992 PWs)   bands (ev):

   -53.8848 -53.2477 -25.2705 -25.2705 -25.1925 -24.5465 -24.4616 -24.4616
    12.4433  15.1816  15.1816  16.6734  16.6734  17.3253  19.0353  19.1648
    19.1648  19.8598

          k = 0.1875 0.1875 0.3125 (  2002 PWs)   bands (ev):

   -53.8747 -53.2486 -25.3211 -25.2307 -25.2233 -24.5456 -24.5027 -24.4633
    13.3744  15.4705  15.5099  16.4399  16.5062  16.7812  18.9421  19.1833
    19.4388  19.7639

          k = 0.1875 0.1875 0.4375 (  2014 PWs)   bands (ev):

   -53.8675 -53.2493 -25.3480 -25.2680 -25.1863 -24.5440 -24.5355 -24.4636
    14.3309  15.0639  15.8727  16.1810  16.6608  16.8678  18.7348  18.7993
    19.5604  19.9246

          k = 0.1875 0.3125 0.3125 (  2011 PWs)   bands (ev):

   -53.8675 -53.2463 -25.3384 -25.2934 -25.2116 -24.5392 -24.5003 -24.4842
    14.0775  15.2633  16.1269  16.2496  16.2658  16.4462  19.1012  19.2020
    19.4102  19.9727

          k = 0.1875 0.3125 0.4375 (  2010 PWs)   bands (ev):

   -53.8625 -53.2447 -25.3683 -25.3315 -25.1870 -24.5487 -24.5139 -24.4741
    14.5600  14.9087  15.9938  16.0712  16.7009  16.9074  19.0421  19.1660
    19.5153  19.9250

          k = 0.1875 0.4375 0.4375 (  2027 PWs)   bands (ev):

   -53.8589 -53.2415 -25.3871 -25.3813 -25.1758 -24.5409 -24.4991 -24.4946
    14.5203  14.6619  15.8465  15.8874  17.4761  17.4833  19.1873  19.3927
    19.4136  19.8748

          k = 0.3125 0.3125 0.3125 (  2016 PWs)   bands (ev):

   -53.8618 -53.2427 -25.3106 -25.2799 -25.2799 -24.5369 -24.5369 -24.5056
    14.9015  15.6056  15.9398  15.9398  16.1365  16.1365  19.3285  19.3285
    19.5716  19.5716

          k = 0.3125 0.3125 0.4375 (  2019 PWs)   bands (ev):

   -53.8576 -53.2401 -25.3406 -25.3096 -25.2328 -24.5799 -24.5401 -24.5051
    15.1602  15.3710  15.8222  16.0281  16.2175  16.5999  19.2175  19.3933
    19.4676  19.8014

          k = 0.3125 0.4375 0.4375 (  2001 PWs)   bands (ev):

   -53.8542 -53.2368 -25.3283 -25.3204 -25.2281 -24.5891 -24.5603 -24.5411
    15.1992  15.4177  15.7564  15.8385  16.6424  16.7431  19.2897  19.3385
    19.6432  19.8327

          k = 0.4375 0.4375 0.4375 (  1977 PWs)   bands (ev):

   -53.8509 -53.2335 -25.2861 -25.2657 -25.2657 -24.6110 -24.6110 -24.5896
    15.5651  15.7695  15.7695  16.2093  16.2312  16.2312  19.3311  19.3311
    19.8359  19.8359

     the Fermi energy is    17.9373 ev

!    total energy              =    -349.96587785 Ry
     Harris-Foulkes estimate   =    -349.96587784 Ry
     estimated scf accuracy    <       0.00000019 Ry

     The total energy is the sum of the following terms:

     one-electron contribution =    -121.52766556 Ry
     hartree contribution      =      75.42111836 Ry
     xc contribution           =     -44.46807962 Ry
     ewald contribution        =    -259.42040003 Ry
     smearing contrib. (-TS)   =       0.02914900 Ry

     total magnetization       =    -0.00 Bohr mag/cell
     absolute magnetization    =     1.24 Bohr mag/cell

     convergence has been achieved in  10 iterations

     Writing output data file degauss-0.09.save/

     init_run     :      0.70s CPU      0.73s WALL (       1 calls)
     electrons    :     13.27s CPU     13.45s WALL (       1 calls)

     Called by init_run:
     wfcinit      :      0.24s CPU      0.24s WALL (       1 calls)
     potinit      :      0.07s CPU      0.08s WALL (       1 calls)
     hinit0       :      0.28s CPU      0.28s WALL (       1 calls)

     Called by electrons:
     c_bands      :     10.09s CPU     10.23s WALL (      11 calls)
     sum_band     :      2.13s CPU      2.16s WALL (      11 calls)
     v_of_rho     :      0.39s CPU      0.39s WALL (      11 calls)
     newd         :      0.67s CPU      0.69s WALL (      11 calls)
     mix_rho      :      0.04s CPU      0.04s WALL (      11 calls)

     Called by c_bands:
     init_us_2    :      0.13s CPU      0.13s WALL (     920 calls)
     cegterg      :      9.60s CPU      9.74s WALL (     440 calls)

     Called by sum_band:
     sum_band:bec :      0.01s CPU      0.01s WALL (     440 calls)
     addusdens    :      1.19s CPU      1.19s WALL (      11 calls)

     Called by *egterg:
     h_psi        :      4.94s CPU      5.02s WALL (    2135 calls)
     s_psi        :      0.54s CPU      0.55s WALL (    2135 calls)
     g_psi        :      0.05s CPU      0.05s WALL (    1655 calls)
     cdiaghg      :      1.43s CPU      1.44s WALL (    2055 calls)

     Called by h_psi:
     h_psi:pot    :      4.92s CPU      4.99s WALL (    2135 calls)
     h_psi:calbec :      0.74s CPU      0.76s WALL (    2135 calls)
     vloc_psi     :      3.63s CPU      3.68s WALL (    2135 calls)
     add_vuspsi   :      0.54s CPU      0.55s WALL (    2135 calls)

     General routines
     calbec       :      0.95s CPU      0.97s WALL (    2575 calls)
     fft          :      0.17s CPU      0.17s WALL (     271 calls)
     ffts         :      0.01s CPU      0.01s WALL (      44 calls)
     fftw         :      3.64s CPU      3.70s WALL (   59126 calls)
     interpolate  :      0.02s CPU      0.02s WALL (      22 calls)

     Parallel routines
     fft_scatt_xy :      0.48s CPU      0.48s WALL (   59441 calls)
     fft_scatt_yz :      1.94s CPU      1.97s WALL (   59441 calls)

     PWSCF        :     15.45s CPU     15.67s WALL


   This run was terminated on:  23:31:26   9Mar2022            

=------------------------------------------------------------------------------=
   JOB DONE.
=------------------------------------------------------------------------------=
