
     Program PWSCF v.6.4.1 starts on  9Mar2022 at 23:30:46 

     This program is part of the open-source Quantum ESPRESSO suite
     for quantum simulation of materials; please cite
         "P. Giannozzi et al., J. Phys.:Condens. Matter 21 395502 (2009);
         "P. Giannozzi et al., J. Phys.:Condens. Matter 29 465901 (2017);
          URL http://www.quantum-espresso.org", 
     in publications or presentations arising from this work. More details at
     http://www.quantum-espresso.org/quote

     Parallel version (MPI), running on     6 processors

     MPI processes distributed on     1 nodes
     R & G space division:  proc/nbgrp/npool/nimage =       6
     Reading input from degauss-0.05.in

     Current dimensions of program PWSCF are:
     Max number of different atomic species (ntypx) = 10
     Max number of k-points (npk) =  40000
     Max angular momentum in pseudopotentials (lmaxx) =  3
               file Cr.pbe-spn-rrkjus_psl.1.0.0.UPF: wavefunction(s)  3P renormalized
               file Cr.pbe-spn-rrkjus_psl.1.0.0.UPF: wavefunction(s)  3P renormalized

     Subspace diagonalization in iterative solution of the eigenvalue problem:
     a serial algorithm will be used

     Message from routine setup:
     DEPRECATED: symmetry with ibrav=0, use correct ibrav instead

     Parallelization info
     --------------------
     sticks:   dense  smooth     PW     G-vecs:    dense   smooth      PW
     Min         320     129     38                10576     2689     433
     Max         321     131     40                10577     2690     434
     Sum        1925     777    233                63461    16135    2601



     bravais-lattice index     =            0
     lattice parameter (alat)  =       5.4991  a.u.
     unit-cell volume          =     166.2936 (a.u.)^3
     number of atoms/cell      =            2
     number of atomic types    =            2
     number of electrons       =        28.00
     number of Kohn-Sham states=           18
     kinetic-energy cutoff     =      80.0000  Ry
     charge density cutoff     =     800.0000  Ry
     convergence threshold     =      1.0E-06
     mixing beta               =       0.7000
     number of iterations used =            8  plain     mixing
     Exchange-correlation      = PBE ( 1  4  3  4 0 0)

     celldm(1)=   5.499103  celldm(2)=   0.000000  celldm(3)=   0.000000
     celldm(4)=   0.000000  celldm(5)=   0.000000  celldm(6)=   0.000000

     crystal axes: (cart. coord. in units of alat)
               a(1) = (   1.000000   0.000000   0.000000 )  
               a(2) = (   0.000000   1.000000   0.000000 )  
               a(3) = (   0.000000   0.000000   1.000000 )  

     reciprocal axes: (cart. coord. in units 2 pi/alat)
               b(1) = (  1.000000  0.000000  0.000000 )  
               b(2) = (  0.000000  1.000000  0.000000 )  
               b(3) = (  0.000000  0.000000  1.000000 )  


     PseudoPot. # 1 for Cr read from file:
     /home/cristian/Escritorio/Proyecto_Grafeno/pseudopotenciales/Cr.pbe-spn-rrkjus_psl.1.0.0.UPF
     MD5 check sum: 793d051e4f89dd1e3290b85340a92c0a
     Pseudo is Ultrasoft + core correction, Zval = 14.0
     Generated using "atomic" code by A. Dal Corso v.6.2.2
     Using radial grid of 1183 points,  6 beta functions with: 
                l(1) =   0
                l(2) =   0
                l(3) =   1
                l(4) =   1
                l(5) =   2
                l(6) =   2
     Q(r) pseudized with 0 coefficients 


     PseudoPot. # 2 for Cr read from file:
     /home/cristian/Escritorio/Proyecto_Grafeno/pseudopotenciales/Cr.pbe-spn-rrkjus_psl.1.0.0.UPF
     MD5 check sum: 793d051e4f89dd1e3290b85340a92c0a
     Pseudo is Ultrasoft + core correction, Zval = 14.0
     Generated using "atomic" code by A. Dal Corso v.6.2.2
     Using radial grid of 1183 points,  6 beta functions with: 
                l(1) =   0
                l(2) =   0
                l(3) =   1
                l(4) =   1
                l(5) =   2
                l(6) =   2
     Q(r) pseudized with 0 coefficients 


     atomic species   valence    mass     pseudopotential
        Cr1           14.00    51.99610     Cr( 1.00)
        Cr2           14.00    51.99610     Cr( 1.00)

     Starting magnetic structure 
     atomic species   magnetization
        Cr1          0.100
        Cr2         -0.100

     48 Sym. Ops., with inversion, found



   Cartesian axes

     site n.     atom                  positions (alat units)
         1           Cr1 tau(   1) = (   0.0000000   0.0000000   0.0000000  )
         2           Cr2 tau(   2) = (   0.5000000   0.5000000   0.5000000  )

     number of k points=    20  Marzari-Vanderbilt smearing, width (Ry)=  0.0500
                       cart. coord. in units 2pi/alat
        k(    1) = (   0.0625000   0.0625000   0.0625000), wk =   0.0156250
        k(    2) = (   0.0625000   0.0625000   0.1875000), wk =   0.0468750
        k(    3) = (   0.0625000   0.0625000   0.3125000), wk =   0.0468750
        k(    4) = (   0.0625000   0.0625000   0.4375000), wk =   0.0468750
        k(    5) = (   0.0625000   0.1875000   0.1875000), wk =   0.0468750
        k(    6) = (   0.0625000   0.1875000   0.3125000), wk =   0.0937500
        k(    7) = (   0.0625000   0.1875000   0.4375000), wk =   0.0937500
        k(    8) = (   0.0625000   0.3125000   0.3125000), wk =   0.0468750
        k(    9) = (   0.0625000   0.3125000   0.4375000), wk =   0.0937500
        k(   10) = (   0.0625000   0.4375000   0.4375000), wk =   0.0468750
        k(   11) = (   0.1875000   0.1875000   0.1875000), wk =   0.0156250
        k(   12) = (   0.1875000   0.1875000   0.3125000), wk =   0.0468750
        k(   13) = (   0.1875000   0.1875000   0.4375000), wk =   0.0468750
        k(   14) = (   0.1875000   0.3125000   0.3125000), wk =   0.0468750
        k(   15) = (   0.1875000   0.3125000   0.4375000), wk =   0.0937500
        k(   16) = (   0.1875000   0.4375000   0.4375000), wk =   0.0468750
        k(   17) = (   0.3125000   0.3125000   0.3125000), wk =   0.0156250
        k(   18) = (   0.3125000   0.3125000   0.4375000), wk =   0.0468750
        k(   19) = (   0.3125000   0.4375000   0.4375000), wk =   0.0468750
        k(   20) = (   0.4375000   0.4375000   0.4375000), wk =   0.0156250

     Dense  grid:    63461 G-vectors     FFT dimensions: (  50,  50,  50)

     Smooth grid:    16135 G-vectors     FFT dimensions: (  32,  32,  32)

     Estimated max dynamical RAM per process >      48.55 MB

     Estimated total dynamical RAM >     291.30 MB
     Generating pointlists ...
     new r_m :   0.3572 (alat units)  1.9645 (a.u.) for type    1
     new r_m :   0.3572 (alat units)  1.9645 (a.u.) for type    2

     Check: negative core charge=   -0.000002

     Initial potential from superposition of free atoms

     starting charge   27.99845, renormalised to   28.00000
     Starting wfcs are   20 randomized atomic wfcs

     total cpu time spent up to now is        2.3 secs

     Self-consistent Calculation

     iteration #  1     ecut=    80.00 Ry     beta= 0.70
     Davidson diagonalization with overlap
     ethr =  1.00E-02,  avg # of iterations =  2.5

     Threshold (ethr) on eigenvalues was too large:
     Diagonalizing with lowered threshold

     Davidson diagonalization with overlap
     ethr =  6.43E-04,  avg # of iterations =  2.3

     total cpu time spent up to now is        3.9 secs

     total energy              =    -349.89584426 Ry
     Harris-Foulkes estimate   =    -350.02221441 Ry
     estimated scf accuracy    <       0.19301715 Ry

     total magnetization       =    -0.00 Bohr mag/cell
     absolute magnetization    =     2.10 Bohr mag/cell

     iteration #  2     ecut=    80.00 Ry     beta= 0.70
     Davidson diagonalization with overlap
     ethr =  6.89E-04,  avg # of iterations =  3.1

     total cpu time spent up to now is        5.2 secs

     total energy              =    -349.92448962 Ry
     Harris-Foulkes estimate   =    -350.05243583 Ry
     estimated scf accuracy    <       0.28101939 Ry

     total magnetization       =    -0.00 Bohr mag/cell
     absolute magnetization    =     2.68 Bohr mag/cell

     iteration #  3     ecut=    80.00 Ry     beta= 0.70
     Davidson diagonalization with overlap
     ethr =  6.89E-04,  avg # of iterations =  3.0

     total cpu time spent up to now is        6.2 secs

     total energy              =    -349.98165858 Ry
     Harris-Foulkes estimate   =    -349.98194844 Ry
     estimated scf accuracy    <       0.00216816 Ry

     total magnetization       =     0.00 Bohr mag/cell
     absolute magnetization    =     2.36 Bohr mag/cell

     iteration #  4     ecut=    80.00 Ry     beta= 0.70
     Davidson diagonalization with overlap
     ethr =  7.74E-06,  avg # of iterations =  4.0

     total cpu time spent up to now is        7.5 secs

     total energy              =    -349.97728259 Ry
     Harris-Foulkes estimate   =    -349.98821103 Ry
     estimated scf accuracy    <       0.12565108 Ry

     total magnetization       =    -0.06 Bohr mag/cell
     absolute magnetization    =     2.40 Bohr mag/cell

     iteration #  5     ecut=    80.00 Ry     beta= 0.70
     Davidson diagonalization with overlap
     ethr =  7.74E-06,  avg # of iterations =  4.0

     total cpu time spent up to now is        8.7 secs

     total energy              =    -349.98268654 Ry
     Harris-Foulkes estimate   =    -349.98266552 Ry
     estimated scf accuracy    <       0.00002764 Ry

     total magnetization       =     0.00 Bohr mag/cell
     absolute magnetization    =     2.43 Bohr mag/cell

     iteration #  6     ecut=    80.00 Ry     beta= 0.70
     Davidson diagonalization with overlap
     ethr =  9.87E-08,  avg # of iterations =  3.8

     total cpu time spent up to now is        9.7 secs

     total energy              =    -349.98271473 Ry
     Harris-Foulkes estimate   =    -349.98269812 Ry
     estimated scf accuracy    <       0.00001597 Ry

     total magnetization       =     0.00 Bohr mag/cell
     absolute magnetization    =     2.45 Bohr mag/cell

     iteration #  7     ecut=    80.00 Ry     beta= 0.70
     Davidson diagonalization with overlap
     ethr =  5.70E-08,  avg # of iterations =  3.8

     total cpu time spent up to now is       10.8 secs

     total energy              =    -349.98254322 Ry
     Harris-Foulkes estimate   =    -349.98272979 Ry
     estimated scf accuracy    <       0.00001351 Ry

     total magnetization       =     0.00 Bohr mag/cell
     absolute magnetization    =     2.49 Bohr mag/cell

     iteration #  8     ecut=    80.00 Ry     beta= 0.70
     Davidson diagonalization with overlap
     ethr =  4.82E-08,  avg # of iterations =  4.7

     total cpu time spent up to now is       12.2 secs

     total energy              =    -349.98278891 Ry
     Harris-Foulkes estimate   =    -349.98281031 Ry
     estimated scf accuracy    <       0.00000267 Ry

     total magnetization       =     0.00 Bohr mag/cell
     absolute magnetization    =     2.65 Bohr mag/cell

     iteration #  9     ecut=    80.00 Ry     beta= 0.70
     Davidson diagonalization with overlap
     ethr =  9.54E-09,  avg # of iterations =  4.7

     Magnetic moment per site:
     atom:    1    charge:   12.2769    magn:    1.2601    constr:    0.0000
     atom:    2    charge:   12.2767    magn:   -1.2601    constr:    0.0000

     total cpu time spent up to now is       13.5 secs

     End of self-consistent calculation

 ------ SPIN UP ------------


          k = 0.0625 0.0625 0.0625 (  2013 PWs)   bands (ev):

   -54.1667 -52.7986 -25.4931 -25.4931 -25.4802 -24.0176 -24.0024 -24.0024
    10.7031  14.3209  14.3209  17.2142  17.2142  17.4403  19.3166  19.3166
    20.1889  20.5908

          k = 0.0625 0.0625 0.1875 (  2003 PWs)   bands (ev):

   -54.1602 -52.7989 -25.5194 -25.4779 -25.4687 -24.0625 -24.0132 -24.0118
    11.3252  14.6252  14.6278  17.0866  17.1460  17.6777  18.9509  19.4798
    19.4854  19.9317

          k = 0.0625 0.0625 0.3125 (  2003 PWs)   bands (ev):

   -54.1509 -52.7993 -25.5532 -25.4560 -25.4557 -24.1264 -24.0289 -24.0243
    12.4444  14.9524  15.1980  17.0436  17.0585  17.8415  18.3300  18.9481
    19.1456  19.7378

          k = 0.0625 0.0625 0.4375 (  2011 PWs)   bands (ev):

   -54.1442 -52.7997 -25.5765 -25.4471 -25.4403 -24.1711 -24.0404 -24.0335
    13.7521  14.7702  15.8929  16.8136  17.1684  17.7114  17.7915  18.6298
    18.9987  19.8209

          k = 0.0625 0.1875 0.1875 (  1999 PWs)   bands (ev):

   -54.1545 -52.7981 -25.5358 -25.4876 -25.4625 -24.0844 -24.0243 -24.0200
    11.8981  14.8186  14.9919  16.8033  16.9769  17.7833  19.0019  19.0761
    19.3941  19.5376

          k = 0.0625 0.1875 0.3125 (  2012 PWs)   bands (ev):

   -54.1464 -52.7971 -25.5697 -25.4959 -25.4496 -24.1185 -24.0400 -24.0273
    12.8915  15.0130  15.5376  16.6187  16.8401  17.3991  18.7392  18.9869
    19.2998  19.6278

          k = 0.0625 0.1875 0.4375 (  2008 PWs)   bands (ev):

   -54.1407 -52.7963 -25.5950 -25.5034 -25.4379 -24.1422 -24.0518 -24.0311
    13.9772  14.7753  16.0549  16.5168  16.8633  17.0467  18.4656  18.8015
    19.6149  20.1332

          k = 0.0625 0.3125 0.3125 (  2007 PWs)   bands (ev):

   -54.1402 -52.7938 -25.5976 -25.5486 -25.4394 -24.1104 -24.0531 -24.0306
    13.5389  14.8117  16.2453  16.3120  16.7904  16.9586  18.8075  19.1718
    19.5160  19.9294

          k = 0.0625 0.3125 0.4375 (  2016 PWs)   bands (ev):

   -54.1358 -52.7915 -25.6220 -25.5817 -25.4318 -24.1056 -24.0643 -24.0302
    14.0687  14.4734  16.1633  16.3540  16.9311  17.4172  18.9388  19.1564
    19.7679  20.5768

          k = 0.0625 0.4375 0.4375 (  2020 PWs)   bands (ev):

   -54.1323 -52.7882 -25.6422 -25.6343 -25.4273 -24.0821 -24.0723 -24.0294
    14.0295  14.2074  15.9321  15.9973  18.0454  18.3987  19.1654  19.4493
    19.4826  20.4683

          k = 0.1875 0.1875 0.1875 (  1992 PWs)   bands (ev):

   -54.1495 -52.7966 -25.5176 -25.5176 -25.4794 -24.0833 -24.0381 -24.0381
    12.4516  15.1803  15.1803  16.6432  16.6432  17.2316  19.2636  19.2716
    19.2716  20.0318

          k = 0.1875 0.1875 0.3125 (  2002 PWs)   bands (ev):

   -54.1424 -52.7944 -25.5654 -25.4981 -25.4913 -24.1044 -24.0583 -24.0406
    13.3823  15.4669  15.5011  16.4039  16.4903  16.7543  19.0535  19.3563
    19.5152  19.9191

          k = 0.1875 0.1875 0.4375 (  2014 PWs)   bands (ev):

   -54.1373 -52.7929 -25.5995 -25.5112 -25.4722 -24.1272 -24.0732 -24.0342
    14.3355  15.0630  15.8512  16.1472  16.6008  16.9354  18.8422  18.9831
    19.4833  20.1967

          k = 0.1875 0.3125 0.3125 (  2011 PWs)   bands (ev):

   -54.1366 -52.7908 -25.5750 -25.5508 -25.4838 -24.1018 -24.0718 -24.0559
    14.0821  15.2621  16.0684  16.2264  16.2915  16.4613  19.2060  19.3582
    19.4823  20.1480

          k = 0.1875 0.3125 0.4375 (  2010 PWs)   bands (ev):

   -54.1325 -52.7882 -25.6078 -25.5678 -25.4717 -24.1104 -24.0896 -24.0485
    14.5456  14.9335  15.9339  16.0783  16.6220  17.0481  19.1091  19.3261
    19.4534  20.2035

          k = 0.1875 0.4375 0.4375 (  2027 PWs)   bands (ev):

   -54.1290 -52.7848 -25.6161 -25.6127 -25.4636 -24.1028 -24.0946 -24.0616
    14.4674  14.7314  15.8216  15.8583  17.5267  17.5555  19.1716  19.2383
    19.6288  20.2177

          k = 0.3125 0.3125 0.3125 (  2016 PWs)   bands (ev):

   -54.1314 -52.7864 -25.5580 -25.5418 -25.5418 -24.0992 -24.0992 -24.0824
    14.8729  15.6653  15.8516  15.8516  16.2163  16.2163  19.3365  19.3365
    19.8018  19.8018

          k = 0.3125 0.3125 0.4375 (  2019 PWs)   bands (ev):

   -54.1277 -52.7834 -25.5906 -25.5551 -25.5175 -24.1194 -24.1188 -24.0796
    15.0643  15.4892  15.7094  16.0915  16.1410  16.7849  19.2007  19.2595
    19.7145  20.1180

          k = 0.3125 0.4375 0.4375 (  2001 PWs)   bands (ev):

   -54.1244 -52.7800 -25.5812 -25.5777 -25.5143 -24.1329 -24.1275 -24.1067
    15.0869  15.5337  15.6890  15.7837  16.7861  16.8667  19.1455  19.1919
    19.9337  20.1948

          k = 0.4375 0.4375 0.4375 (  1977 PWs)   bands (ev):

   -54.1211 -52.7766 -25.5590 -25.5494 -25.5494 -24.1519 -24.1519 -24.1412
    15.4545  15.6223  15.6223  16.3929  16.4442  16.4442  19.1280  19.1280
    20.2026  20.2026

 ------ SPIN DOWN ----------


          k = 0.0625 0.0625 0.0625 (  2013 PWs)   bands (ev):

   -54.1666 -52.7988 -25.4930 -25.4930 -25.4801 -24.0178 -24.0026 -24.0026
    10.7031  14.3209  14.3209  17.2142  17.2142  17.4403  19.3166  19.3166
    20.1888  20.5907

          k = 0.0625 0.0625 0.1875 (  2003 PWs)   bands (ev):

   -54.1600 -52.7991 -25.5193 -25.4779 -25.4686 -24.0627 -24.0134 -24.0120
    11.3252  14.6252  14.6278  17.0866  17.1460  17.6777  18.9508  19.4797
    19.4853  19.9316

          k = 0.0625 0.0625 0.3125 (  2003 PWs)   bands (ev):

   -54.1507 -52.7996 -25.5531 -25.4560 -25.4556 -24.1266 -24.0291 -24.0245
    12.4444  14.9524  15.1980  17.0436  17.0585  17.8416  18.3299  18.9480
    19.1455  19.7378

          k = 0.0625 0.0625 0.4375 (  2011 PWs)   bands (ev):

   -54.1441 -52.7999 -25.5764 -25.4470 -25.4402 -24.1713 -24.0406 -24.0337
    13.7521  14.7702  15.8929  16.8136  17.1684  17.7114  17.7915  18.6296
    18.9986  19.8207

          k = 0.0625 0.1875 0.1875 (  1999 PWs)   bands (ev):

   -54.1543 -52.7983 -25.5357 -25.4876 -25.4625 -24.0846 -24.0245 -24.0202
    11.8981  14.8186  14.9919  16.8033  16.9769  17.7833  19.0017  19.0761
    19.3941  19.5375

          k = 0.0625 0.1875 0.3125 (  2012 PWs)   bands (ev):

   -54.1463 -52.7973 -25.5697 -25.4958 -25.4495 -24.1187 -24.0402 -24.0275
    12.8915  15.0130  15.5376  16.6186  16.8401  17.3991  18.7392  18.9868
    19.2997  19.6278

          k = 0.0625 0.1875 0.4375 (  2008 PWs)   bands (ev):

   -54.1406 -52.7966 -25.5949 -25.5033 -25.4379 -24.1424 -24.0520 -24.0313
    13.9772  14.7753  16.0549  16.5168  16.8633  17.0467  18.4656  18.8014
    19.6149  20.1332

          k = 0.0625 0.3125 0.3125 (  2007 PWs)   bands (ev):

   -54.1400 -52.7941 -25.5976 -25.5486 -25.4394 -24.1105 -24.0533 -24.0308
    13.5389  14.8117  16.2453  16.3120  16.7904  16.9586  18.8074  19.1717
    19.5160  19.9293

          k = 0.0625 0.3125 0.4375 (  2016 PWs)   bands (ev):

   -54.1356 -52.7918 -25.6220 -25.5816 -25.4317 -24.1058 -24.0645 -24.0304
    14.0687  14.4734  16.1632  16.3540  16.9311  17.4172  18.9387  19.1564
    19.7679  20.5767

          k = 0.0625 0.4375 0.4375 (  2020 PWs)   bands (ev):

   -54.1321 -52.7884 -25.6421 -25.6343 -25.4273 -24.0823 -24.0724 -24.0296
    14.0295  14.2073  15.9321  15.9972  18.0454  18.3987  19.1653  19.4492
    19.4826  20.4682

          k = 0.1875 0.1875 0.1875 (  1992 PWs)   bands (ev):

   -54.1493 -52.7968 -25.5176 -25.5176 -25.4793 -24.0835 -24.0383 -24.0383
    12.4516  15.1803  15.1803  16.6432  16.6432  17.2316  19.2635  19.2716
    19.2716  20.0317

          k = 0.1875 0.1875 0.3125 (  2002 PWs)   bands (ev):

   -54.1422 -52.7947 -25.5654 -25.4980 -25.4913 -24.1046 -24.0585 -24.0408
    13.3823  15.4669  15.5011  16.4039  16.4903  16.7543  19.0534  19.3562
    19.5152  19.9191

          k = 0.1875 0.1875 0.4375 (  2014 PWs)   bands (ev):

   -54.1372 -52.7932 -25.5994 -25.5111 -25.4721 -24.1273 -24.0734 -24.0344
    14.3355  15.0630  15.8512  16.1471  16.6008  16.9354  18.8421  18.9830
    19.4833  20.1966

          k = 0.1875 0.3125 0.3125 (  2011 PWs)   bands (ev):

   -54.1364 -52.7910 -25.5749 -25.5508 -25.4837 -24.1020 -24.0720 -24.0561
    14.0821  15.2621  16.0684  16.2264  16.2915  16.4612  19.2059  19.3581
    19.4822  20.1479

          k = 0.1875 0.3125 0.4375 (  2010 PWs)   bands (ev):

   -54.1323 -52.7884 -25.6078 -25.5677 -25.4716 -24.1106 -24.0898 -24.0487
    14.5456  14.9335  15.9339  16.0783  16.6220  17.0481  19.1091  19.3260
    19.4534  20.2033

          k = 0.1875 0.4375 0.4375 (  2027 PWs)   bands (ev):

   -54.1289 -52.7850 -25.6161 -25.6126 -25.4635 -24.1030 -24.0948 -24.0618
    14.4674  14.7314  15.8216  15.8583  17.5266  17.5555  19.1715  19.2383
    19.6287  20.2176

          k = 0.3125 0.3125 0.3125 (  2016 PWs)   bands (ev):

   -54.1312 -52.7867 -25.5579 -25.5417 -25.5417 -24.0994 -24.0994 -24.0825
    14.8729  15.6653  15.8516  15.8516  16.2163  16.2163  19.3364  19.3364
    19.8017  19.8017

          k = 0.3125 0.3125 0.4375 (  2019 PWs)   bands (ev):

   -54.1276 -52.7836 -25.5905 -25.5550 -25.5174 -24.1196 -24.1190 -24.0798
    15.0643  15.4891  15.7094  16.0915  16.1410  16.7848  19.2007  19.2595
    19.7144  20.1179

          k = 0.3125 0.4375 0.4375 (  2001 PWs)   bands (ev):

   -54.1242 -52.7802 -25.5812 -25.5776 -25.5143 -24.1331 -24.1277 -24.1069
    15.0869  15.5336  15.6890  15.7837  16.7860  16.8667  19.1456  19.1919
    19.9336  20.1947

          k = 0.4375 0.4375 0.4375 (  1977 PWs)   bands (ev):

   -54.1210 -52.7768 -25.5589 -25.5493 -25.5493 -24.1521 -24.1521 -24.1414
    15.4545  15.6223  15.6223  16.3928  16.4441  16.4441  19.1281  19.1281
    20.2024  20.2024

     the Fermi energy is    17.9704 ev

!    total energy              =    -349.98282121 Ry
     Harris-Foulkes estimate   =    -349.98282094 Ry
     estimated scf accuracy    <       0.00000023 Ry

     The total energy is the sum of the following terms:

     one-electron contribution =    -121.58033367 Ry
     hartree contribution      =      75.54034599 Ry
     xc contribution           =     -44.54170427 Ry
     ewald contribution        =    -259.42040003 Ry
     smearing contrib. (-TS)   =       0.01927077 Ry

     total magnetization       =    -0.00 Bohr mag/cell
     absolute magnetization    =     2.70 Bohr mag/cell

     convergence has been achieved in   9 iterations

     Writing output data file degauss-0.05.save/

     init_run     :      0.73s CPU      0.74s WALL (       1 calls)
     electrons    :     11.02s CPU     11.26s WALL (       1 calls)

     Called by init_run:
     wfcinit      :      0.24s CPU      0.25s WALL (       1 calls)
     potinit      :      0.07s CPU      0.07s WALL (       1 calls)
     hinit0       :      0.28s CPU      0.28s WALL (       1 calls)

     Called by electrons:
     c_bands      :      8.08s CPU      8.27s WALL (      10 calls)
     sum_band     :      1.99s CPU      2.02s WALL (      10 calls)
     v_of_rho     :      0.35s CPU      0.36s WALL (      10 calls)
     newd         :      0.62s CPU      0.64s WALL (      10 calls)
     mix_rho      :      0.03s CPU      0.04s WALL (      10 calls)

     Called by c_bands:
     init_us_2    :      0.12s CPU      0.12s WALL (     840 calls)
     cegterg      :      7.66s CPU      7.84s WALL (     400 calls)

     Called by sum_band:
     sum_band:bec :      0.01s CPU      0.01s WALL (     400 calls)
     addusdens    :      1.07s CPU      1.07s WALL (      10 calls)

     Called by *egterg:
     h_psi        :      4.01s CPU      4.12s WALL (    1866 calls)
     s_psi        :      0.43s CPU      0.44s WALL (    1866 calls)
     g_psi        :      0.04s CPU      0.04s WALL (    1426 calls)
     cdiaghg      :      1.22s CPU      1.24s WALL (    1786 calls)

     Called by h_psi:
     h_psi:pot    :      3.99s CPU      4.10s WALL (    1866 calls)
     h_psi:calbec :      0.62s CPU      0.64s WALL (    1866 calls)
     vloc_psi     :      2.94s CPU      3.02s WALL (    1866 calls)
     add_vuspsi   :      0.43s CPU      0.44s WALL (    1866 calls)

     General routines
     calbec       :      0.86s CPU      0.88s WALL (    2266 calls)
     fft          :      0.17s CPU      0.18s WALL (     246 calls)
     ffts         :      0.01s CPU      0.01s WALL (      40 calls)
     fftw         :      2.99s CPU      3.06s WALL (   49430 calls)
     interpolate  :      0.02s CPU      0.02s WALL (      20 calls)

     Parallel routines
     fft_scatt_xy :      0.40s CPU      0.41s WALL (   49716 calls)
     fft_scatt_yz :      1.63s CPU      1.67s WALL (   49716 calls)

     PWSCF        :     13.33s CPU     13.61s WALL


   This run was terminated on:  23:31: 0   9Mar2022            

=------------------------------------------------------------------------------=
   JOB DONE.
=------------------------------------------------------------------------------=
