
     Program PWSCF v.6.4.1 starts on 26May2022 at 18:53: 4 

     This program is part of the open-source Quantum ESPRESSO suite
     for quantum simulation of materials; please cite
         "P. Giannozzi et al., J. Phys.:Condens. Matter 21 395502 (2009);
         "P. Giannozzi et al., J. Phys.:Condens. Matter 29 465901 (2017);
          URL http://www.quantum-espresso.org", 
     in publications or presentations arising from this work. More details at
     http://www.quantum-espresso.org/quote

     Parallel version (MPI), running on     6 processors

     MPI processes distributed on     1 nodes
     R & G space division:  proc/nbgrp/npool/nimage =       6
     Reading input from c-12.in

     Current dimensions of program PWSCF are:
     Max number of different atomic species (ntypx) = 10
     Max number of k-points (npk) =  40000
     Max angular momentum in pseudopotentials (lmaxx) =  3

     Subspace diagonalization in iterative solution of the eigenvalue problem:
     a serial algorithm will be used

     Found symmetry operation: I + ( -0.5000 -0.5000  0.0000)
     This is a supercell, fractional translations are disabled
     Message from routine setup:
     DEPRECATED: symmetry with ibrav=0, use correct ibrav instead

     Parallelization info
     --------------------
     sticks:   dense  smooth     PW     G-vecs:    dense   smooth      PW
     Min         337     192     58                11417     4902     800
     Max         338     193     59                11420     4905     801
     Sum        2025    1153    349                68507    29423    4801



     bravais-lattice index     =            0
     lattice parameter (alat)  =       6.7388  a.u.
     unit-cell volume          =     306.0135 (a.u.)^3
     number of atoms/cell      =            8
     number of atomic types    =            1
     number of electrons       =        32.00
     number of Kohn-Sham states=           20
     kinetic-energy cutoff     =      80.0000  Ry
     charge density cutoff     =     560.0000  Ry
     convergence threshold     =      1.0E-06
     mixing beta               =       0.7000
     number of iterations used =            8  plain     mixing
     Exchange-correlation      = PBE ( 1  4  3  4 0 0)

     celldm(1)=   6.738763  celldm(2)=   0.000000  celldm(3)=   0.000000
     celldm(4)=   0.000000  celldm(5)=   0.000000  celldm(6)=   0.000000

     crystal axes: (cart. coord. in units of alat)
               a(1) = (   1.000000   0.000000   0.000000 )  
               a(2) = (   0.000000   1.000000   0.000000 )  
               a(3) = (   0.000000   0.000000   1.000000 )  

     reciprocal axes: (cart. coord. in units 2 pi/alat)
               b(1) = (  1.000000  0.000000  0.000000 )  
               b(2) = (  0.000000  1.000000  0.000000 )  
               b(3) = (  0.000000  0.000000  1.000000 )  


     PseudoPot. # 1 for C  read from file:
     /home/cristian/Escritorio/Proyecto_Grafeno/pseudopotenciales/C.pbe-n-rrkjus_psl.1.0.0.UPF
     MD5 check sum: 1fdd950c42eb37d8afe3dd2f8d12311e
     Pseudo is Ultrasoft + core correction, Zval =  4.0
     Generated using "atomic" code by A. Dal Corso v.6.3MaX
     Using radial grid of 1073 points,  4 beta functions with: 
                l(1) =   0
                l(2) =   0
                l(3) =   1
                l(4) =   1
     Q(r) pseudized with 0 coefficients 


     atomic species   valence    mass     pseudopotential
        C              4.00    12.01100     C ( 1.00)

     24 Sym. Ops. (no inversion) found


                                    s                        frac. trans.

      isym =  1     identity                                     

 cryst.   s( 1) = (     1          0          0      )
                  (     0          1          0      )
                  (     0          0          1      )

 cart.    s( 1) = (  1.0000000  0.0000000  0.0000000 )
                  (  0.0000000  1.0000000  0.0000000 )
                  (  0.0000000  0.0000000  1.0000000 )


      isym =  2     180 deg rotation - cart. axis [0,0,1]        

 cryst.   s( 2) = (    -1          0          0      )
                  (     0         -1          0      )
                  (     0          0          1      )

 cart.    s( 2) = ( -1.0000000  0.0000000  0.0000000 )
                  (  0.0000000 -1.0000000  0.0000000 )
                  (  0.0000000  0.0000000  1.0000000 )


      isym =  3     180 deg rotation - cart. axis [0,1,0]        

 cryst.   s( 3) = (    -1          0          0      )
                  (     0          1          0      )
                  (     0          0         -1      )

 cart.    s( 3) = ( -1.0000000  0.0000000  0.0000000 )
                  (  0.0000000  1.0000000  0.0000000 )
                  (  0.0000000  0.0000000 -1.0000000 )


      isym =  4     180 deg rotation - cart. axis [1,0,0]        

 cryst.   s( 4) = (     1          0          0      )
                  (     0         -1          0      )
                  (     0          0         -1      )

 cart.    s( 4) = (  1.0000000  0.0000000  0.0000000 )
                  (  0.0000000 -1.0000000  0.0000000 )
                  (  0.0000000  0.0000000 -1.0000000 )


      isym =  5     120 deg rotation - cart. axis [-1,-1,-1]     

 cryst.   s( 5) = (     0          0          1      )
                  (     1          0          0      )
                  (     0          1          0      )

 cart.    s( 5) = (  0.0000000  1.0000000  0.0000000 )
                  (  0.0000000  0.0000000  1.0000000 )
                  (  1.0000000  0.0000000  0.0000000 )


      isym =  6     120 deg rotation - cart. axis [-1,1,1]       

 cryst.   s( 6) = (     0          0         -1      )
                  (    -1          0          0      )
                  (     0          1          0      )

 cart.    s( 6) = (  0.0000000 -1.0000000  0.0000000 )
                  (  0.0000000  0.0000000  1.0000000 )
                  ( -1.0000000  0.0000000  0.0000000 )


      isym =  7     120 deg rotation - cart. axis [1,1,-1]       

 cryst.   s( 7) = (     0          0         -1      )
                  (     1          0          0      )
                  (     0         -1          0      )

 cart.    s( 7) = (  0.0000000  1.0000000  0.0000000 )
                  (  0.0000000  0.0000000 -1.0000000 )
                  ( -1.0000000  0.0000000  0.0000000 )


      isym =  8     120 deg rotation - cart. axis [1,-1,1]       

 cryst.   s( 8) = (     0          0          1      )
                  (    -1          0          0      )
                  (     0         -1          0      )

 cart.    s( 8) = (  0.0000000 -1.0000000  0.0000000 )
                  (  0.0000000  0.0000000 -1.0000000 )
                  (  1.0000000  0.0000000  0.0000000 )


      isym =  9     120 deg rotation - cart. axis [1,1,1]        

 cryst.   s( 9) = (     0          1          0      )
                  (     0          0          1      )
                  (     1          0          0      )

 cart.    s( 9) = (  0.0000000  0.0000000  1.0000000 )
                  (  1.0000000  0.0000000  0.0000000 )
                  (  0.0000000  1.0000000  0.0000000 )


      isym = 10     120 deg rotation - cart. axis [-1,1,-1]      

 cryst.   s(10) = (     0         -1          0      )
                  (     0          0         -1      )
                  (     1          0          0      )

 cart.    s(10) = (  0.0000000  0.0000000  1.0000000 )
                  ( -1.0000000  0.0000000  0.0000000 )
                  (  0.0000000 -1.0000000  0.0000000 )


      isym = 11     120 deg rotation - cart. axis [1,-1,-1]      

 cryst.   s(11) = (     0         -1          0      )
                  (     0          0          1      )
                  (    -1          0          0      )

 cart.    s(11) = (  0.0000000  0.0000000 -1.0000000 )
                  ( -1.0000000  0.0000000  0.0000000 )
                  (  0.0000000  1.0000000  0.0000000 )


      isym = 12     120 deg rotation - cart. axis [-1,-1,1]      

 cryst.   s(12) = (     0          1          0      )
                  (     0          0         -1      )
                  (    -1          0          0      )

 cart.    s(12) = (  0.0000000  0.0000000 -1.0000000 )
                  (  1.0000000  0.0000000  0.0000000 )
                  (  0.0000000 -1.0000000  0.0000000 )


      isym = 13     inv. 180 deg rotation - cart. axis [1,1,0]   

 cryst.   s(13) = (     0         -1          0      )
                  (    -1          0          0      )
                  (     0          0          1      )

 cart.    s(13) = (  0.0000000 -1.0000000  0.0000000 )
                  ( -1.0000000  0.0000000  0.0000000 )
                  (  0.0000000  0.0000000  1.0000000 )


      isym = 14     inv. 180 deg rotation - cart. axis [1,-1,0]  

 cryst.   s(14) = (     0          1          0      )
                  (     1          0          0      )
                  (     0          0          1      )

 cart.    s(14) = (  0.0000000  1.0000000  0.0000000 )
                  (  1.0000000  0.0000000  0.0000000 )
                  (  0.0000000  0.0000000  1.0000000 )


      isym = 15     inv.  90 deg rotation - cart. axis [0,0,-1]  

 cryst.   s(15) = (     0          1          0      )
                  (    -1          0          0      )
                  (     0          0         -1      )

 cart.    s(15) = (  0.0000000 -1.0000000  0.0000000 )
                  (  1.0000000  0.0000000  0.0000000 )
                  (  0.0000000  0.0000000 -1.0000000 )


      isym = 16     inv.  90 deg rotation - cart. axis [0,0,1]   

 cryst.   s(16) = (     0         -1          0      )
                  (     1          0          0      )
                  (     0          0         -1      )

 cart.    s(16) = (  0.0000000  1.0000000  0.0000000 )
                  ( -1.0000000  0.0000000  0.0000000 )
                  (  0.0000000  0.0000000 -1.0000000 )


      isym = 17     inv. 180 deg rotation - cart. axis [1,0,1]   

 cryst.   s(17) = (     0          0         -1      )
                  (     0          1          0      )
                  (    -1          0          0      )

 cart.    s(17) = (  0.0000000  0.0000000 -1.0000000 )
                  (  0.0000000  1.0000000  0.0000000 )
                  ( -1.0000000  0.0000000  0.0000000 )


      isym = 18     inv. 180 deg rotation - cart. axis [-1,0,1]  

 cryst.   s(18) = (     0          0          1      )
                  (     0          1          0      )
                  (     1          0          0      )

 cart.    s(18) = (  0.0000000  0.0000000  1.0000000 )
                  (  0.0000000  1.0000000  0.0000000 )
                  (  1.0000000  0.0000000  0.0000000 )


      isym = 19     inv.  90 deg rotation - cart. axis [0,1,0]   

 cryst.   s(19) = (     0          0          1      )
                  (     0         -1          0      )
                  (    -1          0          0      )

 cart.    s(19) = (  0.0000000  0.0000000 -1.0000000 )
                  (  0.0000000 -1.0000000  0.0000000 )
                  (  1.0000000  0.0000000  0.0000000 )


      isym = 20     inv.  90 deg rotation - cart. axis [0,-1,0]  

 cryst.   s(20) = (     0          0         -1      )
                  (     0         -1          0      )
                  (     1          0          0      )

 cart.    s(20) = (  0.0000000  0.0000000  1.0000000 )
                  (  0.0000000 -1.0000000  0.0000000 )
                  ( -1.0000000  0.0000000  0.0000000 )


      isym = 21     inv. 180 deg rotation - cart. axis [0,1,1]   

 cryst.   s(21) = (     1          0          0      )
                  (     0          0         -1      )
                  (     0         -1          0      )

 cart.    s(21) = (  1.0000000  0.0000000  0.0000000 )
                  (  0.0000000  0.0000000 -1.0000000 )
                  (  0.0000000 -1.0000000  0.0000000 )


      isym = 22     inv. 180 deg rotation - cart. axis [0,1,-1]  

 cryst.   s(22) = (     1          0          0      )
                  (     0          0          1      )
                  (     0          1          0      )

 cart.    s(22) = (  1.0000000  0.0000000  0.0000000 )
                  (  0.0000000  0.0000000  1.0000000 )
                  (  0.0000000  1.0000000  0.0000000 )


      isym = 23     inv.  90 deg rotation - cart. axis [-1,0,0]  

 cryst.   s(23) = (    -1          0          0      )
                  (     0          0          1      )
                  (     0         -1          0      )

 cart.    s(23) = ( -1.0000000  0.0000000  0.0000000 )
                  (  0.0000000  0.0000000 -1.0000000 )
                  (  0.0000000  1.0000000  0.0000000 )


      isym = 24     inv.  90 deg rotation - cart. axis [1,0,0]   

 cryst.   s(24) = (    -1          0          0      )
                  (     0          0         -1      )
                  (     0          1          0      )

 cart.    s(24) = ( -1.0000000  0.0000000  0.0000000 )
                  (  0.0000000  0.0000000  1.0000000 )
                  (  0.0000000 -1.0000000  0.0000000 )


   Cartesian axes

     site n.     atom                  positions (alat units)
         1           C   tau(   1) = (   0.0000000   0.0000000   0.0000000  )
         2           C   tau(   2) = (   0.5000000   0.5000000   0.0000000  )
         3           C   tau(   3) = (   0.0000000   0.5000000   0.5000000  )
         4           C   tau(   4) = (   0.5000000   0.0000000   0.5000000  )
         5           C   tau(   5) = (   0.2500000   0.2500000   0.2500000  )
         6           C   tau(   6) = (   0.7500000   0.7500000   0.2500000  )
         7           C   tau(   7) = (   0.2500000   0.7500000   0.7500000  )
         8           C   tau(   8) = (   0.7500000   0.2500000   0.7500000  )

   Crystallographic axes

     site n.     atom                  positions (cryst. coord.)
         1           C   tau(   1) = (  0.0000000  0.0000000  0.0000000  )
         2           C   tau(   2) = (  0.5000000  0.5000000  0.0000000  )
         3           C   tau(   3) = (  0.0000000  0.5000000  0.5000000  )
         4           C   tau(   4) = (  0.5000000  0.0000000  0.5000000  )
         5           C   tau(   5) = (  0.2500000  0.2500000  0.2500000  )
         6           C   tau(   6) = (  0.7500000  0.7500000  0.2500000  )
         7           C   tau(   7) = (  0.2500000  0.7500000  0.7500000  )
         8           C   tau(   8) = (  0.7500000  0.2500000  0.7500000  )

     number of k points=    84  Marzari-Vanderbilt smearing, width (Ry)=  0.0200
                       cart. coord. in units 2pi/alat
        k(    1) = (   0.0000000   0.0000000   0.0000000), wk =   0.0011574
        k(    2) = (   0.0000000   0.0000000   0.0833333), wk =   0.0069444
        k(    3) = (   0.0000000   0.0000000   0.1666667), wk =   0.0069444
        k(    4) = (   0.0000000   0.0000000   0.2500000), wk =   0.0069444
        k(    5) = (   0.0000000   0.0000000   0.3333333), wk =   0.0069444
        k(    6) = (   0.0000000   0.0000000   0.4166667), wk =   0.0069444
        k(    7) = (   0.0000000   0.0000000  -0.5000000), wk =   0.0034722
        k(    8) = (   0.0000000   0.0833333   0.0833333), wk =   0.0138889
        k(    9) = (   0.0000000   0.0833333   0.1666667), wk =   0.0277778
        k(   10) = (   0.0000000   0.0833333   0.2500000), wk =   0.0277778
        k(   11) = (   0.0000000   0.0833333   0.3333333), wk =   0.0277778
        k(   12) = (   0.0000000   0.0833333   0.4166667), wk =   0.0277778
        k(   13) = (   0.0000000   0.0833333  -0.5000000), wk =   0.0138889
        k(   14) = (   0.0000000   0.1666667   0.1666667), wk =   0.0138889
        k(   15) = (   0.0000000   0.1666667   0.2500000), wk =   0.0277778
        k(   16) = (   0.0000000   0.1666667   0.3333333), wk =   0.0277778
        k(   17) = (   0.0000000   0.1666667   0.4166667), wk =   0.0277778
        k(   18) = (   0.0000000   0.1666667  -0.5000000), wk =   0.0138889
        k(   19) = (   0.0000000   0.2500000   0.2500000), wk =   0.0138889
        k(   20) = (   0.0000000   0.2500000   0.3333333), wk =   0.0277778
        k(   21) = (   0.0000000   0.2500000   0.4166667), wk =   0.0277778
        k(   22) = (   0.0000000   0.2500000  -0.5000000), wk =   0.0138889
        k(   23) = (   0.0000000   0.3333333   0.3333333), wk =   0.0138889
        k(   24) = (   0.0000000   0.3333333   0.4166667), wk =   0.0277778
        k(   25) = (   0.0000000   0.3333333  -0.5000000), wk =   0.0138889
        k(   26) = (   0.0000000   0.4166667   0.4166667), wk =   0.0138889
        k(   27) = (   0.0000000   0.4166667  -0.5000000), wk =   0.0138889
        k(   28) = (   0.0000000  -0.5000000  -0.5000000), wk =   0.0034722
        k(   29) = (   0.0833333   0.0833333   0.0833333), wk =   0.0092593
        k(   30) = (   0.0833333   0.0833333   0.1666667), wk =   0.0277778
        k(   31) = (   0.0833333   0.0833333   0.2500000), wk =   0.0277778
        k(   32) = (   0.0833333   0.0833333   0.3333333), wk =   0.0277778
        k(   33) = (   0.0833333   0.0833333   0.4166667), wk =   0.0277778
        k(   34) = (   0.0833333   0.0833333  -0.5000000), wk =   0.0138889
        k(   35) = (   0.0833333   0.1666667   0.1666667), wk =   0.0277778
        k(   36) = (   0.0833333   0.1666667   0.2500000), wk =   0.0555556
        k(   37) = (   0.0833333   0.1666667   0.3333333), wk =   0.0555556
        k(   38) = (   0.0833333   0.1666667   0.4166667), wk =   0.0555556
        k(   39) = (   0.0833333   0.1666667  -0.5000000), wk =   0.0277778
        k(   40) = (   0.0833333   0.2500000   0.2500000), wk =   0.0277778
        k(   41) = (   0.0833333   0.2500000   0.3333333), wk =   0.0555556
        k(   42) = (   0.0833333   0.2500000   0.4166667), wk =   0.0555556
        k(   43) = (   0.0833333   0.2500000  -0.5000000), wk =   0.0277778
        k(   44) = (   0.0833333   0.3333333   0.3333333), wk =   0.0277778
        k(   45) = (   0.0833333   0.3333333   0.4166667), wk =   0.0555556
        k(   46) = (   0.0833333   0.3333333  -0.5000000), wk =   0.0277778
        k(   47) = (   0.0833333   0.4166667   0.4166667), wk =   0.0277778
        k(   48) = (   0.0833333   0.4166667  -0.5000000), wk =   0.0277778
        k(   49) = (   0.0833333  -0.5000000  -0.5000000), wk =   0.0069444
        k(   50) = (   0.1666667   0.1666667   0.1666667), wk =   0.0092593
        k(   51) = (   0.1666667   0.1666667   0.2500000), wk =   0.0277778
        k(   52) = (   0.1666667   0.1666667   0.3333333), wk =   0.0277778
        k(   53) = (   0.1666667   0.1666667   0.4166667), wk =   0.0277778
        k(   54) = (   0.1666667   0.1666667  -0.5000000), wk =   0.0138889
        k(   55) = (   0.1666667   0.2500000   0.2500000), wk =   0.0277778
        k(   56) = (   0.1666667   0.2500000   0.3333333), wk =   0.0555556
        k(   57) = (   0.1666667   0.2500000   0.4166667), wk =   0.0555556
        k(   58) = (   0.1666667   0.2500000  -0.5000000), wk =   0.0277778
        k(   59) = (   0.1666667   0.3333333   0.3333333), wk =   0.0277778
        k(   60) = (   0.1666667   0.3333333   0.4166667), wk =   0.0555556
        k(   61) = (   0.1666667   0.3333333  -0.5000000), wk =   0.0277778
        k(   62) = (   0.1666667   0.4166667   0.4166667), wk =   0.0277778
        k(   63) = (   0.1666667   0.4166667  -0.5000000), wk =   0.0277778
        k(   64) = (   0.1666667  -0.5000000  -0.5000000), wk =   0.0069444
        k(   65) = (   0.2500000   0.2500000   0.2500000), wk =   0.0092593
        k(   66) = (   0.2500000   0.2500000   0.3333333), wk =   0.0277778
        k(   67) = (   0.2500000   0.2500000   0.4166667), wk =   0.0277778
        k(   68) = (   0.2500000   0.2500000  -0.5000000), wk =   0.0138889
        k(   69) = (   0.2500000   0.3333333   0.3333333), wk =   0.0277778
        k(   70) = (   0.2500000   0.3333333   0.4166667), wk =   0.0555556
        k(   71) = (   0.2500000   0.3333333  -0.5000000), wk =   0.0277778
        k(   72) = (   0.2500000   0.4166667   0.4166667), wk =   0.0277778
        k(   73) = (   0.2500000   0.4166667  -0.5000000), wk =   0.0277778
        k(   74) = (   0.2500000  -0.5000000  -0.5000000), wk =   0.0069444
        k(   75) = (   0.3333333   0.3333333   0.3333333), wk =   0.0092593
        k(   76) = (   0.3333333   0.3333333   0.4166667), wk =   0.0277778
        k(   77) = (   0.3333333   0.3333333  -0.5000000), wk =   0.0138889
        k(   78) = (   0.3333333   0.4166667   0.4166667), wk =   0.0277778
        k(   79) = (   0.3333333   0.4166667  -0.5000000), wk =   0.0277778
        k(   80) = (   0.3333333  -0.5000000  -0.5000000), wk =   0.0069444
        k(   81) = (   0.4166667   0.4166667   0.4166667), wk =   0.0092593
        k(   82) = (   0.4166667   0.4166667  -0.5000000), wk =   0.0138889
        k(   83) = (   0.4166667  -0.5000000  -0.5000000), wk =   0.0069444
        k(   84) = (  -0.5000000  -0.5000000  -0.5000000), wk =   0.0011574

                       cryst. coord.
        k(    1) = (   0.0000000   0.0000000   0.0000000), wk =   0.0011574
        k(    2) = (   0.0000000   0.0000000   0.0833333), wk =   0.0069444
        k(    3) = (   0.0000000   0.0000000   0.1666667), wk =   0.0069444
        k(    4) = (   0.0000000   0.0000000   0.2500000), wk =   0.0069444
        k(    5) = (   0.0000000   0.0000000   0.3333333), wk =   0.0069444
        k(    6) = (   0.0000000   0.0000000   0.4166667), wk =   0.0069444
        k(    7) = (   0.0000000   0.0000000  -0.5000000), wk =   0.0034722
        k(    8) = (   0.0000000   0.0833333   0.0833333), wk =   0.0138889
        k(    9) = (   0.0000000   0.0833333   0.1666667), wk =   0.0277778
        k(   10) = (   0.0000000   0.0833333   0.2500000), wk =   0.0277778
        k(   11) = (   0.0000000   0.0833333   0.3333333), wk =   0.0277778
        k(   12) = (   0.0000000   0.0833333   0.4166667), wk =   0.0277778
        k(   13) = (   0.0000000   0.0833333  -0.5000000), wk =   0.0138889
        k(   14) = (   0.0000000   0.1666667   0.1666667), wk =   0.0138889
        k(   15) = (   0.0000000   0.1666667   0.2500000), wk =   0.0277778
        k(   16) = (   0.0000000   0.1666667   0.3333333), wk =   0.0277778
        k(   17) = (   0.0000000   0.1666667   0.4166667), wk =   0.0277778
        k(   18) = (   0.0000000   0.1666667  -0.5000000), wk =   0.0138889
        k(   19) = (   0.0000000   0.2500000   0.2500000), wk =   0.0138889
        k(   20) = (   0.0000000   0.2500000   0.3333333), wk =   0.0277778
        k(   21) = (   0.0000000   0.2500000   0.4166667), wk =   0.0277778
        k(   22) = (   0.0000000   0.2500000  -0.5000000), wk =   0.0138889
        k(   23) = (   0.0000000   0.3333333   0.3333333), wk =   0.0138889
        k(   24) = (   0.0000000   0.3333333   0.4166667), wk =   0.0277778
        k(   25) = (   0.0000000   0.3333333  -0.5000000), wk =   0.0138889
        k(   26) = (   0.0000000   0.4166667   0.4166667), wk =   0.0138889
        k(   27) = (   0.0000000   0.4166667  -0.5000000), wk =   0.0138889
        k(   28) = (   0.0000000  -0.5000000  -0.5000000), wk =   0.0034722
        k(   29) = (   0.0833333   0.0833333   0.0833333), wk =   0.0092593
        k(   30) = (   0.0833333   0.0833333   0.1666667), wk =   0.0277778
        k(   31) = (   0.0833333   0.0833333   0.2500000), wk =   0.0277778
        k(   32) = (   0.0833333   0.0833333   0.3333333), wk =   0.0277778
        k(   33) = (   0.0833333   0.0833333   0.4166667), wk =   0.0277778
        k(   34) = (   0.0833333   0.0833333  -0.5000000), wk =   0.0138889
        k(   35) = (   0.0833333   0.1666667   0.1666667), wk =   0.0277778
        k(   36) = (   0.0833333   0.1666667   0.2500000), wk =   0.0555556
        k(   37) = (   0.0833333   0.1666667   0.3333333), wk =   0.0555556
        k(   38) = (   0.0833333   0.1666667   0.4166667), wk =   0.0555556
        k(   39) = (   0.0833333   0.1666667  -0.5000000), wk =   0.0277778
        k(   40) = (   0.0833333   0.2500000   0.2500000), wk =   0.0277778
        k(   41) = (   0.0833333   0.2500000   0.3333333), wk =   0.0555556
        k(   42) = (   0.0833333   0.2500000   0.4166667), wk =   0.0555556
        k(   43) = (   0.0833333   0.2500000  -0.5000000), wk =   0.0277778
        k(   44) = (   0.0833333   0.3333333   0.3333333), wk =   0.0277778
        k(   45) = (   0.0833333   0.3333333   0.4166667), wk =   0.0555556
        k(   46) = (   0.0833333   0.3333333  -0.5000000), wk =   0.0277778
        k(   47) = (   0.0833333   0.4166667   0.4166667), wk =   0.0277778
        k(   48) = (   0.0833333   0.4166667  -0.5000000), wk =   0.0277778
        k(   49) = (   0.0833333  -0.5000000  -0.5000000), wk =   0.0069444
        k(   50) = (   0.1666667   0.1666667   0.1666667), wk =   0.0092593
        k(   51) = (   0.1666667   0.1666667   0.2500000), wk =   0.0277778
        k(   52) = (   0.1666667   0.1666667   0.3333333), wk =   0.0277778
        k(   53) = (   0.1666667   0.1666667   0.4166667), wk =   0.0277778
        k(   54) = (   0.1666667   0.1666667  -0.5000000), wk =   0.0138889
        k(   55) = (   0.1666667   0.2500000   0.2500000), wk =   0.0277778
        k(   56) = (   0.1666667   0.2500000   0.3333333), wk =   0.0555556
        k(   57) = (   0.1666667   0.2500000   0.4166667), wk =   0.0555556
        k(   58) = (   0.1666667   0.2500000  -0.5000000), wk =   0.0277778
        k(   59) = (   0.1666667   0.3333333   0.3333333), wk =   0.0277778
        k(   60) = (   0.1666667   0.3333333   0.4166667), wk =   0.0555556
        k(   61) = (   0.1666667   0.3333333  -0.5000000), wk =   0.0277778
        k(   62) = (   0.1666667   0.4166667   0.4166667), wk =   0.0277778
        k(   63) = (   0.1666667   0.4166667  -0.5000000), wk =   0.0277778
        k(   64) = (   0.1666667  -0.5000000  -0.5000000), wk =   0.0069444
        k(   65) = (   0.2500000   0.2500000   0.2500000), wk =   0.0092593
        k(   66) = (   0.2500000   0.2500000   0.3333333), wk =   0.0277778
        k(   67) = (   0.2500000   0.2500000   0.4166667), wk =   0.0277778
        k(   68) = (   0.2500000   0.2500000  -0.5000000), wk =   0.0138889
        k(   69) = (   0.2500000   0.3333333   0.3333333), wk =   0.0277778
        k(   70) = (   0.2500000   0.3333333   0.4166667), wk =   0.0555556
        k(   71) = (   0.2500000   0.3333333  -0.5000000), wk =   0.0277778
        k(   72) = (   0.2500000   0.4166667   0.4166667), wk =   0.0277778
        k(   73) = (   0.2500000   0.4166667  -0.5000000), wk =   0.0277778
        k(   74) = (   0.2500000  -0.5000000  -0.5000000), wk =   0.0069444
        k(   75) = (   0.3333333   0.3333333   0.3333333), wk =   0.0092593
        k(   76) = (   0.3333333   0.3333333   0.4166667), wk =   0.0277778
        k(   77) = (   0.3333333   0.3333333  -0.5000000), wk =   0.0138889
        k(   78) = (   0.3333333   0.4166667   0.4166667), wk =   0.0277778
        k(   79) = (   0.3333333   0.4166667  -0.5000000), wk =   0.0277778
        k(   80) = (   0.3333333  -0.5000000  -0.5000000), wk =   0.0069444
        k(   81) = (   0.4166667   0.4166667   0.4166667), wk =   0.0092593
        k(   82) = (   0.4166667   0.4166667  -0.5000000), wk =   0.0138889
        k(   83) = (   0.4166667  -0.5000000  -0.5000000), wk =   0.0069444
        k(   84) = (  -0.5000000  -0.5000000  -0.5000000), wk =   0.0011574

     Dense  grid:    68507 G-vectors     FFT dimensions: (  54,  54,  54)

     Smooth grid:    29423 G-vectors     FFT dimensions: (  40,  40,  40)

     Dynamical RAM for                 wfc:       0.19 MB

     Dynamical RAM for     wfc (w. buffer):      15.98 MB

     Dynamical RAM for           str. fact:       0.17 MB

     Dynamical RAM for           local pot:       0.00 MB

     Dynamical RAM for          nlocal pot:       0.60 MB

     Dynamical RAM for                qrad:       0.58 MB

     Dynamical RAM for          rho,v,vnew:       1.12 MB

     Dynamical RAM for               rhoin:       0.37 MB

     Dynamical RAM for            rho*nmix:       2.79 MB

     Dynamical RAM for           G-vectors:       0.69 MB

     Dynamical RAM for          h,s,v(r/c):       0.29 MB

     Dynamical RAM for          <psi|beta>:       0.02 MB

     Dynamical RAM for                 psi:       0.75 MB

     Dynamical RAM for                hpsi:       0.75 MB

     Dynamical RAM for                spsi:       0.75 MB

     Dynamical RAM for      wfcinit/wfcrot:       0.63 MB

     Dynamical RAM for           addusdens:       8.89 MB

     Estimated static dynamical RAM per process >      23.66 MB

     Estimated max dynamical RAM per process >      32.55 MB

     Estimated total dynamical RAM >     195.30 MB

     Check: negative core charge=   -0.000003

     Initial potential from superposition of free atoms

     starting charge   31.99967, renormalised to   32.00000
     Starting wfcs are   32 randomized atomic wfcs

     total cpu time spent up to now is        2.7 secs

     Self-consistent Calculation

     iteration #  1     ecut=    80.00 Ry     beta= 0.70
     Davidson diagonalization with overlap
     ethr =  1.00E-02,  avg # of iterations =  2.7

     total cpu time spent up to now is        7.7 secs

     total energy              =     -99.31590208 Ry
     Harris-Foulkes estimate   =     -99.52683465 Ry
     estimated scf accuracy    <       0.47319598 Ry

     iteration #  2     ecut=    80.00 Ry     beta= 0.70
     Davidson diagonalization with overlap
     ethr =  1.48E-03,  avg # of iterations =  1.3

     total cpu time spent up to now is       11.1 secs

     total energy              =     -99.35011527 Ry
     Harris-Foulkes estimate   =     -99.35073107 Ry
     estimated scf accuracy    <       0.00960503 Ry

     iteration #  3     ecut=    80.00 Ry     beta= 0.70
     Davidson diagonalization with overlap
     ethr =  3.00E-05,  avg # of iterations =  6.7

     total cpu time spent up to now is       16.8 secs

     total energy              =     -99.35162251 Ry
     Harris-Foulkes estimate   =     -99.35156311 Ry
     estimated scf accuracy    <       0.00026558 Ry

     iteration #  4     ecut=    80.00 Ry     beta= 0.70
     Davidson diagonalization with overlap
     ethr =  8.30E-07,  avg # of iterations =  3.6

     total cpu time spent up to now is       21.3 secs

     total energy              =     -99.35165548 Ry
     Harris-Foulkes estimate   =     -99.35165640 Ry
     estimated scf accuracy    <       0.00000423 Ry

     iteration #  5     ecut=    80.00 Ry     beta= 0.70
     Davidson diagonalization with overlap
     ethr =  1.32E-08,  avg # of iterations =  2.4

     total cpu time spent up to now is       25.9 secs

     End of self-consistent calculation

          k = 0.0000 0.0000 0.0000 (  3743 PWs)   bands (ev):

    -8.1254   0.5841   0.5841   0.5841   0.5841   0.5841   0.5841   7.0362
     7.0362   7.0362   7.0362   7.0362   7.0362  13.3426  13.3426  13.3426
    18.1425  18.1425  18.1425  18.1426

     occupation numbers 
     1.0000   1.0000   1.0000   1.0000   1.0000   1.0000   1.0000   1.0000
     1.0000   1.0000   1.0000   1.0000   1.0000   1.0000   1.0000   1.0000
     0.0000   0.0000   0.0000   0.0000

          k = 0.0000 0.0000 0.0833 (  3743 PWs)   bands (ev):

    -8.0613  -0.7168   0.6251   0.6251   0.6251   0.6251   1.9455   6.8952
     6.8952   6.8952   6.8952   7.0989   7.0989  13.0802  13.0802  13.1848
    17.8027  18.4054  18.4054  18.4054

     occupation numbers 
     1.0000   1.0000   1.0000   1.0000   1.0000   1.0000   1.0000   1.0000
     1.0000   1.0000   1.0000   1.0000   1.0000   1.0000   1.0000   1.0000
     0.0000   0.0000   0.0000   0.0000

          k = 0.0000 0.0000 0.1667 (  3735 PWs)   bands (ev):

    -7.8692  -1.9405   0.7433   0.7433   0.7433   0.7433   3.3469   6.5203
     6.5203   6.5203   6.5203   7.2863   7.2863  12.4319  12.4319  12.7294
    17.5973  18.7580  19.1457  19.1457

     occupation numbers 
     1.0000   1.0000   1.0000   1.0000   1.0000   1.0000   1.0000   1.0000
     1.0000   1.0000   1.0000   1.0000   1.0000   1.0000   1.0000   1.0000
     0.0000   0.0000   0.0000   0.0000

          k = 0.0000 0.0000 0.2500 (  3691 PWs)   bands (ev):

    -7.5498  -3.0740   0.9224   0.9224   0.9224   0.9224   4.7640   6.0229
     6.0229   6.0229   6.0229   7.5964   7.5964  11.6166  11.6166  12.0199
    17.5114  18.5457  20.1160  20.2520

     occupation numbers 
     1.0000   1.0000   1.0000   1.0000   1.0000   1.0000   1.0000   1.0000
     1.0000   1.0000   1.0000   1.0000   1.0000   1.0000   1.0000   1.0000
     0.0000   0.0000   0.0000   0.0000

          k = 0.0000 0.0000 0.3333 (  3683 PWs)   bands (ev):

    -7.1043  -4.1070   1.1289   1.1289   1.1290   1.1290   5.5277   5.5277
     5.5277   5.5277   6.1697   8.0258   8.0258  10.7690  10.7690  11.1064
    17.5299  18.2967  21.1295  21.5984

     occupation numbers 
     1.0000   1.0000   1.0000   1.0000   1.0000   1.0000   1.0000   1.0000
     1.0000   1.0000   1.0000   1.0000   1.0000   1.0000   1.0000   1.0000
     0.0000   0.0000   0.0000   0.0000

          k = 0.0000 0.0000 0.4167 (  3708 PWs)   bands (ev):

    -6.5343  -5.0318   1.3051   1.3051   1.3051   1.3051   5.1556   5.1556
     5.1556   5.1556   7.5352   8.5687   8.5687   9.9571   9.9571  10.0322
    17.6372  18.0435  22.3167  23.0351

     occupation numbers 
     1.0000   1.0000   1.0000   1.0000   1.0000   1.0000   1.0000   1.0000
     1.0000   1.0000   1.0000   1.0000   1.0000   1.0000   1.0000   1.0000
     0.0000   0.0000   0.0000   0.0000

          k = 0.0000 0.0000-0.5000 (  3668 PWs)   bands (ev):

    -5.8424  -5.8424   1.3767   1.3767   1.3768   1.3768   5.0150   5.0150
     5.0150   5.0150   8.8320   8.8320   9.2168   9.2168   9.2168   9.2168
    17.8153  17.8153  23.6333  23.6333

     occupation numbers 
     1.0000   1.0000   1.0000   1.0000   1.0000   1.0000   1.0000   1.0000
     1.0000   1.0000   1.0000   1.0000   1.0000   1.0000   1.0000   1.0000
     0.0000   0.0000   0.0000   0.0000

          k = 0.0000 0.0833 0.0833 (  3751 PWs)   bands (ev):

    -7.9972  -0.6678  -0.6678   0.6291   0.6991   1.9732   1.9732   6.4105
     6.9451   6.9451   6.9760   6.9761   7.1435  12.6357  12.8273  13.2632
    18.0719  18.0719  18.2466  18.8869

     occupation numbers 
     1.0000   1.0000   1.0000   1.0000   1.0000   1.0000   1.0000   1.0000
     1.0000   1.0000   1.0000   1.0000   1.0000   1.0000   1.0000   1.0000
     0.0000   0.0000   0.0000   0.0000

          k = 0.0000 0.0833 0.1667 (  3730 PWs)   bands (ev):

    -7.8053  -1.8865  -0.5235   0.6960   0.8545   2.0477   3.3516   5.8000
     6.5342   6.6547   7.1100   7.1228   7.1913  11.9024  12.1966  12.9942
    17.8711  18.6098  18.8276  19.0143

     occupation numbers 
     1.0000   1.0000   1.0000   1.0000   1.0000   1.0000   1.0000   1.0000
     1.0000   1.0000   1.0000   1.0000   1.0000   1.0000   1.0000   1.0000
     0.0000   0.0000   0.0000   0.0000

          k = 0.0000 0.0833 0.2500 (  3710 PWs)   bands (ev):

    -7.4861  -3.0167  -0.2932   0.7929   1.0852   2.1403   4.7267   5.1906
     5.9786   6.2497   6.8449   7.4250   7.5479  11.0509  11.3966  12.4030
    17.7884  18.8133  19.4372  19.9535

     occupation numbers 
     1.0000   1.0000   1.0000   1.0000   1.0000   1.0000   1.0000   1.0000
     1.0000   1.0000   1.0000   1.0000   1.0000   1.0000   1.0000   1.0000
     0.0000   0.0000   0.0000   0.0000

          k = 0.0000 0.0833 0.3333 (  3701 PWs)   bands (ev):

    -7.0410  -4.0475   0.0039   0.8607   1.3740   2.1976   4.7086   5.3943
     5.8984   6.0522   6.4586   7.8473   8.0605  10.1604  10.5606  11.5841
    17.8088  18.5698  20.6075  21.3274

     occupation numbers 
     1.0000   1.0000   1.0000   1.0000   1.0000   1.0000   1.0000   1.0000
     1.0000   1.0000   1.0000   1.0000   1.0000   1.0000   1.0000   1.0000
     0.0000   0.0000   0.0000   0.0000

          k = 0.0000 0.0833 0.4167 (  3693 PWs)   bands (ev):

    -6.4715  -4.9708   0.3320   0.8206   1.6872   2.1518   4.4729   4.8834
     5.7263   6.0714   7.2654   8.3836   8.7560   9.2590   9.7577  10.6285
    17.9167  18.3201  21.9735  22.5182

     occupation numbers 
     1.0000   1.0000   1.0000   1.0000   1.0000   1.0000   1.0000   1.0000
     1.0000   1.0000   1.0000   1.0000   1.0000   1.0000   1.0000   1.0000
     0.0000   0.0000   0.0000   0.0000

          k = 0.0000 0.0833-0.5000 (  3682 PWs)   bands (ev):

    -5.7803  -5.7803   0.6305   0.6305   1.9695   1.9695   4.5446   4.5446
     5.7958   5.7958   8.3201   8.3201   9.0249   9.0249   9.6411   9.6411
    18.0940  18.0940  23.2673  23.2673

     occupation numbers 
     1.0000   1.0000   1.0000   1.0000   1.0000   1.0000   1.0000   1.0000
     1.0000   1.0000   1.0000   1.0000   1.0000   1.0000   1.0000   1.0000
     0.0000   0.0000   0.0000   0.0000

          k = 0.0000 0.1667 0.1667 (  3703 PWs)   bands (ev):

    -7.6138  -1.7260  -1.7260   0.6808   1.0433   3.3506   3.3506   5.0765
     6.6859   6.6859   6.9548   6.9548   7.4605  11.1022  11.6003  13.0161
    18.5557  18.6371  18.6371  19.4713

     occupation numbers 
     1.0000   1.0000   1.0000   1.0000   1.0000   1.0000   1.0000   1.0000
     1.0000   1.0000   1.0000   1.0000   1.0000   1.0000   1.0000   1.0000
     0.0000   0.0000   0.0000   0.0000

          k = 0.0000 0.1667 0.2500 (  3693 PWs)   bands (ev):

    -7.2953  -2.8458  -1.4647   0.6381   1.3120   3.2998   4.4796   4.5962
     6.0915   6.6965   6.9678   7.4485   7.5297  10.2295  10.8311  12.6644
    18.5601  19.0119  19.4795  19.7734

     occupation numbers 
     1.0000   1.0000   1.0000   1.0000   1.0000   1.0000   1.0000   1.0000
     1.0000   1.0000   1.0000   1.0000   1.0000   1.0000   1.0000   1.0000
     0.0000   0.0000   0.0000   0.0000

          k = 0.0000 0.1667 0.3333 (  3692 PWs)   bands (ev):

    -6.8513  -3.8697  -1.1137   0.4861   1.6530   3.1412   4.1353   5.4521
     5.7215   6.5491   7.3688   7.3729   8.1642   9.3416  10.0191  11.9990
    18.5817  19.2903  19.9104  21.1569

     occupation numbers 
     1.0000   1.0000   1.0000   1.0000   1.0000   1.0000   1.0000   1.0000
     1.0000   1.0000   1.0000   1.0000   1.0000   1.0000   1.0000   1.0000
     0.0000   0.0000   0.0000   0.0000

          k = 0.0000 0.1667 0.4167 (  3691 PWs)   bands (ev):

    -6.2835  -4.7883  -0.6937   0.1787   2.0483   2.8504   4.1144   4.8572
     6.5867   6.7050   7.0850   7.8935   8.4646   9.0830   9.2354  11.1144
    18.6862  19.0661  21.1171  22.6814

     occupation numbers 
     1.0000   1.0000   1.0000   1.0000   1.0000   1.0000   1.0000   1.0000
     1.0000   1.0000   1.0000   1.0000   1.0000   1.0000   1.0000   1.0000
     0.0000   0.0000   0.0000   0.0000

          k = 0.0000 0.1667-0.5000 (  3700 PWs)   bands (ev):

    -5.5946  -5.5946  -0.2419  -0.2419   2.4648   2.4648   4.3837   4.3837
     6.7910   6.7910   7.5972   7.5972   8.5192   8.5192  10.1072  10.1072
    18.8550  18.8551  22.4441  22.4441

     occupation numbers 
     1.0000   1.0000   1.0000   1.0000   1.0000   1.0000   1.0000   1.0000
     1.0000   1.0000   1.0000   1.0000   1.0000   1.0000   1.0000   1.0000
     0.0000   0.0000   0.0000   0.0000

          k = 0.0000 0.2500 0.2500 (  3708 PWs)   bands (ev):

    -6.9782  -2.5649  -2.5649   0.3744   1.6149   4.0209   4.3362   4.3362
     6.3454   6.3454   7.3974   7.3974   7.9721   9.3604  10.0909  12.5838
    19.0589  19.6982  19.6982  20.1112

     occupation numbers 
     1.0000   1.0000   1.0000   1.0000   1.0000   1.0000   1.0000   1.0000
     1.0000   1.0000   1.0000   1.0000   1.0000   1.0000   1.0000   1.0000
     0.0000   0.0000   0.0000   0.0000

          k = 0.0000 0.2500 0.3333 (  3700 PWs)   bands (ev):

    -6.5362  -3.5761  -2.1810  -0.0479   1.9948   3.8930   3.9419   5.2332
     5.6702   6.7288   7.4621   8.1334   8.3295   8.4913   9.3024  12.1454
    19.5948  19.7131  20.2276  21.0764

     occupation numbers 
     1.0000   1.0000   1.0000   1.0000   1.0000   1.0000   1.0000   1.0000
     1.0000   1.0000   1.0000   1.0000   1.0000   1.0000   1.0000   1.0000
     0.0000   0.0000   0.0000   0.0000

          k = 0.0000 0.2500 0.4167 (  3694 PWs)   bands (ev):

    -5.9712  -4.4861  -1.7063  -0.5880   2.4431   3.4568   4.0699   5.0246
     6.0439   7.2308   7.6367   7.6470   8.0641   8.5381   9.3906  11.4053
    19.8012  20.1040  20.5405  22.6469

     occupation numbers 
     1.0000   1.0000   1.0000   1.0000   1.0000   1.0000   1.0000   1.0000
     1.0000   1.0000   1.0000   1.0000   1.0000   1.0000   1.0000   1.0000
     0.0000   0.0000   0.0000   0.0000

          k = 0.0000 0.2500-0.5000 (  3712 PWs)   bands (ev):

    -5.2864  -5.2864  -1.1625  -1.1625   2.9411   2.9411   4.4712   4.4712
     6.8352   6.8352   7.8393   7.8393   7.8648   7.8648  10.4535  10.4535
    19.9417  19.9417  21.7456  21.7457

     occupation numbers 
     1.0000   1.0000   1.0000   1.0000   1.0000   1.0000   1.0000   1.0000
     1.0000   1.0000   1.0000   1.0000   1.0000   1.0000   1.0000   1.0000
     0.0000   0.0000   0.0000   0.0000

          k = 0.0000 0.3333 0.3333 (  3696 PWs)   bands (ev):

    -6.0971  -3.1712  -3.1712  -0.7036   2.4102   3.9630   4.6547   4.6547
     6.0282   6.0282   7.6488   8.5333   8.5349   8.5349   8.6511  11.9640
    19.7310  20.9897  21.0713  21.0713

     occupation numbers 
     1.0000   1.0000   1.0000   1.0000   1.0000   1.0000   1.0000   1.0000
     1.0000   1.0000   1.0000   1.0000   1.0000   1.0000   1.0000   1.0000
     0.0000   0.0000   0.0000   0.0000

          k = 0.0000 0.3333 0.4167 (  3690 PWs)   bands (ev):

    -5.5367  -4.0673  -2.6628  -1.3978   2.8984   4.0455   4.2706   5.3500
     5.3503   6.5107   6.8381   7.7857   8.7411   8.8865   9.6350  11.4466
    20.3220  21.1214  21.2228  22.1887

     occupation numbers 
     1.0000   1.0000   1.0000   1.0000   1.0000   1.0000   1.0000   1.0000
     1.0000   1.0000   1.0000   1.0000   1.0000   1.0000   1.0000   1.0000
     0.0000   0.0000   0.0000   0.0000

          k = 0.0000 0.3333-0.5000 (  3688 PWs)   bands (ev):

    -4.8583  -4.8583  -2.0642  -2.0642   3.4499   3.4499   4.7495   4.7495
     6.0719   6.0719   7.1027   7.1027   8.8866   8.8866  10.6412  10.6412
    21.1952  21.1952  21.2777  21.2777

     occupation numbers 
     1.0000   1.0000   1.0000   1.0000   1.0000   1.0000   1.0000   1.0000
     1.0000   1.0000   1.0000   1.0000   1.0000   1.0000   1.0000   1.0000
     0.0000   0.0000   0.0000   0.0000

          k = 0.0000 0.4167 0.4167 (  3684 PWs)   bands (ev):

    -4.9828  -3.5374  -3.5374  -2.1838   3.4233   4.6549   4.6644   4.6644
     5.8103   5.8103   6.0621   7.0530   9.4556   9.7727   9.7727  11.1895
    20.5179  21.8858  22.0218  22.0861

     occupation numbers 
     1.0000   1.0000   1.0000   1.0000   1.0000   1.0000   1.0000   1.0000
     1.0000   1.0000   1.0000   1.0000   1.0000   1.0000   1.0000   1.0000
     0.0000   0.0000   0.0000   0.0000

          k = 0.0000 0.4167-0.5000 (  3680 PWs)   bands (ev):

    -4.3142  -4.3142  -2.9049  -2.9049   4.0157   4.0157   5.1795   5.1795
     5.3351   5.3351   6.3850   6.3850   9.7377   9.7377  10.6182  10.6182
    21.1169  21.1169  21.8239  21.8240

     occupation numbers 
     1.0000   1.0000   1.0000   1.0000   1.0000   1.0000   1.0000   1.0000
     1.0000   1.0000   1.0000   1.0000   1.0000   1.0000   1.0000   1.0000
     0.0000   0.0000   0.0000   0.0000

          k = 0.0000-0.5000-0.5000 (  3676 PWs)   bands (ev):

    -3.6599  -3.6599  -3.6599  -3.6599   4.6455   4.6455   4.6455   4.6455
     5.7334   5.7334   5.7334   5.7334  10.3265  10.3265  10.3266  10.3266
    21.3064  21.3064  21.3064  21.3064

     occupation numbers 
     1.0000   1.0000   1.0000   1.0000   1.0000   1.0000   1.0000   1.0000
     1.0000   1.0000   1.0000   1.0000   1.0000   1.0000   1.0000   1.0000
     0.0000   0.0000   0.0000   0.0000

          k = 0.0833 0.0833 0.0833 (  3737 PWs)   bands (ev):

    -7.9332  -0.6201  -0.6201  -0.6201   1.9967   1.9967   1.9967   6.4859
     6.4859   6.4859   7.2054   7.2054   7.2054  12.1179  13.0199  13.0199
    18.1542  18.1542  18.1542  19.2859

     occupation numbers 
     1.0000   1.0000   1.0000   1.0000   1.0000   1.0000   1.0000   1.0000
     1.0000   1.0000   1.0000   1.0000   1.0000   1.0000   1.0000   1.0000
     0.0000   0.0000   0.0000   0.0000

          k = 0.0833 0.0833 0.1667 (  3716 PWs)   bands (ev):

    -7.7414  -1.8331  -0.4808  -0.4808   2.0563   2.0563   3.3454   5.8950
     5.8950   6.7171   7.1752   7.1752   7.3906  11.3263  12.4093  12.8922
    18.0316  18.5870  18.5870  19.2565

     occupation numbers 
     1.0000   1.0000   1.0000   1.0000   1.0000   1.0000   1.0000   1.0000
     1.0000   1.0000   1.0000   1.0000   1.0000   1.0000   1.0000   1.0000
     0.0000   0.0000   0.0000   0.0000

          k = 0.0833 0.0833 0.2500 (  3703 PWs)   bands (ev):

    -7.4225  -2.9597  -0.2626  -0.2626   2.1161   2.1161   4.6625   5.3201
     5.3201   6.9237   6.9237   7.1225   7.6967  10.4497  11.6288  12.3986
    17.9838  19.0532  19.4397  19.4397

     occupation numbers 
     1.0000   1.0000   1.0000   1.0000   1.0000   1.0000   1.0000   1.0000
     1.0000   1.0000   1.0000   1.0000   1.0000   1.0000   1.0000   1.0000
     0.0000   0.0000   0.0000   0.0000

          k = 0.0833 0.0833 0.3333 (  3704 PWs)   bands (ev):

    -6.9777  -3.9882   0.0049   0.0049   2.1186   2.1186   4.8880   4.8880
     5.8754   6.5697   6.5697   7.7408   8.1202   9.5580  10.8083  11.6285
    18.0237  18.8094  20.6195  20.6195

     occupation numbers 
     1.0000   1.0000   1.0000   1.0000   1.0000   1.0000   1.0000   1.0000
     1.0000   1.0000   1.0000   1.0000   1.0000   1.0000   1.0000   1.0000
     0.0000   0.0000   0.0000   0.0000

          k = 0.0833 0.0833 0.4167 (  3697 PWs)   bands (ev):

    -6.4088  -4.9099   0.2565   0.2565   2.0404   2.0404   4.6709   4.6709
     6.2552   6.2552   6.9169   8.6009   8.6548   8.6828  10.0168  10.6749
    18.1435  18.5581  21.9821  21.9822

     occupation numbers 
     1.0000   1.0000   1.0000   1.0000   1.0000   1.0000   1.0000   1.0000
     1.0000   1.0000   1.0000   1.0000   1.0000   1.0000   1.0000   1.0000
     0.0000   0.0000   0.0000   0.0000

          k = 0.0833 0.0833-0.5000 (  3690 PWs)   bands (ev):

    -5.7184  -5.7184   0.3695   0.3695   1.9811   1.9811   4.6199   4.6199
     6.1253   6.1253   7.8204   7.8204   9.2916   9.2916   9.6274   9.6274
    18.3281  18.3281  23.0192  23.0193

     occupation numbers 
     1.0000   1.0000   1.0000   1.0000   1.0000   1.0000   1.0000   1.0000
     1.0000   1.0000   1.0000   1.0000   1.0000   1.0000   1.0000   1.0000
     0.0000   0.0000   0.0000   0.0000

          k = 0.0833 0.1667 0.1667 (  3706 PWs)   bands (ev):

    -7.5500  -1.6749  -1.6749  -0.3600   2.0636   3.3046   3.3046   5.2208
     6.1931   6.1931   7.3727   7.3727   7.5200  10.4843  12.0241  12.8232
    18.5567  18.5567  18.5782  19.6952

     occupation numbers 
     1.0000   1.0000   1.0000   1.0000   1.0000   1.0000   1.0000   1.0000
     1.0000   1.0000   1.0000   1.0000   1.0000   1.0000   1.0000   1.0000
     0.0000   0.0000   0.0000   0.0000

          k = 0.0833 0.1667 0.2500 (  3699 PWs)   bands (ev):

    -7.2319  -2.7900  -1.4187  -0.1888   2.0202   3.1673   4.4432   4.7169
     5.7202   6.7271   7.1724   7.5913   7.7122   9.5873  11.3123  12.5194
    18.5702  19.0479  19.4588  19.6603

     occupation numbers 
     1.0000   1.0000   1.0000   1.0000   1.0000   1.0000   1.0000   1.0000
     1.0000   1.0000   1.0000   1.0000   1.0000   1.0000   1.0000   1.0000
     0.0000   0.0000   0.0000   0.0000

          k = 0.0833 0.1667 0.3333 (  3696 PWs)   bands (ev):

    -6.7882  -3.8111  -1.0789  -0.0390   1.9129   2.8796   4.5039   5.3739
     5.4057   6.9369   7.4408   7.4803   8.2326   8.6949  10.5262  11.8950
    18.6481  19.4525  19.9492  20.6591

     occupation numbers 
     1.0000   1.0000   1.0000   1.0000   1.0000   1.0000   1.0000   1.0000
     1.0000   1.0000   1.0000   1.0000   1.0000   1.0000   1.0000   1.0000
     0.0000   0.0000   0.0000   0.0000

          k = 0.0833 0.1667 0.4167 (  3689 PWs)   bands (ev):

    -6.2210  -4.7278  -0.6854  -0.0501   1.8881   2.4819   4.5739   5.0951
     6.2324   6.8339   7.1808   7.8372   8.2707   9.0249   9.7462  11.0302
    18.7899  19.2139  21.1489  22.0070

     occupation numbers 
     1.0000   1.0000   1.0000   1.0000   1.0000   1.0000   1.0000   1.0000
     1.0000   1.0000   1.0000   1.0000   1.0000   1.0000   1.0000   1.0000
     0.0000   0.0000   0.0000   0.0000

          k = 0.0833 0.1667-0.5000 (  3696 PWs)   bands (ev):

    -5.5329  -5.5329  -0.3015  -0.3015   2.1009   2.1009   4.8113   4.8114
     6.9379   6.9379   7.0225   7.0225   9.0012   9.0012  10.0275  10.0275
    18.9845  18.9845  22.3922  22.3922

     occupation numbers 
     1.0000   1.0000   1.0000   1.0000   1.0000   1.0000   1.0000   1.0000
     1.0000   1.0000   1.0000   1.0000   1.0000   1.0000   1.0000   1.0000
     0.0000   0.0000   0.0000   0.0000

          k = 0.0833 0.2500 0.2500 (  3706 PWs)   bands (ev):

    -6.9150  -2.5117  -2.5117  -0.1422   1.8492   4.0382   4.0382   4.4236
     6.3607   6.3607   7.6385   7.6385   8.0271   8.6864  10.6606  12.4556
    19.1055  19.5150  19.5150  20.2411

     occupation numbers 
     1.0000   1.0000   1.0000   1.0000   1.0000   1.0000   1.0000   1.0000
     1.0000   1.0000   1.0000   1.0000   1.0000   1.0000   1.0000   1.0000
     0.0000   0.0000   0.0000   0.0000

          k = 0.0833 0.2500 0.3333 (  3705 PWs)   bands (ev):

    -6.4734  -3.5189  -2.1329  -0.2674   1.7666   3.4942   4.4544   4.7676
     5.9802   7.0771   7.6270   7.8016   8.1886   8.3911   9.9153  12.0503
    19.6194  19.6433  20.3111  20.7323

     occupation numbers 
     1.0000   1.0000   1.0000   1.0000   1.0000   1.0000   1.0000   1.0000
     1.0000   1.0000   1.0000   1.0000   1.0000   1.0000   1.0000   1.0000
     0.0000   0.0000   0.0000   0.0000

          k = 0.0833 0.2500 0.4167 (  3689 PWs)   bands (ev):

    -5.9091  -4.4265  -1.6691  -0.6420   1.9523   2.9075   4.7120   5.4594
     5.5462   6.9623   7.7443   7.7585   8.1259   9.1638   9.3743  11.3370
    19.7706  20.1542  20.5833  22.0414

     occupation numbers 
     1.0000   1.0000   1.0000   1.0000   1.0000   1.0000   1.0000   1.0000
     1.0000   1.0000   1.0000   1.0000   1.0000   1.0000   1.0000   1.0000
     0.0000   0.0000   0.0000   0.0000

          k = 0.0833 0.2500-0.5000 (  3698 PWs)   bands (ev):

    -5.2253  -5.2253  -1.1508  -1.1508   2.3661   2.3661   5.1007   5.1007
     6.1823   6.1823   7.9418   7.9418   8.4432   8.4432  10.4069  10.4069
    19.9568  19.9568  21.7540  21.7540

     occupation numbers 
     1.0000   1.0000   1.0000   1.0000   1.0000   1.0000   1.0000   1.0000
     1.0000   1.0000   1.0000   1.0000   1.0000   1.0000   1.0000   1.0000
     0.0000   0.0000   0.0000   0.0000

          k = 0.0833 0.3333 0.3333 (  3694 PWs)   bands (ev):

    -6.0349  -3.1166  -3.1166  -0.7561   1.8839   4.0689   4.0689   4.6548
     6.5692   6.5692   6.9301   8.5890   8.5890   8.6983   9.2067  11.8972
    19.7823  20.8404  20.8404  21.0209

     occupation numbers 
     1.0000   1.0000   1.0000   1.0000   1.0000   1.0000   1.0000   1.0000
     1.0000   1.0000   1.0000   1.0000   1.0000   1.0000   1.0000   1.0000
     0.0000   0.0000   0.0000   0.0000

          k = 0.0833 0.3333 0.4167 (  3698 PWs)   bands (ev):

    -5.4752  -4.0092  -2.6134  -1.3847   2.2424   3.3829   4.6795   5.0177
     6.0201   6.1097   7.1639   8.4880   8.7899   8.9310   9.6421  11.4052
    20.3698  20.9758  21.2010  22.1938

     occupation numbers 
     1.0000   1.0000   1.0000   1.0000   1.0000   1.0000   1.0000   1.0000
     1.0000   1.0000   1.0000   1.0000   1.0000   1.0000   1.0000   1.0000
     0.0000   0.0000   0.0000   0.0000

          k = 0.0833 0.3333-0.5000 (  3700 PWs)   bands (ev):

    -4.7982  -4.7982  -2.0256  -2.0256   2.7599   2.7599   5.3574   5.3574
     5.4873   5.4873   7.8013   7.8013   8.9320   8.9320  10.6222  10.6222
    21.1162  21.1162  21.3083  21.3083

     occupation numbers 
     1.0000   1.0000   1.0000   1.0000   1.0000   1.0000   1.0000   1.0000
     1.0000   1.0000   1.0000   1.0000   1.0000   1.0000   1.0000   1.0000
     0.0000   0.0000   0.0000   0.0000

          k = 0.0833 0.4167 0.4167 (  3694 PWs)   bands (ev):

    -4.9225  -3.4820  -3.4820  -2.1448   2.6943   3.9385   3.9385   5.3097
     5.4457   6.5505   6.5505   7.8010   9.4899   9.7923   9.7923  11.1704
    20.5650  21.8997  21.9524  22.0303

     occupation numbers 
     1.0000   1.0000   1.0000   1.0000   1.0000   1.0000   1.0000   1.0000
     1.0000   1.0000   1.0000   1.0000   1.0000   1.0000   1.0000   1.0000
     0.0000   0.0000   0.0000   0.0000

          k = 0.0833 0.4167-0.5000 (  3682 PWs)   bands (ev):

    -4.2556  -4.2556  -2.8548  -2.8548   3.2683   3.2683   4.5820   4.5820
     5.9662   5.9662   7.1471   7.1471   9.7649   9.7649  10.6179  10.6179
    21.1545  21.1545  21.8308  21.8308

     occupation numbers 
     1.0000   1.0000   1.0000   1.0000   1.0000   1.0000   1.0000   1.0000
     1.0000   1.0000   1.0000   1.0000   1.0000   1.0000   1.0000   1.0000
     0.0000   0.0000   0.0000   0.0000

          k = 0.0833-0.5000-0.5000 (  3688 PWs)   bands (ev):

    -3.6043  -3.6043  -3.6043  -3.6043   3.8800   3.8800   3.8800   3.8800
     6.5257   6.5257   6.5257   6.5257  10.3401  10.3401  10.3401  10.3401
    21.3410  21.3410  21.3410  21.3410

     occupation numbers 
     1.0000   1.0000   1.0000   1.0000   1.0000   1.0000   1.0000   1.0000
     1.0000   1.0000   1.0000   1.0000   1.0000   1.0000   1.0000   1.0000
     0.0000   0.0000   0.0000   0.0000

          k = 0.1667 0.1667 0.1667 (  3689 PWs)   bands (ev):

    -7.3591  -1.5247  -1.5247  -1.5247   3.1282   3.1282   3.1282   5.6866
     5.6866   5.6866   7.6978   7.6978   7.6978   9.5884  12.3185  12.3185
    18.6470  18.6470  18.6470  20.2942

     occupation numbers 
     1.0000   1.0000   1.0000   1.0000   1.0000   1.0000   1.0000   1.0000
     1.0000   1.0000   1.0000   1.0000   1.0000   1.0000   1.0000   1.0000
     0.0000   0.0000   0.0000   0.0000

          k = 0.1667 0.1667 0.2500 (  3699 PWs)   bands (ev):

    -7.0417  -2.6244  -1.2872  -1.2872   2.7647   2.7647   3.9966   5.4186
     5.4186   6.5094   7.7772   7.7772   7.9913   8.6619  11.6427  12.2221
    18.7646  19.1536  19.1536  20.1369

     occupation numbers 
     1.0000   1.0000   1.0000   1.0000   1.0000   1.0000   1.0000   1.0000
     1.0000   1.0000   1.0000   1.0000   1.0000   1.0000   1.0000   1.0000
     0.0000   0.0000   0.0000   0.0000

          k = 0.1667 0.1667 0.3333 (  3697 PWs)   bands (ev):

    -6.5993  -3.6363  -0.9907  -0.9907   2.2724   2.2724   4.7146   5.3886
     5.3886   7.5939   7.6659   7.6659   7.7590   8.3956  10.9070  11.7343
    18.9310  19.9069  20.0624  20.0625

     occupation numbers 
     1.0000   1.0000   1.0000   1.0000   1.0000   1.0000   1.0000   1.0000
     1.0000   1.0000   1.0000   1.0000   1.0000   1.0000   1.0000   1.0000
     0.0000   0.0000   0.0000   0.0000

          k = 0.1667 0.1667 0.4167 (  3694 PWs)   bands (ev):

    -6.0338  -4.5472  -0.7044  -0.7044   1.8221   1.8221   5.3994   5.4697
     5.4697   6.9080   7.4944   7.4944   8.7725   8.9036  10.1804  10.9342
    19.1413  19.6474  21.2407  21.2407

     occupation numbers 
     1.0000   1.0000   1.0000   1.0000   1.0000   1.0000   1.0000   1.0000
     1.0000   1.0000   1.0000   1.0000   1.0000   1.0000   1.0000   1.0000
     0.0000   0.0000   0.0000   0.0000

          k = 0.1667 0.1667-0.5000 (  3712 PWs)   bands (ev):

    -5.3484  -5.3484  -0.5722  -0.5722   1.6280   1.6280   5.5199   5.5199
     6.1221   6.1221   7.4121   7.4121   9.5040   9.5040   9.9173   9.9173
    19.3852  19.3852  22.1667  22.1668

     occupation numbers 
     1.0000   1.0000   1.0000   1.0000   1.0000   1.0000   1.0000   1.0000
     1.0000   1.0000   1.0000   1.0000   1.0000   1.0000   1.0000   1.0000
     0.0000   0.0000   0.0000   0.0000

          k = 0.1667 0.2500 0.2500 (  3708 PWs)   bands (ev):

    -6.7257  -2.3549  -2.3549  -1.0961   2.1856   3.3538   3.3538   5.3957
     6.4461   6.4461   7.7204   8.0945   8.0945   8.1909  11.2827  12.1021
    19.2420  19.3214  19.3214  20.6061

     occupation numbers 
     1.0000   1.0000   1.0000   1.0000   1.0000   1.0000   1.0000   1.0000
     1.0000   1.0000   1.0000   1.0000   1.0000   1.0000   1.0000   1.0000
     0.0000   0.0000   0.0000   0.0000

          k = 0.1667 0.2500 0.3333 (  3697 PWs)   bands (ev):

    -6.2855  -3.3487  -1.9947  -0.9158   1.6381   2.6550   3.9125   5.5631
     6.4289   6.8139   7.5630   8.0819   8.3545   8.5752  10.6374  11.7906
    19.5395  19.7854  20.2408  20.5587

     occupation numbers 
     1.0000   1.0000   1.0000   1.0000   1.0000   1.0000   1.0000   1.0000
     1.0000   1.0000   1.0000   1.0000   1.0000   1.0000   1.0000   1.0000
     0.0000   0.0000   0.0000   0.0000

          k = 0.1667 0.2500 0.4167 (  3697 PWs)   bands (ev):

    -5.7232  -4.2485  -1.5729  -0.8991   1.3678   2.0108   4.5191   5.8288
     5.9696   6.3336   8.0902   8.3170   8.5195   9.3185   9.9475  11.1511
    19.7932  20.3314  20.7086  21.3814

     occupation numbers 
     1.0000   1.0000   1.0000   1.0000   1.0000   1.0000   1.0000   1.0000
     1.0000   1.0000   1.0000   1.0000   1.0000   1.0000   1.0000   1.0000
     0.0000   0.0000   0.0000   0.0000

          k = 0.1667 0.2500-0.5000 (  3716 PWs)   bands (ev):

    -5.0426  -5.0426  -1.1587  -1.1587   1.5289   1.5289   5.2027   5.2027
     6.1141   6.1141   8.1891   8.1891   9.2574   9.2574  10.2704  10.2704
    20.0645  20.0645  21.7551  21.7551

     occupation numbers 
     1.0000   1.0000   1.0000   1.0000   1.0000   1.0000   1.0000   1.0000
     1.0000   1.0000   1.0000   1.0000   1.0000   1.0000   1.0000   1.0000
     0.0000   0.0000   0.0000   0.0000

          k = 0.1667 0.3333 0.3333 (  3702 PWs)   bands (ev):

    -5.8486  -2.9556  -2.9556  -1.0094   1.2716   3.1137   3.1137   5.8513
     5.9101   7.3626   7.3626   8.7590   8.7590   8.8382  10.0653  11.7031
    19.9326  20.4686  20.4686  21.1250

     occupation numbers 
     1.0000   1.0000   1.0000   1.0000   1.0000   1.0000   1.0000   1.0000
     1.0000   1.0000   1.0000   1.0000   1.0000   1.0000   1.0000   1.0000
     0.0000   0.0000   0.0000   0.0000

          k = 0.1667 0.3333 0.4167 (  3702 PWs)   bands (ev):

    -5.2915  -3.8364  -2.4710  -1.3877   1.3482   2.3806   3.6689   5.0746
     6.2170   7.0270   8.1075   8.9407   9.0637   9.4229   9.6574  11.2820
    20.5095  20.7242  21.1747  21.5500

     occupation numbers 
     1.0000   1.0000   1.0000   1.0000   1.0000   1.0000   1.0000   1.0000
     1.0000   1.0000   1.0000   1.0000   1.0000   1.0000   1.0000   1.0000
     0.0000   0.0000   0.0000   0.0000

          k = 0.1667 0.3333-0.5000 (  3686 PWs)   bands (ev):

    -4.6186  -4.6185  -1.9250  -1.9250   1.7661   1.7661   4.3241   4.3241
     6.6243   6.6243   8.7702   8.7702   9.0695   9.0695  10.5611  10.5611
    20.9776  20.9776  21.3919  21.3919

     occupation numbers 
     1.0000   1.0000   1.0000   1.0000   1.0000   1.0000   1.0000   1.0000
     1.0000   1.0000   1.0000   1.0000   1.0000   1.0000   1.0000   1.0000
     0.0000   0.0000   0.0000   0.0000

          k = 0.1667 0.4167 0.4167 (  3687 PWs)   bands (ev):

    -4.7423  -3.3187  -3.3187  -2.0428   1.6759   2.8895   2.8895   4.2509
     6.6541   7.6299   7.6299   8.8280   9.5905   9.8473   9.8473  11.1109
    20.7015  21.7084  21.7084  21.8978

     occupation numbers 
     1.0000   1.0000   1.0000   1.0000   1.0000   1.0000   1.0000   1.0000
     1.0000   1.0000   1.0000   1.0000   1.0000   1.0000   1.0000   1.0000
     0.0000   0.0000   0.0000   0.0000

          k = 0.1667 0.4167-0.5000 (  3688 PWs)   bands (ev):

    -4.0815  -4.0815  -2.7104  -2.7104   2.2127   2.2127   3.5177   3.5177
     7.1330   7.1330   8.2237   8.2237   9.8438   9.8438  10.6132  10.6132
    21.2618  21.2618  21.8106  21.8106

     occupation numbers 
     1.0000   1.0000   1.0000   1.0000   1.0000   1.0000   1.0000   1.0000
     1.0000   1.0000   1.0000   1.0000   1.0000   1.0000   1.0000   1.0000
     0.0000   0.0000   0.0000   0.0000

          k = 0.1667-0.5000-0.5000 (  3688 PWs)   bands (ev):

    -3.4401  -3.4401  -3.4401  -3.4401   2.8067   2.8067   2.8067   2.8067
     7.6684   7.6684   7.6684   7.6684  10.3774  10.3774  10.3774  10.3774
    21.4385  21.4385  21.4385  21.4385

     occupation numbers 
     1.0000   1.0000   1.0000   1.0000   1.0000   1.0000   1.0000   1.0000
     1.0000   1.0000   1.0000   1.0000   1.0000   1.0000   1.0000   1.0000
     0.0000   0.0000   0.0000   0.0000

          k = 0.2500 0.2500 0.2500 (  3683 PWs)   bands (ev):

    -6.4113  -2.1055  -2.1055  -2.1055   2.5580   2.5580   2.5580   6.6020
     6.6020   6.6020   6.7532   8.4599   8.4599   8.4599  11.5945  11.5945
    19.4580  19.4580  19.4580  21.1530

     occupation numbers 
     1.0000   1.0000   1.0000   1.0000   1.0000   1.0000   1.0000   1.0000
     1.0000   1.0000   1.0000   1.0000   1.0000   1.0000   1.0000   1.0000
     0.0000   0.0000   0.0000   0.0000

          k = 0.2500 0.2500 0.3333 (  3695 PWs)   bands (ev):

    -5.9735  -3.0711  -1.7913  -1.7913   1.8044   1.8044   3.0138   5.8337
     6.7920   6.7920   7.8621   8.6343   8.6343   8.8278  11.0072  11.4950
    19.7357  20.0105  20.0105  20.9534

     occupation numbers 
     1.0000   1.0000   1.0000   1.0000   1.0000   1.0000   1.0000   1.0000
     1.0000   1.0000   1.0000   1.0000   1.0000   1.0000   1.0000   1.0000
     0.0000   0.0000   0.0000   0.0000

          k = 0.2500 0.2500 0.4167 (  3704 PWs)   bands (ev):

    -5.4151  -3.9555  -1.4831  -1.4831   1.2174   1.2174   3.5701   4.9873
     6.9593   6.9593   8.6615   8.6615   9.0722   9.2845  10.3999  10.9856
    20.0513  20.6864  20.9058  20.9059

     occupation numbers 
     1.0000   1.0000   1.0000   1.0000   1.0000   1.0000   1.0000   1.0000
     1.0000   1.0000   1.0000   1.0000   1.0000   1.0000   1.0000   1.0000
     0.0000   0.0000   0.0000   0.0000

          k = 0.2500 0.2500-0.5000 (  3708 PWs)   bands (ev):

    -4.7403  -4.7403  -1.3383  -1.3383   0.9775   0.9775   4.2295   4.2295
     7.0291   7.0291   8.6504   8.6504   9.8156   9.8156  10.1445  10.1445
    20.3774  20.3774  21.6732  21.6732

     occupation numbers 
     1.0000   1.0000   1.0000   1.0000   1.0000   1.0000   1.0000   1.0000
     1.0000   1.0000   1.0000   1.0000   1.0000   1.0000   1.0000   1.0000
     0.0000   0.0000   0.0000   0.0000

          k = 0.2500 0.3333 0.3333 (  3692 PWs)   bands (ev):

    -5.5397  -2.6987  -2.6987  -1.5928   1.1084   2.1693   2.1693   4.9092
     7.1218   7.9754   7.9754   9.0480   9.0480   9.0656  10.7166  11.4009
    20.1708  20.2997  20.2997  21.3256

     occupation numbers 
     1.0000   1.0000   1.0000   1.0000   1.0000   1.0000   1.0000   1.0000
     1.0000   1.0000   1.0000   1.0000   1.0000   1.0000   1.0000   1.0000
     0.0000   0.0000   0.0000   0.0000

          k = 0.2500 0.3333 0.4167 (  3694 PWs)   bands (ev):

    -4.9875  -3.5540  -2.2601  -1.5608   0.7640   1.4414   2.6812   4.0650
     7.4405   7.9211   8.9371   9.2095   9.2825   9.6688  10.1917  11.0857
    20.6248  20.7294  21.1560  21.2283

     occupation numbers 
     1.0000   1.0000   1.0000   1.0000   1.0000   1.0000   1.0000   1.0000
     1.0000   1.0000   1.0000   1.0000   1.0000   1.0000   1.0000   1.0000
     0.0000   0.0000   0.0000   0.0000

          k = 0.2500 0.3333-0.5000 (  3684 PWs)   bands (ev):

    -4.3225  -4.3225  -1.8271  -1.8271   0.9176   0.9176   3.3178   3.3179
     7.7243   7.7243   9.3063   9.3063   9.6150   9.6150  10.4503  10.4503
    20.9497  20.9497  21.4989  21.4989

     occupation numbers 
     1.0000   1.0000   1.0000   1.0000   1.0000   1.0000   1.0000   1.0000
     1.0000   1.0000   1.0000   1.0000   1.0000   1.0000   1.0000   1.0000
     0.0000   0.0000   0.0000   0.0000

          k = 0.2500 0.4167 0.4167 (  3702 PWs)   bands (ev):

    -4.4453  -3.0575  -3.0575  -1.9422   0.8126   1.8912   1.8912   3.2285
     7.8674   8.6378   8.6378   9.7356   9.7497   9.9284   9.9284  11.0068
    20.9135  21.4291  21.4292  21.7667

     occupation numbers 
     1.0000   1.0000   1.0000   1.0000   1.0000   1.0000   1.0000   1.0000
     1.0000   1.0000   1.0000   1.0000   1.0000   1.0000   1.0000   1.0000
     0.0000   0.0000   0.0000   0.0000

          k = 0.2500 0.4167-0.5000 (  3698 PWs)   bands (ev):

    -3.7968  -3.7968  -2.4958  -2.4958   1.2422   1.2422   2.4972   2.4972
     8.2706   8.2706   9.2147   9.2147   9.9665   9.9665  10.5946  10.5946
    21.4201  21.4202  21.6821  21.6822

     occupation numbers 
     1.0000   1.0000   1.0000   1.0000   1.0000   1.0000   1.0000   1.0000
     1.0000   1.0000   1.0000   1.0000   1.0000   1.0000   1.0000   1.0000
     0.0000   0.0000   0.0000   0.0000

          k = 0.2500-0.5000-0.5000 (  3672 PWs)   bands (ev):

    -3.1776  -3.1776  -3.1776  -3.1776   1.7935   1.7935   1.7935   1.7935
     8.7597   8.7597   8.7597   8.7597  10.4295  10.4295  10.4295  10.4295
    21.5788  21.5788  21.5788  21.5788

     occupation numbers 
     1.0000   1.0000   1.0000   1.0000   1.0000   1.0000   1.0000   1.0000
     1.0000   1.0000   1.0000   1.0000   1.0000   1.0000   1.0000   1.0000
     0.0000   0.0000   0.0000   0.0000

          k = 0.3333 0.3333 0.3333 (  3710 PWs)   bands (ev):

    -5.1110  -2.3731  -2.3731  -2.3730   1.3296   1.3296   1.3296   3.9740
     8.3541   8.3541   8.3541   9.3713   9.3713   9.3713  11.0195  11.0195
    20.4757  20.4757  20.4757  21.6440

     occupation numbers 
     1.0000   1.0000   1.0000   1.0000   1.0000   1.0000   1.0000   1.0000
     1.0000   1.0000   1.0000   1.0000   1.0000   1.0000   1.0000   1.0000
     0.0000   0.0000   0.0000   0.0000

          k = 0.3333 0.3333 0.4167 (  3687 PWs)   bands (ev):

    -4.5672  -3.1742  -2.0502  -2.0502   0.6909   0.6909   1.7809   3.1284
     8.5657   8.5657   9.4604   9.5920   9.5920   9.7416  10.5935  10.8909
    20.8151  21.0072  21.0072  21.4319

     occupation numbers 
     1.0000   1.0000   1.0000   1.0000   1.0000   1.0000   1.0000   1.0000
     1.0000   1.0000   1.0000   1.0000   1.0000   1.0000   1.0000   1.0000
     0.0000   0.0000   0.0000   0.0000

          k = 0.3333 0.3333-0.5000 (  3680 PWs)   bands (ev):

    -3.9165  -3.9165  -1.8966  -1.8966   0.4310   0.4310   2.3909   2.3909
     8.6374   8.6374   9.6642   9.6642  10.1573  10.1573  10.3422  10.3422
    21.1477  21.1477  21.5675  21.5676

     occupation numbers 
     1.0000   1.0000   1.0000   1.0000   1.0000   1.0000   1.0000   1.0000
     1.0000   1.0000   1.0000   1.0000   1.0000   1.0000   1.0000   1.0000
     0.0000   0.0000   0.0000   0.0000

          k = 0.3333 0.4167 0.4167 (  3690 PWs)   bands (ev):

    -4.0378  -2.7253  -2.7253  -2.0091   0.3166   1.0165   1.0165   2.2906
     8.9808   9.4455   9.4455   9.9551  10.0287  10.0287  10.3870  10.8551
    21.1740  21.3081  21.3081  21.7178

     occupation numbers 
     1.0000   1.0000   1.0000   1.0000   1.0000   1.0000   1.0000   1.0000
     1.0000   1.0000   1.0000   1.0000   1.0000   1.0000   1.0000   1.0000
     0.0000   0.0000   0.0000   0.0000

          k = 0.3333 0.4167-0.5000 (  3692 PWs)   bands (ev):

    -3.4136  -3.4136  -2.2804  -2.2804   0.4707   0.4707   1.5750   1.5750
     9.2629   9.2629   9.9955   9.9955  10.1232  10.1232  10.5493  10.5493
    21.5844  21.5845  21.5920  21.5921

     occupation numbers 
     1.0000   1.0000   1.0000   1.0000   1.0000   1.0000   1.0000   1.0000
     1.0000   1.0000   1.0000   1.0000   1.0000   1.0000   1.0000   1.0000
     0.0000   0.0000   0.0000   0.0000

          k = 0.3333-0.5000-0.5000 (  3708 PWs)   bands (ev):

    -2.8432  -2.8432  -2.8432  -2.8432   0.9087   0.9087   0.9087   0.9087
     9.6809   9.6809   9.6809   9.6809  10.4828  10.4828  10.4828  10.4828
    21.7243  21.7243  21.7243  21.7243

     occupation numbers 
     1.0000   1.0000   1.0000   1.0000   1.0000   1.0000   1.0000   1.0000
     1.0000   1.0000   1.0000   1.0000   1.0000   1.0000   1.0000   1.0000
     0.0000   0.0000   0.0000   0.0000

          k = 0.4167 0.4167 0.4167 (  3695 PWs)   bands (ev):

    -3.5328  -2.3938  -2.3938  -2.3938   0.3543   0.3543   0.3543   1.4668
     9.8918   9.8918   9.8918  10.1892  10.1892  10.1892  10.6594  10.6594
    21.4412  21.4412  21.4412  21.8067

     occupation numbers 
     1.0000   1.0000   1.0000   1.0000   1.0000   1.0000   1.0000   1.0000
     1.0000   1.0000   1.0000   1.0000   1.0000   1.0000   1.0000   1.0000
     0.0000   0.0000   0.0000   0.0000

          k = 0.4167 0.4167-0.5000 (  3684 PWs)   bands (ev):

    -2.9597  -2.9597  -2.2348  -2.2348   0.0843   0.0843   0.7952   0.7952
     9.9791   9.9792  10.3157  10.3157  10.4312  10.4312  10.4848  10.4848
    21.6620  21.6620  21.7185  21.7186

     occupation numbers 
     1.0000   1.0000   1.0000   1.0000   1.0000   1.0000   1.0000   1.0000
     1.0000   1.0000   1.0000   1.0000   1.0000   1.0000   1.0000   1.0000
     0.0000   0.0000   0.0000   0.0000

          k = 0.4167-0.5000-0.5000 (  3700 PWs)   bands (ev):

    -2.5089  -2.5089  -2.5089  -2.5089   0.2394   0.2395   0.2395   0.2395
    10.3110  10.3110  10.3110  10.3110  10.5227  10.5227  10.5227  10.5227
    21.8180  21.8180  21.8181  21.8182

     occupation numbers 
     1.0000   1.0000   1.0000   1.0000   1.0000   1.0000   1.0000   1.0000
     1.0000   1.0000   1.0000   1.0000   1.0000   1.0000   1.0000   1.0000
     0.0000   0.0000   0.0000   0.0000

          k =-0.5000-0.5000-0.5000 (  3648 PWs)   bands (ev):

    -2.3481  -2.3481  -2.3481  -2.3481  -0.0337  -0.0337  -0.0337  -0.0337
    10.5374  10.5374  10.5374  10.5374  10.5374  10.5375  10.5375  10.5375
    21.8309  21.8309  21.8309  21.8309

     occupation numbers 
     1.0000   1.0000   1.0000   1.0000   1.0000   1.0000   1.0000   1.0000
     1.0000   1.0000   1.0000   1.0000   1.0000   1.0000   1.0000   1.0000
     0.0000   0.0000   0.0000   0.0000

     the Fermi energy is    15.9658 ev

!    total energy              =     -99.35165668 Ry
     Harris-Foulkes estimate   =     -99.35165661 Ry
     estimated scf accuracy    <       0.00000010 Ry

     The total energy is the sum of the following terms:

     one-electron contribution =      32.71417755 Ry
     hartree contribution      =       7.76924750 Ry
     xc contribution           =     -37.51509960 Ry
     ewald contribution        =    -102.31998213 Ry
     smearing contrib. (-TS)   =      -0.00000000 Ry

     convergence has been achieved in   5 iterations

     Writing output data file c-12.save/

     init_run     :      2.27s CPU      2.37s WALL (       1 calls)
     electrons    :     22.41s CPU     23.27s WALL (       1 calls)

     Called by init_run:
     wfcinit      :      2.07s CPU      2.16s WALL (       1 calls)
     wfcinit:atom :      0.02s CPU      0.02s WALL (      84 calls)
     wfcinit:wfcr :      1.95s CPU      2.04s WALL (      84 calls)
     potinit      :      0.03s CPU      0.03s WALL (       1 calls)
     hinit0       :      0.07s CPU      0.08s WALL (       1 calls)

     Called by electrons:
     c_bands      :     19.79s CPU     20.51s WALL (       5 calls)
     sum_band     :      2.42s CPU      2.55s WALL (       5 calls)
     v_of_rho     :      0.10s CPU      0.11s WALL (       6 calls)
     v_h          :      0.01s CPU      0.01s WALL (       6 calls)
     v_xc         :      0.10s CPU      0.10s WALL (       6 calls)
     newd         :      0.10s CPU      0.11s WALL (       6 calls)
     mix_rho      :      0.01s CPU      0.01s WALL (       5 calls)

     Called by c_bands:
     init_us_2    :      0.24s CPU      0.24s WALL (     924 calls)
     cegterg      :     19.07s CPU     19.78s WALL (     420 calls)

     Called by sum_band:
     sum_band:bec :      0.01s CPU      0.01s WALL (     420 calls)
     addusdens    :      0.05s CPU      0.05s WALL (       5 calls)

     Called by *egterg:
     h_psi        :     12.92s CPU     13.64s WALL (    1907 calls)
     s_psi        :      1.49s CPU      1.51s WALL (    1907 calls)
     g_psi        :      0.08s CPU      0.08s WALL (    1403 calls)
     cdiaghg      :      1.55s CPU      1.57s WALL (    1823 calls)
     cegterg:over :      2.23s CPU      2.26s WALL (    1403 calls)
     cegterg:upda :      0.87s CPU      0.87s WALL (    1403 calls)
     cegterg:last :      0.42s CPU      0.42s WALL (     420 calls)

     Called by h_psi:
     h_psi:pot    :     12.87s CPU     13.60s WALL (    1907 calls)
     h_psi:calbec :      2.12s CPU      2.24s WALL (    1907 calls)
     vloc_psi     :      9.22s CPU      9.78s WALL (    1907 calls)
     add_vuspsi   :      1.52s CPU      1.57s WALL (    1907 calls)

     General routines
     calbec       :      2.80s CPU      2.95s WALL (    2327 calls)
     fft          :      0.07s CPU      0.07s WALL (      76 calls)
     ffts         :      0.00s CPU      0.00s WALL (      11 calls)
     fftw         :      9.83s CPU     10.42s WALL (   59498 calls)
     interpolate  :      0.01s CPU      0.01s WALL (       6 calls)

     Parallel routines
     fft_scatt_xy :      0.81s CPU      0.85s WALL (   59585 calls)
     fft_scatt_yz :      4.80s CPU      5.10s WALL (   59585 calls)

     PWSCF        :     25.09s CPU     26.13s WALL


   This run was terminated on:  18:53:30  26May2022            

=------------------------------------------------------------------------------=
   JOB DONE.
=------------------------------------------------------------------------------=
