
     Program PWSCF v.6.4.1 starts on 26May2022 at 18:54:34 

     This program is part of the open-source Quantum ESPRESSO suite
     for quantum simulation of materials; please cite
         "P. Giannozzi et al., J. Phys.:Condens. Matter 21 395502 (2009);
         "P. Giannozzi et al., J. Phys.:Condens. Matter 29 465901 (2017);
          URL http://www.quantum-espresso.org", 
     in publications or presentations arising from this work. More details at
     http://www.quantum-espresso.org/quote

     Parallel version (MPI), running on     6 processors

     MPI processes distributed on     1 nodes
     R & G space division:  proc/nbgrp/npool/nimage =       6
     Reading input from c-15.in

     Current dimensions of program PWSCF are:
     Max number of different atomic species (ntypx) = 10
     Max number of k-points (npk) =  40000
     Max angular momentum in pseudopotentials (lmaxx) =  3

     Subspace diagonalization in iterative solution of the eigenvalue problem:
     a serial algorithm will be used

     Found symmetry operation: I + ( -0.5000 -0.5000  0.0000)
     This is a supercell, fractional translations are disabled
     Message from routine setup:
     DEPRECATED: symmetry with ibrav=0, use correct ibrav instead

     Parallelization info
     --------------------
     sticks:   dense  smooth     PW     G-vecs:    dense   smooth      PW
     Min         337     192     56                11417     4902     786
     Max         338     193     57                11420     4905     789
     Sum        2025    1153    341                68507    29423    4729



     bravais-lattice index     =            0
     lattice parameter (alat)  =       6.7388  a.u.
     unit-cell volume          =     306.0135 (a.u.)^3
     number of atoms/cell      =            8
     number of atomic types    =            1
     number of electrons       =        32.00
     number of Kohn-Sham states=           20
     kinetic-energy cutoff     =      80.0000  Ry
     charge density cutoff     =     560.0000  Ry
     convergence threshold     =      1.0E-06
     mixing beta               =       0.7000
     number of iterations used =            8  plain     mixing
     Exchange-correlation      = PBE ( 1  4  3  4 0 0)

     celldm(1)=   6.738763  celldm(2)=   0.000000  celldm(3)=   0.000000
     celldm(4)=   0.000000  celldm(5)=   0.000000  celldm(6)=   0.000000

     crystal axes: (cart. coord. in units of alat)
               a(1) = (   1.000000   0.000000   0.000000 )  
               a(2) = (   0.000000   1.000000   0.000000 )  
               a(3) = (   0.000000   0.000000   1.000000 )  

     reciprocal axes: (cart. coord. in units 2 pi/alat)
               b(1) = (  1.000000  0.000000  0.000000 )  
               b(2) = (  0.000000  1.000000  0.000000 )  
               b(3) = (  0.000000  0.000000  1.000000 )  


     PseudoPot. # 1 for C  read from file:
     /home/cristian/Escritorio/Proyecto_Grafeno/pseudopotenciales/C.pbe-n-rrkjus_psl.1.0.0.UPF
     MD5 check sum: 1fdd950c42eb37d8afe3dd2f8d12311e
     Pseudo is Ultrasoft + core correction, Zval =  4.0
     Generated using "atomic" code by A. Dal Corso v.6.3MaX
     Using radial grid of 1073 points,  4 beta functions with: 
                l(1) =   0
                l(2) =   0
                l(3) =   1
                l(4) =   1
     Q(r) pseudized with 0 coefficients 


     atomic species   valence    mass     pseudopotential
        C              4.00    12.01100     C ( 1.00)

     24 Sym. Ops. (no inversion) found


                                    s                        frac. trans.

      isym =  1     identity                                     

 cryst.   s( 1) = (     1          0          0      )
                  (     0          1          0      )
                  (     0          0          1      )

 cart.    s( 1) = (  1.0000000  0.0000000  0.0000000 )
                  (  0.0000000  1.0000000  0.0000000 )
                  (  0.0000000  0.0000000  1.0000000 )


      isym =  2     180 deg rotation - cart. axis [0,0,1]        

 cryst.   s( 2) = (    -1          0          0      )
                  (     0         -1          0      )
                  (     0          0          1      )

 cart.    s( 2) = ( -1.0000000  0.0000000  0.0000000 )
                  (  0.0000000 -1.0000000  0.0000000 )
                  (  0.0000000  0.0000000  1.0000000 )


      isym =  3     180 deg rotation - cart. axis [0,1,0]        

 cryst.   s( 3) = (    -1          0          0      )
                  (     0          1          0      )
                  (     0          0         -1      )

 cart.    s( 3) = ( -1.0000000  0.0000000  0.0000000 )
                  (  0.0000000  1.0000000  0.0000000 )
                  (  0.0000000  0.0000000 -1.0000000 )


      isym =  4     180 deg rotation - cart. axis [1,0,0]        

 cryst.   s( 4) = (     1          0          0      )
                  (     0         -1          0      )
                  (     0          0         -1      )

 cart.    s( 4) = (  1.0000000  0.0000000  0.0000000 )
                  (  0.0000000 -1.0000000  0.0000000 )
                  (  0.0000000  0.0000000 -1.0000000 )


      isym =  5     120 deg rotation - cart. axis [-1,-1,-1]     

 cryst.   s( 5) = (     0          0          1      )
                  (     1          0          0      )
                  (     0          1          0      )

 cart.    s( 5) = (  0.0000000  1.0000000  0.0000000 )
                  (  0.0000000  0.0000000  1.0000000 )
                  (  1.0000000  0.0000000  0.0000000 )


      isym =  6     120 deg rotation - cart. axis [-1,1,1]       

 cryst.   s( 6) = (     0          0         -1      )
                  (    -1          0          0      )
                  (     0          1          0      )

 cart.    s( 6) = (  0.0000000 -1.0000000  0.0000000 )
                  (  0.0000000  0.0000000  1.0000000 )
                  ( -1.0000000  0.0000000  0.0000000 )


      isym =  7     120 deg rotation - cart. axis [1,1,-1]       

 cryst.   s( 7) = (     0          0         -1      )
                  (     1          0          0      )
                  (     0         -1          0      )

 cart.    s( 7) = (  0.0000000  1.0000000  0.0000000 )
                  (  0.0000000  0.0000000 -1.0000000 )
                  ( -1.0000000  0.0000000  0.0000000 )


      isym =  8     120 deg rotation - cart. axis [1,-1,1]       

 cryst.   s( 8) = (     0          0          1      )
                  (    -1          0          0      )
                  (     0         -1          0      )

 cart.    s( 8) = (  0.0000000 -1.0000000  0.0000000 )
                  (  0.0000000  0.0000000 -1.0000000 )
                  (  1.0000000  0.0000000  0.0000000 )


      isym =  9     120 deg rotation - cart. axis [1,1,1]        

 cryst.   s( 9) = (     0          1          0      )
                  (     0          0          1      )
                  (     1          0          0      )

 cart.    s( 9) = (  0.0000000  0.0000000  1.0000000 )
                  (  1.0000000  0.0000000  0.0000000 )
                  (  0.0000000  1.0000000  0.0000000 )


      isym = 10     120 deg rotation - cart. axis [-1,1,-1]      

 cryst.   s(10) = (     0         -1          0      )
                  (     0          0         -1      )
                  (     1          0          0      )

 cart.    s(10) = (  0.0000000  0.0000000  1.0000000 )
                  ( -1.0000000  0.0000000  0.0000000 )
                  (  0.0000000 -1.0000000  0.0000000 )


      isym = 11     120 deg rotation - cart. axis [1,-1,-1]      

 cryst.   s(11) = (     0         -1          0      )
                  (     0          0          1      )
                  (    -1          0          0      )

 cart.    s(11) = (  0.0000000  0.0000000 -1.0000000 )
                  ( -1.0000000  0.0000000  0.0000000 )
                  (  0.0000000  1.0000000  0.0000000 )


      isym = 12     120 deg rotation - cart. axis [-1,-1,1]      

 cryst.   s(12) = (     0          1          0      )
                  (     0          0         -1      )
                  (    -1          0          0      )

 cart.    s(12) = (  0.0000000  0.0000000 -1.0000000 )
                  (  1.0000000  0.0000000  0.0000000 )
                  (  0.0000000 -1.0000000  0.0000000 )


      isym = 13     inv. 180 deg rotation - cart. axis [1,1,0]   

 cryst.   s(13) = (     0         -1          0      )
                  (    -1          0          0      )
                  (     0          0          1      )

 cart.    s(13) = (  0.0000000 -1.0000000  0.0000000 )
                  ( -1.0000000  0.0000000  0.0000000 )
                  (  0.0000000  0.0000000  1.0000000 )


      isym = 14     inv. 180 deg rotation - cart. axis [1,-1,0]  

 cryst.   s(14) = (     0          1          0      )
                  (     1          0          0      )
                  (     0          0          1      )

 cart.    s(14) = (  0.0000000  1.0000000  0.0000000 )
                  (  1.0000000  0.0000000  0.0000000 )
                  (  0.0000000  0.0000000  1.0000000 )


      isym = 15     inv.  90 deg rotation - cart. axis [0,0,-1]  

 cryst.   s(15) = (     0          1          0      )
                  (    -1          0          0      )
                  (     0          0         -1      )

 cart.    s(15) = (  0.0000000 -1.0000000  0.0000000 )
                  (  1.0000000  0.0000000  0.0000000 )
                  (  0.0000000  0.0000000 -1.0000000 )


      isym = 16     inv.  90 deg rotation - cart. axis [0,0,1]   

 cryst.   s(16) = (     0         -1          0      )
                  (     1          0          0      )
                  (     0          0         -1      )

 cart.    s(16) = (  0.0000000  1.0000000  0.0000000 )
                  ( -1.0000000  0.0000000  0.0000000 )
                  (  0.0000000  0.0000000 -1.0000000 )


      isym = 17     inv. 180 deg rotation - cart. axis [1,0,1]   

 cryst.   s(17) = (     0          0         -1      )
                  (     0          1          0      )
                  (    -1          0          0      )

 cart.    s(17) = (  0.0000000  0.0000000 -1.0000000 )
                  (  0.0000000  1.0000000  0.0000000 )
                  ( -1.0000000  0.0000000  0.0000000 )


      isym = 18     inv. 180 deg rotation - cart. axis [-1,0,1]  

 cryst.   s(18) = (     0          0          1      )
                  (     0          1          0      )
                  (     1          0          0      )

 cart.    s(18) = (  0.0000000  0.0000000  1.0000000 )
                  (  0.0000000  1.0000000  0.0000000 )
                  (  1.0000000  0.0000000  0.0000000 )


      isym = 19     inv.  90 deg rotation - cart. axis [0,1,0]   

 cryst.   s(19) = (     0          0          1      )
                  (     0         -1          0      )
                  (    -1          0          0      )

 cart.    s(19) = (  0.0000000  0.0000000 -1.0000000 )
                  (  0.0000000 -1.0000000  0.0000000 )
                  (  1.0000000  0.0000000  0.0000000 )


      isym = 20     inv.  90 deg rotation - cart. axis [0,-1,0]  

 cryst.   s(20) = (     0          0         -1      )
                  (     0         -1          0      )
                  (     1          0          0      )

 cart.    s(20) = (  0.0000000  0.0000000  1.0000000 )
                  (  0.0000000 -1.0000000  0.0000000 )
                  ( -1.0000000  0.0000000  0.0000000 )


      isym = 21     inv. 180 deg rotation - cart. axis [0,1,1]   

 cryst.   s(21) = (     1          0          0      )
                  (     0          0         -1      )
                  (     0         -1          0      )

 cart.    s(21) = (  1.0000000  0.0000000  0.0000000 )
                  (  0.0000000  0.0000000 -1.0000000 )
                  (  0.0000000 -1.0000000  0.0000000 )


      isym = 22     inv. 180 deg rotation - cart. axis [0,1,-1]  

 cryst.   s(22) = (     1          0          0      )
                  (     0          0          1      )
                  (     0          1          0      )

 cart.    s(22) = (  1.0000000  0.0000000  0.0000000 )
                  (  0.0000000  0.0000000  1.0000000 )
                  (  0.0000000  1.0000000  0.0000000 )


      isym = 23     inv.  90 deg rotation - cart. axis [-1,0,0]  

 cryst.   s(23) = (    -1          0          0      )
                  (     0          0          1      )
                  (     0         -1          0      )

 cart.    s(23) = ( -1.0000000  0.0000000  0.0000000 )
                  (  0.0000000  0.0000000 -1.0000000 )
                  (  0.0000000  1.0000000  0.0000000 )


      isym = 24     inv.  90 deg rotation - cart. axis [1,0,0]   

 cryst.   s(24) = (    -1          0          0      )
                  (     0          0         -1      )
                  (     0          1          0      )

 cart.    s(24) = ( -1.0000000  0.0000000  0.0000000 )
                  (  0.0000000  0.0000000  1.0000000 )
                  (  0.0000000 -1.0000000  0.0000000 )


   Cartesian axes

     site n.     atom                  positions (alat units)
         1           C   tau(   1) = (   0.0000000   0.0000000   0.0000000  )
         2           C   tau(   2) = (   0.5000000   0.5000000   0.0000000  )
         3           C   tau(   3) = (   0.0000000   0.5000000   0.5000000  )
         4           C   tau(   4) = (   0.5000000   0.0000000   0.5000000  )
         5           C   tau(   5) = (   0.2500000   0.2500000   0.2500000  )
         6           C   tau(   6) = (   0.7500000   0.7500000   0.2500000  )
         7           C   tau(   7) = (   0.2500000   0.7500000   0.7500000  )
         8           C   tau(   8) = (   0.7500000   0.2500000   0.7500000  )

   Crystallographic axes

     site n.     atom                  positions (cryst. coord.)
         1           C   tau(   1) = (  0.0000000  0.0000000  0.0000000  )
         2           C   tau(   2) = (  0.5000000  0.5000000  0.0000000  )
         3           C   tau(   3) = (  0.0000000  0.5000000  0.5000000  )
         4           C   tau(   4) = (  0.5000000  0.0000000  0.5000000  )
         5           C   tau(   5) = (  0.2500000  0.2500000  0.2500000  )
         6           C   tau(   6) = (  0.7500000  0.7500000  0.2500000  )
         7           C   tau(   7) = (  0.2500000  0.7500000  0.7500000  )
         8           C   tau(   8) = (  0.7500000  0.2500000  0.7500000  )

     number of k points=   120  Marzari-Vanderbilt smearing, width (Ry)=  0.0200
                       cart. coord. in units 2pi/alat
        k(    1) = (   0.0000000   0.0000000   0.0000000), wk =   0.0005926
        k(    2) = (   0.0000000   0.0000000   0.0666667), wk =   0.0035556
        k(    3) = (   0.0000000   0.0000000   0.1333333), wk =   0.0035556
        k(    4) = (   0.0000000   0.0000000   0.2000000), wk =   0.0035556
        k(    5) = (   0.0000000   0.0000000   0.2666667), wk =   0.0035556
        k(    6) = (   0.0000000   0.0000000   0.3333333), wk =   0.0035556
        k(    7) = (   0.0000000   0.0000000   0.4000000), wk =   0.0035556
        k(    8) = (   0.0000000   0.0000000   0.4666667), wk =   0.0035556
        k(    9) = (   0.0000000   0.0666667   0.0666667), wk =   0.0071111
        k(   10) = (   0.0000000   0.0666667   0.1333333), wk =   0.0142222
        k(   11) = (   0.0000000   0.0666667   0.2000000), wk =   0.0142222
        k(   12) = (   0.0000000   0.0666667   0.2666667), wk =   0.0142222
        k(   13) = (   0.0000000   0.0666667   0.3333333), wk =   0.0142222
        k(   14) = (   0.0000000   0.0666667   0.4000000), wk =   0.0142222
        k(   15) = (   0.0000000   0.0666667   0.4666667), wk =   0.0142222
        k(   16) = (   0.0000000   0.1333333   0.1333333), wk =   0.0071111
        k(   17) = (   0.0000000   0.1333333   0.2000000), wk =   0.0142222
        k(   18) = (   0.0000000   0.1333333   0.2666667), wk =   0.0142222
        k(   19) = (   0.0000000   0.1333333   0.3333333), wk =   0.0142222
        k(   20) = (   0.0000000   0.1333333   0.4000000), wk =   0.0142222
        k(   21) = (   0.0000000   0.1333333   0.4666667), wk =   0.0142222
        k(   22) = (   0.0000000   0.2000000   0.2000000), wk =   0.0071111
        k(   23) = (   0.0000000   0.2000000   0.2666667), wk =   0.0142222
        k(   24) = (   0.0000000   0.2000000   0.3333333), wk =   0.0142222
        k(   25) = (   0.0000000   0.2000000   0.4000000), wk =   0.0142222
        k(   26) = (   0.0000000   0.2000000   0.4666667), wk =   0.0142222
        k(   27) = (   0.0000000   0.2666667   0.2666667), wk =   0.0071111
        k(   28) = (   0.0000000   0.2666667   0.3333333), wk =   0.0142222
        k(   29) = (   0.0000000   0.2666667   0.4000000), wk =   0.0142222
        k(   30) = (   0.0000000   0.2666667   0.4666667), wk =   0.0142222
        k(   31) = (   0.0000000   0.3333333   0.3333333), wk =   0.0071111
        k(   32) = (   0.0000000   0.3333333   0.4000000), wk =   0.0142222
        k(   33) = (   0.0000000   0.3333333   0.4666667), wk =   0.0142222
        k(   34) = (   0.0000000   0.4000000   0.4000000), wk =   0.0071111
        k(   35) = (   0.0000000   0.4000000   0.4666667), wk =   0.0142222
        k(   36) = (   0.0000000   0.4666667   0.4666667), wk =   0.0071111
        k(   37) = (   0.0666667   0.0666667   0.0666667), wk =   0.0047407
        k(   38) = (   0.0666667   0.0666667   0.1333333), wk =   0.0142222
        k(   39) = (   0.0666667   0.0666667   0.2000000), wk =   0.0142222
        k(   40) = (   0.0666667   0.0666667   0.2666667), wk =   0.0142222
        k(   41) = (   0.0666667   0.0666667   0.3333333), wk =   0.0142222
        k(   42) = (   0.0666667   0.0666667   0.4000000), wk =   0.0142222
        k(   43) = (   0.0666667   0.0666667   0.4666667), wk =   0.0142222
        k(   44) = (   0.0666667   0.1333333   0.1333333), wk =   0.0142222
        k(   45) = (   0.0666667   0.1333333   0.2000000), wk =   0.0284444
        k(   46) = (   0.0666667   0.1333333   0.2666667), wk =   0.0284444
        k(   47) = (   0.0666667   0.1333333   0.3333333), wk =   0.0284444
        k(   48) = (   0.0666667   0.1333333   0.4000000), wk =   0.0284444
        k(   49) = (   0.0666667   0.1333333   0.4666667), wk =   0.0284444
        k(   50) = (   0.0666667   0.2000000   0.2000000), wk =   0.0142222
        k(   51) = (   0.0666667   0.2000000   0.2666667), wk =   0.0284444
        k(   52) = (   0.0666667   0.2000000   0.3333333), wk =   0.0284444
        k(   53) = (   0.0666667   0.2000000   0.4000000), wk =   0.0284444
        k(   54) = (   0.0666667   0.2000000   0.4666667), wk =   0.0284444
        k(   55) = (   0.0666667   0.2666667   0.2666667), wk =   0.0142222
        k(   56) = (   0.0666667   0.2666667   0.3333333), wk =   0.0284444
        k(   57) = (   0.0666667   0.2666667   0.4000000), wk =   0.0284444
        k(   58) = (   0.0666667   0.2666667   0.4666667), wk =   0.0284444
        k(   59) = (   0.0666667   0.3333333   0.3333333), wk =   0.0142222
        k(   60) = (   0.0666667   0.3333333   0.4000000), wk =   0.0284444
        k(   61) = (   0.0666667   0.3333333   0.4666667), wk =   0.0284444
        k(   62) = (   0.0666667   0.4000000   0.4000000), wk =   0.0142222
        k(   63) = (   0.0666667   0.4000000   0.4666667), wk =   0.0284444
        k(   64) = (   0.0666667   0.4666667   0.4666667), wk =   0.0142222
        k(   65) = (   0.1333333   0.1333333   0.1333333), wk =   0.0047407
        k(   66) = (   0.1333333   0.1333333   0.2000000), wk =   0.0142222
        k(   67) = (   0.1333333   0.1333333   0.2666667), wk =   0.0142222
        k(   68) = (   0.1333333   0.1333333   0.3333333), wk =   0.0142222
        k(   69) = (   0.1333333   0.1333333   0.4000000), wk =   0.0142222
        k(   70) = (   0.1333333   0.1333333   0.4666667), wk =   0.0142222
        k(   71) = (   0.1333333   0.2000000   0.2000000), wk =   0.0142222
        k(   72) = (   0.1333333   0.2000000   0.2666667), wk =   0.0284444
        k(   73) = (   0.1333333   0.2000000   0.3333333), wk =   0.0284444
        k(   74) = (   0.1333333   0.2000000   0.4000000), wk =   0.0284444
        k(   75) = (   0.1333333   0.2000000   0.4666667), wk =   0.0284444
        k(   76) = (   0.1333333   0.2666667   0.2666667), wk =   0.0142222
        k(   77) = (   0.1333333   0.2666667   0.3333333), wk =   0.0284444
        k(   78) = (   0.1333333   0.2666667   0.4000000), wk =   0.0284444
        k(   79) = (   0.1333333   0.2666667   0.4666667), wk =   0.0284444
        k(   80) = (   0.1333333   0.3333333   0.3333333), wk =   0.0142222
        k(   81) = (   0.1333333   0.3333333   0.4000000), wk =   0.0284444
        k(   82) = (   0.1333333   0.3333333   0.4666667), wk =   0.0284444
        k(   83) = (   0.1333333   0.4000000   0.4000000), wk =   0.0142222
        k(   84) = (   0.1333333   0.4000000   0.4666667), wk =   0.0284444
        k(   85) = (   0.1333333   0.4666667   0.4666667), wk =   0.0142222
        k(   86) = (   0.2000000   0.2000000   0.2000000), wk =   0.0047407
        k(   87) = (   0.2000000   0.2000000   0.2666667), wk =   0.0142222
        k(   88) = (   0.2000000   0.2000000   0.3333333), wk =   0.0142222
        k(   89) = (   0.2000000   0.2000000   0.4000000), wk =   0.0142222
        k(   90) = (   0.2000000   0.2000000   0.4666667), wk =   0.0142222
        k(   91) = (   0.2000000   0.2666667   0.2666667), wk =   0.0142222
        k(   92) = (   0.2000000   0.2666667   0.3333333), wk =   0.0284444
        k(   93) = (   0.2000000   0.2666667   0.4000000), wk =   0.0284444
        k(   94) = (   0.2000000   0.2666667   0.4666667), wk =   0.0284444
        k(   95) = (   0.2000000   0.3333333   0.3333333), wk =   0.0142222
        k(   96) = (   0.2000000   0.3333333   0.4000000), wk =   0.0284444
        k(   97) = (   0.2000000   0.3333333   0.4666667), wk =   0.0284444
        k(   98) = (   0.2000000   0.4000000   0.4000000), wk =   0.0142222
        k(   99) = (   0.2000000   0.4000000   0.4666667), wk =   0.0284444
        k(  100) = (   0.2000000   0.4666667   0.4666667), wk =   0.0142222
        k(  101) = (   0.2666667   0.2666667   0.2666667), wk =   0.0047407
        k(  102) = (   0.2666667   0.2666667   0.3333333), wk =   0.0142222
        k(  103) = (   0.2666667   0.2666667   0.4000000), wk =   0.0142222
        k(  104) = (   0.2666667   0.2666667   0.4666667), wk =   0.0142222
        k(  105) = (   0.2666667   0.3333333   0.3333333), wk =   0.0142222
        k(  106) = (   0.2666667   0.3333333   0.4000000), wk =   0.0284444
        k(  107) = (   0.2666667   0.3333333   0.4666667), wk =   0.0284444
        k(  108) = (   0.2666667   0.4000000   0.4000000), wk =   0.0142222
        k(  109) = (   0.2666667   0.4000000   0.4666667), wk =   0.0284444
        k(  110) = (   0.2666667   0.4666667   0.4666667), wk =   0.0142222
        k(  111) = (   0.3333333   0.3333333   0.3333333), wk =   0.0047407
        k(  112) = (   0.3333333   0.3333333   0.4000000), wk =   0.0142222
        k(  113) = (   0.3333333   0.3333333   0.4666667), wk =   0.0142222
        k(  114) = (   0.3333333   0.4000000   0.4000000), wk =   0.0142222
        k(  115) = (   0.3333333   0.4000000   0.4666667), wk =   0.0284444
        k(  116) = (   0.3333333   0.4666667   0.4666667), wk =   0.0142222
        k(  117) = (   0.4000000   0.4000000   0.4000000), wk =   0.0047407
        k(  118) = (   0.4000000   0.4000000   0.4666667), wk =   0.0142222
        k(  119) = (   0.4000000   0.4666667   0.4666667), wk =   0.0142222
        k(  120) = (   0.4666667   0.4666667   0.4666667), wk =   0.0047407

                       cryst. coord.
        k(    1) = (   0.0000000   0.0000000   0.0000000), wk =   0.0005926
        k(    2) = (   0.0000000   0.0000000   0.0666667), wk =   0.0035556
        k(    3) = (   0.0000000   0.0000000   0.1333333), wk =   0.0035556
        k(    4) = (   0.0000000   0.0000000   0.2000000), wk =   0.0035556
        k(    5) = (   0.0000000   0.0000000   0.2666667), wk =   0.0035556
        k(    6) = (   0.0000000   0.0000000   0.3333333), wk =   0.0035556
        k(    7) = (   0.0000000   0.0000000   0.4000000), wk =   0.0035556
        k(    8) = (   0.0000000   0.0000000   0.4666667), wk =   0.0035556
        k(    9) = (   0.0000000   0.0666667   0.0666667), wk =   0.0071111
        k(   10) = (   0.0000000   0.0666667   0.1333333), wk =   0.0142222
        k(   11) = (   0.0000000   0.0666667   0.2000000), wk =   0.0142222
        k(   12) = (   0.0000000   0.0666667   0.2666667), wk =   0.0142222
        k(   13) = (   0.0000000   0.0666667   0.3333333), wk =   0.0142222
        k(   14) = (   0.0000000   0.0666667   0.4000000), wk =   0.0142222
        k(   15) = (   0.0000000   0.0666667   0.4666667), wk =   0.0142222
        k(   16) = (   0.0000000   0.1333333   0.1333333), wk =   0.0071111
        k(   17) = (   0.0000000   0.1333333   0.2000000), wk =   0.0142222
        k(   18) = (   0.0000000   0.1333333   0.2666667), wk =   0.0142222
        k(   19) = (   0.0000000   0.1333333   0.3333333), wk =   0.0142222
        k(   20) = (   0.0000000   0.1333333   0.4000000), wk =   0.0142222
        k(   21) = (   0.0000000   0.1333333   0.4666667), wk =   0.0142222
        k(   22) = (   0.0000000   0.2000000   0.2000000), wk =   0.0071111
        k(   23) = (   0.0000000   0.2000000   0.2666667), wk =   0.0142222
        k(   24) = (   0.0000000   0.2000000   0.3333333), wk =   0.0142222
        k(   25) = (   0.0000000   0.2000000   0.4000000), wk =   0.0142222
        k(   26) = (   0.0000000   0.2000000   0.4666667), wk =   0.0142222
        k(   27) = (   0.0000000   0.2666667   0.2666667), wk =   0.0071111
        k(   28) = (   0.0000000   0.2666667   0.3333333), wk =   0.0142222
        k(   29) = (   0.0000000   0.2666667   0.4000000), wk =   0.0142222
        k(   30) = (   0.0000000   0.2666667   0.4666667), wk =   0.0142222
        k(   31) = (   0.0000000   0.3333333   0.3333333), wk =   0.0071111
        k(   32) = (   0.0000000   0.3333333   0.4000000), wk =   0.0142222
        k(   33) = (   0.0000000   0.3333333   0.4666667), wk =   0.0142222
        k(   34) = (   0.0000000   0.4000000   0.4000000), wk =   0.0071111
        k(   35) = (   0.0000000   0.4000000   0.4666667), wk =   0.0142222
        k(   36) = (   0.0000000   0.4666667   0.4666667), wk =   0.0071111
        k(   37) = (   0.0666667   0.0666667   0.0666667), wk =   0.0047407
        k(   38) = (   0.0666667   0.0666667   0.1333333), wk =   0.0142222
        k(   39) = (   0.0666667   0.0666667   0.2000000), wk =   0.0142222
        k(   40) = (   0.0666667   0.0666667   0.2666667), wk =   0.0142222
        k(   41) = (   0.0666667   0.0666667   0.3333333), wk =   0.0142222
        k(   42) = (   0.0666667   0.0666667   0.4000000), wk =   0.0142222
        k(   43) = (   0.0666667   0.0666667   0.4666667), wk =   0.0142222
        k(   44) = (   0.0666667   0.1333333   0.1333333), wk =   0.0142222
        k(   45) = (   0.0666667   0.1333333   0.2000000), wk =   0.0284444
        k(   46) = (   0.0666667   0.1333333   0.2666667), wk =   0.0284444
        k(   47) = (   0.0666667   0.1333333   0.3333333), wk =   0.0284444
        k(   48) = (   0.0666667   0.1333333   0.4000000), wk =   0.0284444
        k(   49) = (   0.0666667   0.1333333   0.4666667), wk =   0.0284444
        k(   50) = (   0.0666667   0.2000000   0.2000000), wk =   0.0142222
        k(   51) = (   0.0666667   0.2000000   0.2666667), wk =   0.0284444
        k(   52) = (   0.0666667   0.2000000   0.3333333), wk =   0.0284444
        k(   53) = (   0.0666667   0.2000000   0.4000000), wk =   0.0284444
        k(   54) = (   0.0666667   0.2000000   0.4666667), wk =   0.0284444
        k(   55) = (   0.0666667   0.2666667   0.2666667), wk =   0.0142222
        k(   56) = (   0.0666667   0.2666667   0.3333333), wk =   0.0284444
        k(   57) = (   0.0666667   0.2666667   0.4000000), wk =   0.0284444
        k(   58) = (   0.0666667   0.2666667   0.4666667), wk =   0.0284444
        k(   59) = (   0.0666667   0.3333333   0.3333333), wk =   0.0142222
        k(   60) = (   0.0666667   0.3333333   0.4000000), wk =   0.0284444
        k(   61) = (   0.0666667   0.3333333   0.4666667), wk =   0.0284444
        k(   62) = (   0.0666667   0.4000000   0.4000000), wk =   0.0142222
        k(   63) = (   0.0666667   0.4000000   0.4666667), wk =   0.0284444
        k(   64) = (   0.0666667   0.4666667   0.4666667), wk =   0.0142222
        k(   65) = (   0.1333333   0.1333333   0.1333333), wk =   0.0047407
        k(   66) = (   0.1333333   0.1333333   0.2000000), wk =   0.0142222
        k(   67) = (   0.1333333   0.1333333   0.2666667), wk =   0.0142222
        k(   68) = (   0.1333333   0.1333333   0.3333333), wk =   0.0142222
        k(   69) = (   0.1333333   0.1333333   0.4000000), wk =   0.0142222
        k(   70) = (   0.1333333   0.1333333   0.4666667), wk =   0.0142222
        k(   71) = (   0.1333333   0.2000000   0.2000000), wk =   0.0142222
        k(   72) = (   0.1333333   0.2000000   0.2666667), wk =   0.0284444
        k(   73) = (   0.1333333   0.2000000   0.3333333), wk =   0.0284444
        k(   74) = (   0.1333333   0.2000000   0.4000000), wk =   0.0284444
        k(   75) = (   0.1333333   0.2000000   0.4666667), wk =   0.0284444
        k(   76) = (   0.1333333   0.2666667   0.2666667), wk =   0.0142222
        k(   77) = (   0.1333333   0.2666667   0.3333333), wk =   0.0284444
        k(   78) = (   0.1333333   0.2666667   0.4000000), wk =   0.0284444
        k(   79) = (   0.1333333   0.2666667   0.4666667), wk =   0.0284444
        k(   80) = (   0.1333333   0.3333333   0.3333333), wk =   0.0142222
        k(   81) = (   0.1333333   0.3333333   0.4000000), wk =   0.0284444
        k(   82) = (   0.1333333   0.3333333   0.4666667), wk =   0.0284444
        k(   83) = (   0.1333333   0.4000000   0.4000000), wk =   0.0142222
        k(   84) = (   0.1333333   0.4000000   0.4666667), wk =   0.0284444
        k(   85) = (   0.1333333   0.4666667   0.4666667), wk =   0.0142222
        k(   86) = (   0.2000000   0.2000000   0.2000000), wk =   0.0047407
        k(   87) = (   0.2000000   0.2000000   0.2666667), wk =   0.0142222
        k(   88) = (   0.2000000   0.2000000   0.3333333), wk =   0.0142222
        k(   89) = (   0.2000000   0.2000000   0.4000000), wk =   0.0142222
        k(   90) = (   0.2000000   0.2000000   0.4666667), wk =   0.0142222
        k(   91) = (   0.2000000   0.2666667   0.2666667), wk =   0.0142222
        k(   92) = (   0.2000000   0.2666667   0.3333333), wk =   0.0284444
        k(   93) = (   0.2000000   0.2666667   0.4000000), wk =   0.0284444
        k(   94) = (   0.2000000   0.2666667   0.4666667), wk =   0.0284444
        k(   95) = (   0.2000000   0.3333333   0.3333333), wk =   0.0142222
        k(   96) = (   0.2000000   0.3333333   0.4000000), wk =   0.0284444
        k(   97) = (   0.2000000   0.3333333   0.4666667), wk =   0.0284444
        k(   98) = (   0.2000000   0.4000000   0.4000000), wk =   0.0142222
        k(   99) = (   0.2000000   0.4000000   0.4666667), wk =   0.0284444
        k(  100) = (   0.2000000   0.4666667   0.4666667), wk =   0.0142222
        k(  101) = (   0.2666667   0.2666667   0.2666667), wk =   0.0047407
        k(  102) = (   0.2666667   0.2666667   0.3333333), wk =   0.0142222
        k(  103) = (   0.2666667   0.2666667   0.4000000), wk =   0.0142222
        k(  104) = (   0.2666667   0.2666667   0.4666667), wk =   0.0142222
        k(  105) = (   0.2666667   0.3333333   0.3333333), wk =   0.0142222
        k(  106) = (   0.2666667   0.3333333   0.4000000), wk =   0.0284444
        k(  107) = (   0.2666667   0.3333333   0.4666667), wk =   0.0284444
        k(  108) = (   0.2666667   0.4000000   0.4000000), wk =   0.0142222
        k(  109) = (   0.2666667   0.4000000   0.4666667), wk =   0.0284444
        k(  110) = (   0.2666667   0.4666667   0.4666667), wk =   0.0142222
        k(  111) = (   0.3333333   0.3333333   0.3333333), wk =   0.0047407
        k(  112) = (   0.3333333   0.3333333   0.4000000), wk =   0.0142222
        k(  113) = (   0.3333333   0.3333333   0.4666667), wk =   0.0142222
        k(  114) = (   0.3333333   0.4000000   0.4000000), wk =   0.0142222
        k(  115) = (   0.3333333   0.4000000   0.4666667), wk =   0.0284444
        k(  116) = (   0.3333333   0.4666667   0.4666667), wk =   0.0142222
        k(  117) = (   0.4000000   0.4000000   0.4000000), wk =   0.0047407
        k(  118) = (   0.4000000   0.4000000   0.4666667), wk =   0.0142222
        k(  119) = (   0.4000000   0.4666667   0.4666667), wk =   0.0142222
        k(  120) = (   0.4666667   0.4666667   0.4666667), wk =   0.0047407

     Dense  grid:    68507 G-vectors     FFT dimensions: (  54,  54,  54)

     Smooth grid:    29423 G-vectors     FFT dimensions: (  40,  40,  40)

     Dynamical RAM for                 wfc:       0.19 MB

     Dynamical RAM for     wfc (w. buffer):      22.75 MB

     Dynamical RAM for           str. fact:       0.17 MB

     Dynamical RAM for           local pot:       0.00 MB

     Dynamical RAM for          nlocal pot:       0.60 MB

     Dynamical RAM for                qrad:       0.58 MB

     Dynamical RAM for          rho,v,vnew:       1.12 MB

     Dynamical RAM for               rhoin:       0.37 MB

     Dynamical RAM for            rho*nmix:       2.79 MB

     Dynamical RAM for           G-vectors:       0.69 MB

     Dynamical RAM for          h,s,v(r/c):       0.29 MB

     Dynamical RAM for          <psi|beta>:       0.02 MB

     Dynamical RAM for                 psi:       0.75 MB

     Dynamical RAM for                hpsi:       0.75 MB

     Dynamical RAM for                spsi:       0.75 MB

     Dynamical RAM for      wfcinit/wfcrot:       0.63 MB

     Dynamical RAM for           addusdens:       8.89 MB

     Estimated static dynamical RAM per process >      30.43 MB

     Estimated max dynamical RAM per process >      39.32 MB

     Estimated total dynamical RAM >     235.91 MB

     Check: negative core charge=   -0.000003

     Initial potential from superposition of free atoms

     starting charge   31.99967, renormalised to   32.00000
     Starting wfcs are   32 randomized atomic wfcs

     total cpu time spent up to now is        3.5 secs

     Self-consistent Calculation

     iteration #  1     ecut=    80.00 Ry     beta= 0.70
     Davidson diagonalization with overlap
     ethr =  1.00E-02,  avg # of iterations =  2.7

     total cpu time spent up to now is       10.6 secs

     total energy              =     -99.31590492 Ry
     Harris-Foulkes estimate   =     -99.52683478 Ry
     estimated scf accuracy    <       0.47319315 Ry

     iteration #  2     ecut=    80.00 Ry     beta= 0.70
     Davidson diagonalization with overlap
     ethr =  1.48E-03,  avg # of iterations =  1.3

     total cpu time spent up to now is       15.4 secs

     total energy              =     -99.35010964 Ry
     Harris-Foulkes estimate   =     -99.35072597 Ry
     estimated scf accuracy    <       0.00960733 Ry

     iteration #  3     ecut=    80.00 Ry     beta= 0.70
     Davidson diagonalization with overlap
     ethr =  3.00E-05,  avg # of iterations =  6.9

     total cpu time spent up to now is       23.6 secs

     total energy              =     -99.35149100 Ry
     Harris-Foulkes estimate   =     -99.35143205 Ry
     estimated scf accuracy    <       0.00026553 Ry

     iteration #  4     ecut=    80.00 Ry     beta= 0.70
     Davidson diagonalization with overlap
     ethr =  8.30E-07,  avg # of iterations =  3.7

     total cpu time spent up to now is       30.0 secs

     total energy              =     -99.35165529 Ry
     Harris-Foulkes estimate   =     -99.35165627 Ry
     estimated scf accuracy    <       0.00000433 Ry

     iteration #  5     ecut=    80.00 Ry     beta= 0.70
     Davidson diagonalization with overlap
     ethr =  1.35E-08,  avg # of iterations =  2.4

     total cpu time spent up to now is       36.6 secs

     End of self-consistent calculation

          k = 0.0000 0.0000 0.0000 (  3743 PWs)   bands (ev):

    -8.1254   0.5841   0.5841   0.5841   0.5841   0.5841   0.5841   7.0362
     7.0362   7.0362   7.0362   7.0362   7.0362  13.3426  13.3426  13.3426
    18.1425  18.1425  18.1425  18.1425

     occupation numbers 
     1.0000   1.0000   1.0000   1.0000   1.0000   1.0000   1.0000   1.0000
     1.0000   1.0000   1.0000   1.0000   1.0000   1.0000   1.0000   1.0000
     0.0000   0.0000   0.0000   0.0000

          k = 0.0000 0.0000 0.0667 (  3743 PWs)   bands (ev):

    -8.0843  -0.4623   0.6104   0.6104   0.6104   0.6104   1.6693   6.9449
     6.9449   6.9449   6.9449   7.0763   7.0763  13.1712  13.1712  13.2412
    17.8594  18.3118  18.3118  18.3118

     occupation numbers 
     1.0000   1.0000   1.0000   1.0000   1.0000   1.0000   1.0000   1.0000
     1.0000   1.0000   1.0000   1.0000   1.0000   1.0000   1.0000   1.0000
     0.0000   0.0000   0.0000   0.0000

          k = 0.0000 0.0000 0.1333 (  3747 PWs)   bands (ev):

    -7.9614  -1.4612   0.6875   0.6875   0.6875   0.6875   2.7830   6.6919
     6.6919   6.6919   6.6919   7.1965   7.1965  12.7220  12.7220  12.9448
    17.6643  18.7987  18.7987  18.8252

     occupation numbers 
     1.0000   1.0000   1.0000   1.0000   1.0000   1.0000   1.0000   1.0000
     1.0000   1.0000   1.0000   1.0000   1.0000   1.0000   1.0000   1.0000
     0.0000   0.0000   0.0000   0.0000

          k = 0.0000 0.0000 0.2000 (  3715 PWs)   bands (ev):

    -7.7567  -2.4054   0.8090   0.8090   0.8090   0.8090   3.9133   6.3290
     6.3290   6.3290   6.3290   7.3958   7.3958  12.1162  12.1162  12.4732
    17.5494  18.6796  19.5513  19.5513

     occupation numbers 
     1.0000   1.0000   1.0000   1.0000   1.0000   1.0000   1.0000   1.0000
     1.0000   1.0000   1.0000   1.0000   1.0000   1.0000   1.0000   1.0000
     0.0000   0.0000   0.0000   0.0000

          k = 0.0000 0.0000 0.2667 (  3703 PWs)   bands (ev):

    -7.4708  -3.2889   0.9629   0.9629   0.9630   0.9630   5.0469   5.9198
     5.9198   5.9198   5.9198   7.6729   7.6729  11.4468  11.4468  11.8520
    17.5072  18.4978  20.3039  20.5061

     occupation numbers 
     1.0000   1.0000   1.0000   1.0000   1.0000   1.0000   1.0000   1.0000
     1.0000   1.0000   1.0000   1.0000   1.0000   1.0000   1.0000   1.0000
     0.0000   0.0000   0.0000   0.0000

          k = 0.0000 0.0000 0.3333 (  3683 PWs)   bands (ev):

    -7.1043  -4.1070   1.1289   1.1289   1.1289   1.1290   5.5277   5.5277
     5.5277   5.5277   6.1697   8.0258   8.0258  10.7690  10.7690  11.1064
    17.5299  18.2967  21.1296  21.5983

     occupation numbers 
     1.0000   1.0000   1.0000   1.0000   1.0000   1.0000   1.0000   1.0000
     1.0000   1.0000   1.0000   1.0000   1.0000   1.0000   1.0000   1.0000
     0.0000   0.0000   0.0000   0.0000

          k = 0.0000 0.0000 0.4000 (  3707 PWs)   bands (ev):

    -6.6582  -4.8558   1.2758   1.2758   1.2759   1.2759   5.2145   5.2145
     5.2145   5.2145   7.2667   8.4514   8.4514  10.1146  10.1146  10.2581
    17.6095  18.0930  22.0667  22.7519

     occupation numbers 
     1.0000   1.0000   1.0000   1.0000   1.0000   1.0000   1.0000   1.0000
     1.0000   1.0000   1.0000   1.0000   1.0000   1.0000   1.0000   1.0000
     0.0000   0.0000   0.0000   0.0000

          k = 0.0000 0.0000 0.4667 (  3708 PWs)   bands (ev):

    -6.1336  -5.5322   1.3647   1.3647   1.3647   1.3648   5.0381   5.0381
     5.0381   5.0381   8.3233   8.9456   8.9456   9.3252   9.5028   9.5028
    17.7368  17.9019  23.0963  23.7800

     occupation numbers 
     1.0000   1.0000   1.0000   1.0000   1.0000   1.0000   1.0000   1.0000
     1.0000   1.0000   1.0000   1.0000   1.0000   1.0000   1.0000   1.0000
     0.0000   0.0000   0.0000   0.0000

          k = 0.0000 0.0667 0.0667 (  3739 PWs)   bands (ev):

    -8.0433  -0.4317  -0.4317   0.6142   0.6577   1.6892   1.6892   6.6221
     6.9783   6.9783   6.9940   6.9940   7.1050  12.8721  13.0041  13.2920
    18.0321  18.0321  18.2092  18.6864

     occupation numbers 
     1.0000   1.0000   1.0000   1.0000   1.0000   1.0000   1.0000   1.0000
     1.0000   1.0000   1.0000   1.0000   1.0000   1.0000   1.0000   1.0000
     0.0000   0.0000   0.0000   0.0000

          k = 0.0000 0.0667 0.1333 (  3740 PWs)   bands (ev):

    -7.9204  -1.4277  -0.3412   0.6633   0.7574   1.7460   2.7931   6.1876
     6.7058   6.7673   7.0825   7.0930   7.1265  12.3524  12.5641  13.1184
    17.8396  18.4436  18.5278  18.9899

     occupation numbers 
     1.0000   1.0000   1.0000   1.0000   1.0000   1.0000   1.0000   1.0000
     1.0000   1.0000   1.0000   1.0000   1.0000   1.0000   1.0000   1.0000
     0.0000   0.0000   0.0000   0.0000

          k = 0.0000 0.0667 0.2000 (  3716 PWs)   bands (ev):

    -7.7158  -2.3698  -0.1947   0.7461   0.9070   1.8297   3.9079   5.7055
     6.3119   6.4481   6.8995   7.2878   7.3440  11.7170  11.9675  12.7266
    17.7268  18.8511  18.9902  19.2925

     occupation numbers 
     1.0000   1.0000   1.0000   1.0000   1.0000   1.0000   1.0000   1.0000
     1.0000   1.0000   1.0000   1.0000   1.0000   1.0000   1.0000   1.0000
     0.0000   0.0000   0.0000   0.0000

          k = 0.0000 0.0667 0.2667 (  3714 PWs)   bands (ev):

    -7.4301  -3.2519   0.0001   0.8423   1.0999   1.9214   5.0157   5.2405
     5.8587   6.1033   6.6078   7.5610   7.6491  11.0259  11.3055  12.1644
    17.6861  18.6725  19.7936  20.2612

     occupation numbers 
     1.0000   1.0000   1.0000   1.0000   1.0000   1.0000   1.0000   1.0000
     1.0000   1.0000   1.0000   1.0000   1.0000   1.0000   1.0000   1.0000
     0.0000   0.0000   0.0000   0.0000

          k = 0.0000 0.0667 0.3333 (  3697 PWs)   bands (ev):

    -7.0638  -4.0689   0.2300   0.9200   1.3236   1.9919   4.8569   5.4044
     5.8028   6.0941   6.2699   7.9102   8.0480  10.3145  10.6337  11.4774
    17.7098  18.4736  20.7848  21.2697

     occupation numbers 
     1.0000   1.0000   1.0000   1.0000   1.0000   1.0000   1.0000   1.0000
     1.0000   1.0000   1.0000   1.0000   1.0000   1.0000   1.0000   1.0000
     0.0000   0.0000   0.0000   0.0000

          k = 0.0000 0.0667 0.4000 (  3689 PWs)   bands (ev):

    -6.6179  -4.8169   0.4738   0.9385   1.5579   2.0046   4.6167   5.0024
     5.6119   5.9474   7.1124   8.3323   8.5527   9.5944   9.9842  10.7105
    17.7898  18.2715  21.8892  22.1985

     occupation numbers 
     1.0000   1.0000   1.0000   1.0000   1.0000   1.0000   1.0000   1.0000
     1.0000   1.0000   1.0000   1.0000   1.0000   1.0000   1.0000   1.0000
     0.0000   0.0000   0.0000   0.0000

          k = 0.0000 0.0667 0.4667 (  3695 PWs)   bands (ev):

    -6.0937  -5.4927   0.6991   0.8649   1.7727   1.9313   4.5647   4.7052
     5.5754   5.6984   8.0350   8.8230   8.8496   9.1795   9.3765   9.9195
    17.9171  18.0815  22.9889  23.2189

     occupation numbers 
     1.0000   1.0000   1.0000   1.0000   1.0000   1.0000   1.0000   1.0000
     1.0000   1.0000   1.0000   1.0000   1.0000   1.0000   1.0000   1.0000
     0.0000   0.0000   0.0000   0.0000

          k = 0.0000 0.1333 0.1333 (  3723 PWs)   bands (ev):

    -7.7976  -1.3280  -1.3280   0.6737   0.8782   2.8187   2.8187   5.6334
     6.8055   6.8055   6.9371   6.9371   7.3092  11.7635  12.1442  13.1363
    18.3421  18.3422  18.4079  19.2852

     occupation numbers 
     1.0000   1.0000   1.0000   1.0000   1.0000   1.0000   1.0000   1.0000
     1.0000   1.0000   1.0000   1.0000   1.0000   1.0000   1.0000   1.0000
     0.0000   0.0000   0.0000   0.0000

          k = 0.0000 0.1333 0.2000 (  3712 PWs)   bands (ev):

    -7.5933  -2.2637  -1.1647   0.6987   1.0508   2.8441   3.8842   5.0948
     6.3886   6.6815   6.9880   7.2094   7.3538  11.0944  11.5681  12.9102
    18.2342  18.7045  19.1149  19.2858

     occupation numbers 
     1.0000   1.0000   1.0000   1.0000   1.0000   1.0000   1.0000   1.0000
     1.0000   1.0000   1.0000   1.0000   1.0000   1.0000   1.0000   1.0000
     0.0000   0.0000   0.0000   0.0000

          k = 0.0000 0.1333 0.2667 (  3698 PWs)   bands (ev):

    -7.3080  -3.1412  -0.9428   0.7062   1.2721   2.8429   4.6378   4.9145
     5.9045   6.4303   7.2387   7.2507   7.5967  10.3899  10.9233  12.4690
    18.1965  19.1433  19.3047  20.0922

     occupation numbers 
     1.0000   1.0000   1.0000   1.0000   1.0000   1.0000   1.0000   1.0000
     1.0000   1.0000   1.0000   1.0000   1.0000   1.0000   1.0000   1.0000
     0.0000   0.0000   0.0000   0.0000

          k = 0.0000 0.1333 0.3333 (  3697 PWs)   bands (ev):

    -6.9423  -3.9549  -0.6708   0.6538   1.5350   2.7817   4.3276   5.4083
     5.8764   6.2542   7.0154   7.5904   8.1146   9.6759  10.2654  11.8606
    18.2215  18.9611  20.1485  21.2135

     occupation numbers 
     1.0000   1.0000   1.0000   1.0000   1.0000   1.0000   1.0000   1.0000
     1.0000   1.0000   1.0000   1.0000   1.0000   1.0000   1.0000   1.0000
     0.0000   0.0000   0.0000   0.0000

          k = 0.0000 0.1333 0.4000 (  3687 PWs)   bands (ev):

    -6.4972  -4.7005  -0.3623   0.5068   1.8268   2.6363   4.2133   4.9468
     6.2035   6.7446   6.7448   8.0036   8.7683   8.9645   9.6274  11.1347
    18.3010  18.7692  21.1610  22.4243

     occupation numbers 
     1.0000   1.0000   1.0000   1.0000   1.0000   1.0000   1.0000   1.0000
     1.0000   1.0000   1.0000   1.0000   1.0000   1.0000   1.0000   1.0000
     0.0000   0.0000   0.0000   0.0000

          k = 0.0000 0.1333 0.4667 (  3686 PWs)   bands (ev):

    -5.9741  -5.3744  -0.0395   0.2644   2.1277   2.4091   4.3027   4.5631
     6.2891   6.4848   7.5256   8.2538   8.4855   9.0297   9.5298  10.3398
    18.4259  18.5860  22.2482  23.1884

     occupation numbers 
     1.0000   1.0000   1.0000   1.0000   1.0000   1.0000   1.0000   1.0000
     1.0000   1.0000   1.0000   1.0000   1.0000   1.0000   1.0000   1.0000
     0.0000   0.0000   0.0000   0.0000

          k = 0.0000 0.2000 0.2000 (  3709 PWs)   bands (ev):

    -7.3895  -2.0888  -2.0888   0.6348   1.2449   3.8214   3.8214   4.5640
     6.5533   6.5533   7.0462   7.0462   7.6430  10.4119  11.0137  12.8662
    18.7347  19.0118  19.0118  19.6977

     occupation numbers 
     1.0000   1.0000   1.0000   1.0000   1.0000   1.0000   1.0000   1.0000
     1.0000   1.0000   1.0000   1.0000   1.0000   1.0000   1.0000   1.0000
     0.0000   0.0000   0.0000   0.0000

          k = 0.0000 0.2000 0.2667 (  3696 PWs)   bands (ev):

    -7.1049  -2.9582  -1.8486   0.5113   1.4895   3.6917   4.1807   4.7274
     6.0465   6.8013   6.9215   7.5599   7.7503   9.7074  10.3877  12.5846
    18.9758  19.0887  19.7660  19.9922

     occupation numbers 
     1.0000   1.0000   1.0000   1.0000   1.0000   1.0000   1.0000   1.0000
     1.0000   1.0000   1.0000   1.0000   1.0000   1.0000   1.0000   1.0000
     0.0000   0.0000   0.0000   0.0000

          k = 0.0000 0.2000 0.3333 (  3701 PWs)   bands (ev):

    -6.7402  -3.7660  -1.5485   0.2916   1.7813   3.4767   3.9974   5.5214
     5.5413   6.8871   7.1285   7.6987   8.2238   9.0026   9.7453  12.0940
    18.9991  19.6555  19.7336  21.1146

     occupation numbers 
     1.0000   1.0000   1.0000   1.0000   1.0000   1.0000   1.0000   1.0000
     1.0000   1.0000   1.0000   1.0000   1.0000   1.0000   1.0000   1.0000
     0.0000   0.0000   0.0000   0.0000

          k = 0.0000 0.2000 0.4000 (  3687 PWs)   bands (ev):

    -6.2965  -4.5072  -1.1974  -0.0263   2.1125   3.1825   4.0254   5.0205
     6.2736   6.9586   7.5303   7.5382   8.3094   9.0047   9.1204  11.4403
    19.0736  19.4981  20.6047  22.3267

     occupation numbers 
     1.0000   1.0000   1.0000   1.0000   1.0000   1.0000   1.0000   1.0000
     1.0000   1.0000   1.0000   1.0000   1.0000   1.0000   1.0000   1.0000
     0.0000   0.0000   0.0000   0.0000

          k = 0.0000 0.2000 0.4667 (  3693 PWs)   bands (ev):

    -5.7752  -5.1780  -0.8097  -0.4079   2.4706   2.8363   4.2343   4.5796
     6.9587   7.1177   7.3265   7.6305   8.0012   8.5345   9.8423  10.6728
    19.1896  19.3359  21.6181  22.6443

     occupation numbers 
     1.0000   1.0000   1.0000   1.0000   1.0000   1.0000   1.0000   1.0000
     1.0000   1.0000   1.0000   1.0000   1.0000   1.0000   1.0000   1.0000
     0.0000   0.0000   0.0000   0.0000

          k = 0.0000 0.2667 0.2667 (  3714 PWs)   bands (ev):

    -6.8214  -2.7051  -2.7051   0.2198   1.7562   3.9247   4.4476   4.4476
     6.2772   6.2772   7.5790   7.5790   8.0956   9.0115   9.7782  12.4744
    19.1810  19.9541  19.9541  20.2683

     occupation numbers 
     1.0000   1.0000   1.0000   1.0000   1.0000   1.0000   1.0000   1.0000
     1.0000   1.0000   1.0000   1.0000   1.0000   1.0000   1.0000   1.0000
     0.0000   0.0000   0.0000   0.0000

          k = 0.0000 0.2667 0.3333 (  3695 PWs)   bands (ev):

    -6.4582  -3.5038  -2.3859  -0.1719   2.0719   3.8842   4.0890   5.1226
     5.7311   6.5902   7.6681   8.2590   8.3212   8.3683   9.1498  12.1364
    19.5845  19.9703  20.4114  21.0699

     occupation numbers 
     1.0000   1.0000   1.0000   1.0000   1.0000   1.0000   1.0000   1.0000
     1.0000   1.0000   1.0000   1.0000   1.0000   1.0000   1.0000   1.0000
     0.0000   0.0000   0.0000   0.0000

          k = 0.0000 0.2667 0.4000 (  3692 PWs)   bands (ev):

    -6.0165  -4.2385  -2.0064  -0.6296   2.4325   3.6803   4.0315   5.2033
     5.7518   6.9797   7.6484   7.8149   8.2633   8.5370   9.2277  11.5969
    20.0318  20.2614  20.3549  22.4229

     occupation numbers 
     1.0000   1.0000   1.0000   1.0000   1.0000   1.0000   1.0000   1.0000
     1.0000   1.0000   1.0000   1.0000   1.0000   1.0000   1.0000   1.0000
     0.0000   0.0000   0.0000   0.0000

          k = 0.0000 0.2667 0.4667 (  3692 PWs)   bands (ev):

    -5.4979  -4.9043  -1.5760  -1.1093   2.8302   3.2522   4.3242   4.7249
     6.3696   6.9983   7.4396   7.9621   7.9905   8.1559  10.0910  10.8985
    20.1276  20.2431  21.1422  22.1314

     occupation numbers 
     1.0000   1.0000   1.0000   1.0000   1.0000   1.0000   1.0000   1.0000
     1.0000   1.0000   1.0000   1.0000   1.0000   1.0000   1.0000   1.0000
     0.0000   0.0000   0.0000   0.0000

          k = 0.0000 0.3333 0.3333 (  3696 PWs)   bands (ev):

    -6.0971  -3.1712  -3.1712  -0.7036   2.4102   3.9630   4.6547   4.6547
     6.0282   6.0282   7.6488   8.5333   8.5349   8.5349   8.6511  11.9640
    19.7310  20.9897  21.0713  21.0713

     occupation numbers 
     1.0000   1.0000   1.0000   1.0000   1.0000   1.0000   1.0000   1.0000
     1.0000   1.0000   1.0000   1.0000   1.0000   1.0000   1.0000   1.0000
     0.0000   0.0000   0.0000   0.0000

          k = 0.0000 0.3333 0.4000 (  3695 PWs)   bands (ev):

    -5.6583  -3.8962  -2.7723  -1.2595   2.7953   4.1674   4.1936   5.2098
     5.4812   6.4049   6.9969   7.9311   8.7024   8.8607   9.4188  11.5754
    20.1706  21.1082  21.2088  22.1337

     occupation numbers 
     1.0000   1.0000   1.0000   1.0000   1.0000   1.0000   1.0000   1.0000
     1.0000   1.0000   1.0000   1.0000   1.0000   1.0000   1.0000   1.0000
     0.0000   0.0000   0.0000   0.0000

          k = 0.0000 0.3333 0.4667 (  3697 PWs)   bands (ev):

    -5.1435  -4.5551  -2.3133  -1.8040   3.2227   3.6842   4.5408   4.9776
     5.7783   6.3727   6.8538   7.3662   8.8406   8.9093  10.2571  10.9929
    20.8607  21.1659  21.2186  21.7279

     occupation numbers 
     1.0000   1.0000   1.0000   1.0000   1.0000   1.0000   1.0000   1.0000
     1.0000   1.0000   1.0000   1.0000   1.0000   1.0000   1.0000   1.0000
     0.0000   0.0000   0.0000   0.0000

          k = 0.0000 0.4000 0.4000 (  3690 PWs)   bands (ev):

    -5.2234  -3.4836  -3.4836  -1.8802   3.2036   4.4783   4.6696   4.6696
     5.8435   5.8435   6.3668   7.3386   9.2872   9.5557   9.5557  11.3539
    20.3556  21.8509  21.9523  22.2401

     occupation numbers 
     1.0000   1.0000   1.0000   1.0000   1.0000   1.0000   1.0000   1.0000
     1.0000   1.0000   1.0000   1.0000   1.0000   1.0000   1.0000   1.0000
     0.0000   0.0000   0.0000   0.0000

          k = 0.0000 0.4000 0.4667 (  3674 PWs)   bands (ev):

    -4.7139  -4.1327  -3.0050  -2.4672   3.6561   4.1476   4.8610   5.2008
     5.3220   5.7666   6.2807   6.7831   9.5293   9.6060  10.3151  10.9277
    20.8081  21.4823  21.9173  22.0398

     occupation numbers 
     1.0000   1.0000   1.0000   1.0000   1.0000   1.0000   1.0000   1.0000
     1.0000   1.0000   1.0000   1.0000   1.0000   1.0000   1.0000   1.0000
     0.0000   0.0000   0.0000   0.0000

          k = 0.0000 0.4667 0.4667 (  3678 PWs)   bands (ev):

    -4.2116  -3.6403  -3.6403  -3.0828   4.1323   4.6491   4.6491   5.1898
     5.2675   5.7458   5.7458   6.2372   9.9746  10.2315  10.2315  10.6772
    21.0019  21.4282  21.4282  21.5785

     occupation numbers 
     1.0000   1.0000   1.0000   1.0000   1.0000   1.0000   1.0000   1.0000
     1.0000   1.0000   1.0000   1.0000   1.0000   1.0000   1.0000   1.0000
     0.0000   0.0000   0.0000   0.0000

          k = 0.0667 0.0667 0.0667 (  3743 PWs)   bands (ev):

    -8.0023  -0.4018  -0.4018  -0.4018   1.7079   1.7079   1.7079   6.6671
     6.6671   6.6671   7.1448   7.1448   7.1448  12.5194  13.1288  13.1288
    18.1024  18.1024  18.1024  18.9355

     occupation numbers 
     1.0000   1.0000   1.0000   1.0000   1.0000   1.0000   1.0000   1.0000
     1.0000   1.0000   1.0000   1.0000   1.0000   1.0000   1.0000   1.0000
     0.0000   0.0000   0.0000   0.0000

          k = 0.0667 0.0667 0.1333 (  3735 PWs)   bands (ev):

    -7.8795  -1.3945  -0.3135  -0.3134   1.7603   1.7603   2.8003   6.2394
     6.2394   6.8033   7.1237   7.1237   7.2640  11.9509  12.6981  13.0491
    17.9553  18.3986  18.3986  19.1532

     occupation numbers 
     1.0000   1.0000   1.0000   1.0000   1.0000   1.0000   1.0000   1.0000
     1.0000   1.0000   1.0000   1.0000   1.0000   1.0000   1.0000   1.0000
     0.0000   0.0000   0.0000   0.0000

          k = 0.0667 0.0667 0.2000 (  3714 PWs)   bands (ev):

    -7.6750  -2.3345  -0.1717  -0.1717   1.8351   1.8351   3.8962   5.7674
     5.7674   6.9459   6.9459   7.0341   7.4617  11.2890  12.1117  12.7292
    17.8616  18.9711  18.9711  19.0128

     occupation numbers 
     1.0000   1.0000   1.0000   1.0000   1.0000   1.0000   1.0000   1.0000
     1.0000   1.0000   1.0000   1.0000   1.0000   1.0000   1.0000   1.0000
     0.0000   0.0000   0.0000   0.0000

          k = 0.0667 0.0667 0.2667 (  3708 PWs)   bands (ev):

    -7.3894  -3.2150   0.0134   0.0134   1.9119   1.9119   4.9717   5.3172
     5.3172   6.6655   6.6655   7.3677   7.7366  10.5864  11.4589  12.2132
    17.8317  18.8346  19.7868  19.7868

     occupation numbers 
     1.0000   1.0000   1.0000   1.0000   1.0000   1.0000   1.0000   1.0000
     1.0000   1.0000   1.0000   1.0000   1.0000   1.0000   1.0000   1.0000
     0.0000   0.0000   0.0000   0.0000

          k = 0.0667 0.0667 0.3333 (  3704 PWs)   bands (ev):

    -7.0233  -4.0309   0.2231   0.2231   1.9623   1.9623   4.9504   4.9504
     5.9931   6.3499   6.3499   7.8202   8.0863   9.8748  10.7946  11.5499
    17.8622  18.6362  20.7847  20.7848

     occupation numbers 
     1.0000   1.0000   1.0000   1.0000   1.0000   1.0000   1.0000   1.0000
     1.0000   1.0000   1.0000   1.0000   1.0000   1.0000   1.0000   1.0000
     0.0000   0.0000   0.0000   0.0000

          k = 0.0667 0.0667 0.4000 (  3693 PWs)   bands (ev):

    -6.5777  -4.7781   0.4227   0.4227   1.9660   1.9660   4.7121   4.7121
     6.0708   6.0708   6.9195   8.4136   8.5078   9.1684  10.1508  10.7844
    17.9467  18.4340  21.8906  21.8906

     occupation numbers 
     1.0000   1.0000   1.0000   1.0000   1.0000   1.0000   1.0000   1.0000
     1.0000   1.0000   1.0000   1.0000   1.0000   1.0000   1.0000   1.0000
     0.0000   0.0000   0.0000   0.0000

          k = 0.0667 0.0667 0.4667 (  3696 PWs)   bands (ev):

    -6.0538  -5.4533   0.5538   0.5538   1.9425   1.9425   4.6067   4.6067
     5.9024   5.9024   7.7314   8.4635   8.9969   9.1470   9.5474   9.9633
    18.0769  18.2432  22.9557  22.9558

     occupation numbers 
     1.0000   1.0000   1.0000   1.0000   1.0000   1.0000   1.0000   1.0000
     1.0000   1.0000   1.0000   1.0000   1.0000   1.0000   1.0000   1.0000
     0.0000   0.0000   0.0000   0.0000

          k = 0.0667 0.1333 0.1333 (  3713 PWs)   bands (ev):

    -7.7568  -1.2959  -1.2959  -0.2328   1.7981   2.8157   2.8157   5.6996
     6.3972   6.3972   7.2475   7.2475   7.3481  11.3328  12.4202  12.9959
    18.3179  18.3179  18.4057  19.4509

     occupation numbers 
     1.0000   1.0000   1.0000   1.0000   1.0000   1.0000   1.0000   1.0000
     1.0000   1.0000   1.0000   1.0000   1.0000   1.0000   1.0000   1.0000
     0.0000   0.0000   0.0000   0.0000

          k = 0.0667 0.1333 0.2000 (  3704 PWs)   bands (ev):

    -7.5526  -2.2290  -1.1350  -0.1077   1.8445   2.8198   3.8514   5.1852
     5.9573   6.6699   7.0879   7.3935   7.4555  10.6443  11.8807  12.8005
    18.2639  18.7171  18.9352  19.4270

     occupation numbers 
     1.0000   1.0000   1.0000   1.0000   1.0000   1.0000   1.0000   1.0000
     1.0000   1.0000   1.0000   1.0000   1.0000   1.0000   1.0000   1.0000
     0.0000   0.0000   0.0000   0.0000

          k = 0.0667 0.1333 0.2667 (  3700 PWs)   bands (ev):

    -7.2673  -3.1047  -0.9176   0.0427   1.8768   2.7800   4.7685   4.8293
     5.5484   6.8470   7.0708   7.2827   7.7533   9.9304  11.2541  12.3915
    18.2582  19.2747  19.3232  19.7770

     occupation numbers 
     1.0000   1.0000   1.0000   1.0000   1.0000   1.0000   1.0000   1.0000
     1.0000   1.0000   1.0000   1.0000   1.0000   1.0000   1.0000   1.0000
     0.0000   0.0000   0.0000   0.0000

          k = 0.0667 0.1333 0.3333 (  3696 PWs)   bands (ev):

    -6.9019  -3.9172  -0.6542   0.1794   1.8831   2.6623   4.5144   5.2136
     5.7085   6.6066   7.0684   7.6000   8.1600   9.2180  10.6052  11.8037
    18.3042  19.0874  20.1688  20.7890

     occupation numbers 
     1.0000   1.0000   1.0000   1.0000   1.0000   1.0000   1.0000   1.0000
     1.0000   1.0000   1.0000   1.0000   1.0000   1.0000   1.0000   1.0000
     0.0000   0.0000   0.0000   0.0000

          k = 0.0667 0.1333 0.4000 (  3691 PWs)   bands (ev):

    -6.4571  -4.6618  -0.3633   0.2344   1.9024   2.4608   4.4496   4.9500
     6.4540   6.4772   6.8146   8.1945   8.5212   8.7264   9.9672  11.0854
    18.3984  18.8909  21.1788  21.8971

     occupation numbers 
     1.0000   1.0000   1.0000   1.0000   1.0000   1.0000   1.0000   1.0000
     1.0000   1.0000   1.0000   1.0000   1.0000   1.0000   1.0000   1.0000
     0.0000   0.0000   0.0000   0.0000

          k = 0.0667 0.1333 0.4667 (  3688 PWs)   bands (ev):

    -5.9342  -5.3351  -0.0783   0.1438   2.0108   2.2187   4.5413   4.7252
     6.4489   6.5865   7.1720   7.8430   8.7740   9.3566   9.4686  10.2866
    18.5340  18.7019  22.2458  22.8239

     occupation numbers 
     1.0000   1.0000   1.0000   1.0000   1.0000   1.0000   1.0000   1.0000
     1.0000   1.0000   1.0000   1.0000   1.0000   1.0000   1.0000   1.0000
     0.0000   0.0000   0.0000   0.0000

          k = 0.0667 0.2000 0.2000 (  3715 PWs)   bands (ev):

    -7.3489  -2.0554  -2.0554  -0.0203   1.8403   3.7459   3.7459   4.7024
     6.2839   6.2839   7.3361   7.3361   7.6801   9.9429  11.3851  12.7576
    18.7579  18.9170  18.9170  19.8193

     occupation numbers 
     1.0000   1.0000   1.0000   1.0000   1.0000   1.0000   1.0000   1.0000
     1.0000   1.0000   1.0000   1.0000   1.0000   1.0000   1.0000   1.0000
     0.0000   0.0000   0.0000   0.0000

          k = 0.0667 0.2000 0.2667 (  3700 PWs)   bands (ev):

    -7.0644  -2.9224  -1.8175   0.0501   1.8143   3.5479   4.3934   4.5714
     5.9218   6.7407   7.1792   7.7158   7.7878   9.2263  10.7890  12.4964
    18.9354  19.1161  19.7828  19.8634

     occupation numbers 
     1.0000   1.0000   1.0000   1.0000   1.0000   1.0000   1.0000   1.0000
     1.0000   1.0000   1.0000   1.0000   1.0000   1.0000   1.0000   1.0000
     0.0000   0.0000   0.0000   0.0000

          k = 0.0667 0.2000 0.3333 (  3694 PWs)   bands (ev):

    -6.6999  -3.7287  -1.5218   0.0319   1.8124   3.2505   4.2961   5.2867
     5.5844   7.0754   7.2737   7.7395   8.2664   8.5187  10.1614  12.0247
    18.9961  19.7382  19.7616  20.8076

     occupation numbers 
     1.0000   1.0000   1.0000   1.0000   1.0000   1.0000   1.0000   1.0000
     1.0000   1.0000   1.0000   1.0000   1.0000   1.0000   1.0000   1.0000
     0.0000   0.0000   0.0000   0.0000

          k = 0.0667 0.2000 0.4000 (  3691 PWs)   bands (ev):

    -6.2565  -4.4689  -1.1790  -0.1386   1.9216   2.8858   4.3874   5.2478
     5.9289   7.0837   7.5859   7.8176   7.8339   8.9878   9.5380  11.3843
    19.0975  19.5695  20.6300  21.9129

     occupation numbers 
     1.0000   1.0000   1.0000   1.0000   1.0000   1.0000   1.0000   1.0000
     1.0000   1.0000   1.0000   1.0000   1.0000   1.0000   1.0000   1.0000
     0.0000   0.0000   0.0000   0.0000

          k = 0.0667 0.2000 0.4667 (  3695 PWs)   bands (ev):

    -5.7355  -5.1389  -0.8080  -0.4422   2.1671   2.5066   4.6113   4.9131
     6.5481   7.1780   7.2016   7.3871   8.3662   8.9375   9.8041  10.6256
    19.2335  19.3951  21.6312  22.5173

     occupation numbers 
     1.0000   1.0000   1.0000   1.0000   1.0000   1.0000   1.0000   1.0000
     1.0000   1.0000   1.0000   1.0000   1.0000   1.0000   1.0000   1.0000
     0.0000   0.0000   0.0000   0.0000

          k = 0.0667 0.2667 0.2667 (  3699 PWs)   bands (ev):

    -6.7810  -2.6708  -2.6708  -0.0366   1.7741   4.2029   4.2029   4.2396
     6.3828   6.3828   7.6999   7.6999   8.1300   8.5134  10.2190  12.4001
    19.2121  19.8173  19.8173  20.3390

     occupation numbers 
     1.0000   1.0000   1.0000   1.0000   1.0000   1.0000   1.0000   1.0000
     1.0000   1.0000   1.0000   1.0000   1.0000   1.0000   1.0000   1.0000
     0.0000   0.0000   0.0000   0.0000

          k = 0.0667 0.2667 0.3333 (  3697 PWs)   bands (ev):

    -6.4181  -3.4674  -2.3539  -0.2811   1.8489   3.7593   4.2897   4.7823
     5.9904   6.8664   7.7541   7.8140   8.2930   8.4066   9.6134  12.0787
    19.6162  19.8853  20.4569  20.8484

     occupation numbers 
     1.0000   1.0000   1.0000   1.0000   1.0000   1.0000   1.0000   1.0000
     1.0000   1.0000   1.0000   1.0000   1.0000   1.0000   1.0000   1.0000
     0.0000   0.0000   0.0000   0.0000

          k = 0.0667 0.2667 0.4000 (  3690 PWs)   bands (ev):

    -5.9767  -4.2007  -1.9787  -0.6618   2.0712   3.2866   4.4915   5.3381
     5.5765   7.1422   7.3593   7.8773   8.2992   9.0090   9.2271  11.5533
    19.9851  20.2910  20.3800  21.9403

     occupation numbers 
     1.0000   1.0000   1.0000   1.0000   1.0000   1.0000   1.0000   1.0000
     1.0000   1.0000   1.0000   1.0000   1.0000   1.0000   1.0000   1.0000
     0.0000   0.0000   0.0000   0.0000

          k = 0.0667 0.2667 0.4667 (  3692 PWs)   bands (ev):

    -5.4586  -4.8656  -1.5564  -1.1062   2.4095   2.8255   4.7966   5.1685
     5.9065   6.5059   7.8763   8.0390   8.1963   8.4265  10.0716  10.8669
    20.1101  20.2487  21.1639  22.1003

     occupation numbers 
     1.0000   1.0000   1.0000   1.0000   1.0000   1.0000   1.0000   1.0000
     1.0000   1.0000   1.0000   1.0000   1.0000   1.0000   1.0000   1.0000
     0.0000   0.0000   0.0000   0.0000

          k = 0.0667 0.3333 0.3333 (  3696 PWs)   bands (ev):

    -6.0573  -3.1362  -3.1362  -0.7352   2.0315   4.2428   4.2428   4.4457
     6.4120   6.4120   7.1254   8.5694   8.5694   8.6813   9.0281  11.9211
    19.7639  20.9135  20.9136  21.0095

     occupation numbers 
     1.0000   1.0000   1.0000   1.0000   1.0000   1.0000   1.0000   1.0000
     1.0000   1.0000   1.0000   1.0000   1.0000   1.0000   1.0000   1.0000
     0.0000   0.0000   0.0000   0.0000

          k = 0.0667 0.3333 0.4000 (  3700 PWs)   bands (ev):

    -5.6189  -3.8594  -2.7396  -1.2557   2.3356   3.7041   4.7179   4.7404
     5.9437   6.4671   6.8618   8.4426   8.7341   8.8894   9.4278  11.5458
    20.2021  20.9995  21.2012  22.1356

     occupation numbers 
     1.0000   1.0000   1.0000   1.0000   1.0000   1.0000   1.0000   1.0000
     1.0000   1.0000   1.0000   1.0000   1.0000   1.0000   1.0000   1.0000
     0.0000   0.0000   0.0000   0.0000

          k = 0.0667 0.3333 0.4667 (  3692 PWs)   bands (ev):

    -5.1046  -4.5170  -2.2850  -1.7838   2.7303   3.1929   5.0739   5.2727
     5.4897   5.8481   7.3503   7.8791   8.8704   8.9379  10.2511  10.9751
    20.8869  21.0961  21.1813  21.7309

     occupation numbers 
     1.0000   1.0000   1.0000   1.0000   1.0000   1.0000   1.0000   1.0000
     1.0000   1.0000   1.0000   1.0000   1.0000   1.0000   1.0000   1.0000
     0.0000   0.0000   0.0000   0.0000

          k = 0.0667 0.4000 0.4000 (  3694 PWs)   bands (ev):

    -5.1845  -3.4482  -3.4482  -1.8597   2.6915   4.1605   4.1605   5.0366
     5.8230   6.3580   6.3580   7.8753   9.3112   9.5703   9.5703  11.3364
    20.3867  21.8246  21.9583  21.9992

     occupation numbers 
     1.0000   1.0000   1.0000   1.0000   1.0000   1.0000   1.0000   1.0000
     1.0000   1.0000   1.0000   1.0000   1.0000   1.0000   1.0000   1.0000
     0.0000   0.0000   0.0000   0.0000

          k = 0.0667 0.4000 0.4667 (  3689 PWs)   bands (ev):

    -4.6757  -4.0955  -2.9721  -2.4386   3.1227   3.6164   4.6652   5.2202
     5.4272   5.8732   6.8214   7.3301   9.5501   9.6241  10.3179  10.9205
    20.8358  21.4983  21.9102  21.9677

     occupation numbers 
     1.0000   1.0000   1.0000   1.0000   1.0000   1.0000   1.0000   1.0000
     1.0000   1.0000   1.0000   1.0000   1.0000   1.0000   1.0000   1.0000
     0.0000   0.0000   0.0000   0.0000

          k = 0.0667 0.4667 0.4667 (  3671 PWs)   bands (ev):

    -4.1744  -3.6047  -3.6047  -3.0497   3.5807   4.0976   4.0976   4.6340
     5.8443   6.3135   6.3135   6.8029   9.9895  10.2408  10.2408  10.6786
    21.0280  21.4479  21.4479  21.5961

     occupation numbers 
     1.0000   1.0000   1.0000   1.0000   1.0000   1.0000   1.0000   1.0000
     1.0000   1.0000   1.0000   1.0000   1.0000   1.0000   1.0000   1.0000
     0.0000   0.0000   0.0000   0.0000

          k = 0.1333 0.1333 0.1333 (  3716 PWs)   bands (ev):

    -7.6342  -1.2012  -1.2012  -1.2012   2.7965   2.7965   2.7965   5.9060
     5.9060   5.9060   7.4644   7.4644   7.4644  10.6701  12.6173  12.6173
    18.4071  18.4071  18.4071  19.9057

     occupation numbers 
     1.0000   1.0000   1.0000   1.0000   1.0000   1.0000   1.0000   1.0000
     1.0000   1.0000   1.0000   1.0000   1.0000   1.0000   1.0000   1.0000
     0.0000   0.0000   0.0000   0.0000

          k = 0.1333 0.1333 0.2000 (  3707 PWs)   bands (ev):

    -7.4303  -2.1257  -1.0482  -1.0482   2.7304   2.7304   3.7371   5.4702
     5.4702   6.2770   7.5130   7.5130   7.6573   9.9537  12.0882  12.5662
    18.4281  18.7559  18.7559  19.8005

     occupation numbers 
     1.0000   1.0000   1.0000   1.0000   1.0000   1.0000   1.0000   1.0000
     1.0000   1.0000   1.0000   1.0000   1.0000   1.0000   1.0000   1.0000
     0.0000   0.0000   0.0000   0.0000

          k = 0.1333 0.1333 0.2667 (  3706 PWs)   bands (ev):

    -7.1455  -2.9957  -0.8462  -0.8462   2.5790   2.5790   4.5704   5.1663
     5.1663   6.8412   7.4169   7.4169   7.9249   9.2254  11.4861  12.2624
    18.4808  19.3784  19.3785  19.6373

     occupation numbers 
     1.0000   1.0000   1.0000   1.0000   1.0000   1.0000   1.0000   1.0000
     1.0000   1.0000   1.0000   1.0000   1.0000   1.0000   1.0000   1.0000
     0.0000   0.0000   0.0000   0.0000

          k = 0.1333 0.1333 0.3333 (  3693 PWs)   bands (ev):

    -6.7807  -3.8043  -0.6137  -0.6137   2.3367   2.3367   5.0259   5.0259
     5.2831   7.2339   7.2339   7.5910   8.2649   8.5092  10.8633  11.7424
    18.5708  19.4452  20.2286  20.2286

     occupation numbers 
     1.0000   1.0000   1.0000   1.0000   1.0000   1.0000   1.0000   1.0000
     1.0000   1.0000   1.0000   1.0000   1.0000   1.0000   1.0000   1.0000
     0.0000   0.0000   0.0000   0.0000

          k = 0.1333 0.1333 0.4000 (  3696 PWs)   bands (ev):

    -6.3367  -4.5461  -0.3875  -0.3875   2.0655   2.0655   5.0088   5.0088
     5.9184   7.0385   7.0385   7.8191   8.4602   8.6736  10.2528  11.0554
    18.6977  19.2418  21.2312  21.2312

     occupation numbers 
     1.0000   1.0000   1.0000   1.0000   1.0000   1.0000   1.0000   1.0000
     1.0000   1.0000   1.0000   1.0000   1.0000   1.0000   1.0000   1.0000
     0.0000   0.0000   0.0000   0.0000

          k = 0.1333 0.1333 0.4667 (  3710 PWs)   bands (ev):

    -5.8150  -5.2174  -0.2353  -0.2353   1.8774   1.8774   5.0335   5.0335
     6.5326   6.9104   6.9104   7.1611   9.1462   9.3674   9.6758  10.2488
    18.8571  19.0418  22.2281  22.2281

     occupation numbers 
     1.0000   1.0000   1.0000   1.0000   1.0000   1.0000   1.0000   1.0000
     1.0000   1.0000   1.0000   1.0000   1.0000   1.0000   1.0000   1.0000
     0.0000   0.0000   0.0000   0.0000

          k = 0.1333 0.2000 0.2000 (  3697 PWs)   bands (ev):

    -7.2269  -1.9565  -1.9565  -0.9122   2.5406   3.5076   3.5076   5.1278
     5.9754   5.9754   7.7134   7.7134   7.7912   9.2202  11.8025  12.4565
    18.8232  18.8232  18.8266  20.1608

     occupation numbers 
     1.0000   1.0000   1.0000   1.0000   1.0000   1.0000   1.0000   1.0000
     1.0000   1.0000   1.0000   1.0000   1.0000   1.0000   1.0000   1.0000
     0.0000   0.0000   0.0000   0.0000

          k = 0.1333 0.2000 0.2667 (  3701 PWs)   bands (ev):

    -6.9429  -2.8160  -1.7266  -0.7449   2.2461   3.1551   4.1568   4.9824
     5.8033   6.6861   7.6500   7.9003   7.9991   8.4839  11.2714  12.2573
    18.9211  19.1970  19.4686  20.1384

     occupation numbers 
     1.0000   1.0000   1.0000   1.0000   1.0000   1.0000   1.0000   1.0000
     1.0000   1.0000   1.0000   1.0000   1.0000   1.0000   1.0000   1.0000
     0.0000   0.0000   0.0000   0.0000

          k = 0.1333 0.2000 0.3333 (  3699 PWs)   bands (ev):

    -6.5791  -3.6174  -1.4458  -0.5847   1.9200   2.7245   4.7245   5.0103
     5.7206   7.5108   7.5350   7.7668   7.8634   8.3876  10.6843  11.8437
    19.0497  19.8444  19.9788  20.3251

     occupation numbers 
     1.0000   1.0000   1.0000   1.0000   1.0000   1.0000   1.0000   1.0000
     1.0000   1.0000   1.0000   1.0000   1.0000   1.0000   1.0000   1.0000
     0.0000   0.0000   0.0000   0.0000

          k = 0.1333 0.2000 0.4000 (  3699 PWs)   bands (ev):

    -6.1366  -4.3543  -1.1327  -0.5045   1.6922   2.2853   5.1500   5.2716
     5.6467   7.0826   7.4535   7.7341   8.2983   8.9387  10.0912  11.2408
    19.2066  19.7852  20.7048  21.3148

     occupation numbers 
     1.0000   1.0000   1.0000   1.0000   1.0000   1.0000   1.0000   1.0000
     1.0000   1.0000   1.0000   1.0000   1.0000   1.0000   1.0000   1.0000
     0.0000   0.0000   0.0000   0.0000

          k = 0.1333 0.2000 0.4667 (  3709 PWs)   bands (ev):

    -5.6169  -5.0219  -0.8235  -0.5863   1.6850   1.9104   5.3392   5.5200
     5.8370   6.4388   7.4685   7.5796   8.9364   9.5109   9.6912  10.5004
    19.3869  19.5832  21.6662  22.1560

     occupation numbers 
     1.0000   1.0000   1.0000   1.0000   1.0000   1.0000   1.0000   1.0000
     1.0000   1.0000   1.0000   1.0000   1.0000   1.0000   1.0000   1.0000
     0.0000   0.0000   0.0000   0.0000

          k = 0.1333 0.2667 0.2667 (  3699 PWs)   bands (ev):

    -6.6601  -2.5689  -2.5689  -0.6517   1.8657   3.6452   3.6452   4.9897
     6.5729   6.5729   7.7451   8.0045   8.0045   8.2327  10.8024  12.1880
    19.3041  19.5907  19.5907  20.5440

     occupation numbers 
     1.0000   1.0000   1.0000   1.0000   1.0000   1.0000   1.0000   1.0000
     1.0000   1.0000   1.0000   1.0000   1.0000   1.0000   1.0000   1.0000
     0.0000   0.0000   0.0000   0.0000

          k = 0.1333 0.2667 0.3333 (  3699 PWs)   bands (ev):

    -6.2979  -3.3589  -2.2600  -0.6419   1.5822   3.0990   4.1146   5.1335
     6.4318   7.0303   7.3309   8.0116   8.3947   8.5237  10.2537  11.9130
    19.7101  19.7406  20.4533  20.5933

     occupation numbers 
     1.0000   1.0000   1.0000   1.0000   1.0000   1.0000   1.0000   1.0000
     1.0000   1.0000   1.0000   1.0000   1.0000   1.0000   1.0000   1.0000
     0.0000   0.0000   0.0000   0.0000

          k = 0.1333 0.2667 0.4000 (  3693 PWs)   bands (ev):

    -5.8576  -4.0878  -1.8997  -0.8000   1.5298   2.5685   4.6058   5.3653
     6.2194   6.3528   7.9838   8.0743   8.4077   9.2227   9.6845  11.4280
    19.9126  20.3783  20.4661  21.4234

     occupation numbers 
     1.0000   1.0000   1.0000   1.0000   1.0000   1.0000   1.0000   1.0000
     1.0000   1.0000   1.0000   1.0000   1.0000   1.0000   1.0000   1.0000
     0.0000   0.0000   0.0000   0.0000

          k = 0.1333 0.2667 0.4667 (  3697 PWs)   bands (ev):

    -5.3408  -4.7499  -1.5065  -1.1170   1.7260   2.0952   5.1387   5.6476
     5.7208   5.9454   8.1910   8.3205   8.5599   9.1189  10.0113  10.7739
    20.0990  20.2890  21.2266  21.9750

     occupation numbers 
     1.0000   1.0000   1.0000   1.0000   1.0000   1.0000   1.0000   1.0000
     1.0000   1.0000   1.0000   1.0000   1.0000   1.0000   1.0000   1.0000
     0.0000   0.0000   0.0000   0.0000

          k = 0.1333 0.3333 0.3333 (  3692 PWs)   bands (ev):

    -5.9379  -3.0323  -3.0323  -0.8716   1.4734   3.5025   3.5025   5.3543
     6.3203   7.0563   7.0563   8.6761   8.6761   8.7714   9.7372  11.7950
    19.8612  20.6063  20.6063  21.0733

     occupation numbers 
     1.0000   1.0000   1.0000   1.0000   1.0000   1.0000   1.0000   1.0000
     1.0000   1.0000   1.0000   1.0000   1.0000   1.0000   1.0000   1.0000
     0.0000   0.0000   0.0000   0.0000

          k = 0.1333 0.3333 0.4000 (  3696 PWs)   bands (ev):

    -5.5007  -3.7494  -2.6438  -1.2643   1.6187   2.9200   3.9547   5.6447
     5.6503   6.7171   7.6035   8.8312   8.9748   9.1953   9.4528  11.4579
    20.2950  20.7751  21.1919  21.5479

     occupation numbers 
     1.0000   1.0000   1.0000   1.0000   1.0000   1.0000   1.0000   1.0000
     1.0000   1.0000   1.0000   1.0000   1.0000   1.0000   1.0000   1.0000
     0.0000   0.0000   0.0000   0.0000

          k = 0.1333 0.3333 0.4667 (  3696 PWs)   bands (ev):

    -4.9883  -4.4032  -2.2039  -1.7317   1.9462   2.3926   4.4632   5.0293
     5.9833   6.3491   8.1263   8.6549   8.9605   9.0239  10.2305  10.9207
    20.9472  20.9638  21.1021  21.7271

     occupation numbers 
     1.0000   1.0000   1.0000   1.0000   1.0000   1.0000   1.0000   1.0000
     1.0000   1.0000   1.0000   1.0000   1.0000   1.0000   1.0000   1.0000
     0.0000   0.0000   0.0000   0.0000

          k = 0.1333 0.4000 0.4000 (  3695 PWs)   bands (ev):

    -5.0679  -3.3430  -3.3430  -1.8070   1.8924   3.3405   3.3405   4.9892
     5.9786   7.1886   7.1886   8.6800   9.3823   9.6127   9.6127  11.2833
    20.4784  21.6745  21.6745  21.7594

     occupation numbers 
     1.0000   1.0000   1.0000   1.0000   1.0000   1.0000   1.0000   1.0000
     1.0000   1.0000   1.0000   1.0000   1.0000   1.0000   1.0000   1.0000
     0.0000   0.0000   0.0000   0.0000

          k = 0.1333 0.4000 0.4667 (  3691 PWs)   bands (ev):

    -4.5614  -3.9848  -2.8751  -2.3566   2.2908   2.7804   3.8281   4.3794
     6.3567   6.7657   7.6678   8.1660   9.6115   9.6772  10.3248  10.8978
    20.9170  21.5414  21.7822  21.8521

     occupation numbers 
     1.0000   1.0000   1.0000   1.0000   1.0000   1.0000   1.0000   1.0000
     1.0000   1.0000   1.0000   1.0000   1.0000   1.0000   1.0000   1.0000
     0.0000   0.0000   0.0000   0.0000

          k = 0.1333 0.4667 0.4667 (  3685 PWs)   bands (ev):

    -4.0634  -3.4989  -3.4989  -2.9524   2.7299   3.2464   3.2464   3.7821
     6.7675   7.2088   7.2088   7.6784  10.0327  10.2673  10.2673  10.6815
    21.1040  21.5039  21.5039  21.6458

     occupation numbers 
     1.0000   1.0000   1.0000   1.0000   1.0000   1.0000   1.0000   1.0000
     1.0000   1.0000   1.0000   1.0000   1.0000   1.0000   1.0000   1.0000
     0.0000   0.0000   0.0000   0.0000

          k = 0.2000 0.2000 0.2000 (  3698 PWs)   bands (ev):

    -7.0241  -1.7961  -1.7961  -1.7961   3.1112   3.1112   3.1112   5.8228
     5.8228   5.8228   7.9751   7.9751   7.9751   8.4640  12.0185  12.0185
    18.9378  18.9378  18.9378  20.6699

     occupation numbers 
     1.0000   1.0000   1.0000   1.0000   1.0000   1.0000   1.0000   1.0000
     1.0000   1.0000   1.0000   1.0000   1.0000   1.0000   1.0000   1.0000
     0.0000   0.0000   0.0000   0.0000

          k = 0.2000 0.2000 0.2667 (  3703 PWs)   bands (ev):

    -6.7409  -2.6414  -1.5833  -1.5833   2.6175   2.6175   3.5955   5.8150
     5.8150   6.7015   7.7139   8.0884   8.0884   8.2296  11.5016  11.9768
    19.0868  19.3274  19.3274  20.5380

     occupation numbers 
     1.0000   1.0000   1.0000   1.0000   1.0000   1.0000   1.0000   1.0000
     1.0000   1.0000   1.0000   1.0000   1.0000   1.0000   1.0000   1.0000
     0.0000   0.0000   0.0000   0.0000

          k = 0.2000 0.2000 0.3333 (  3693 PWs)   bands (ev):

    -6.3783  -3.4337  -1.3362  -1.3362   2.1105   2.1105   4.0615   5.8948
     5.8949   6.9905   7.6649   8.0768   8.0768   8.5517  10.9514  11.6723
    19.2672  19.9778  19.9779  20.3558

     occupation numbers 
     1.0000   1.0000   1.0000   1.0000   1.0000   1.0000   1.0000   1.0000
     1.0000   1.0000   1.0000   1.0000   1.0000   1.0000   1.0000   1.0000
     0.0000   0.0000   0.0000   0.0000

          k = 0.2000 0.2000 0.4000 (  3687 PWs)   bands (ev):

    -5.9373  -4.1644  -1.0926  -1.0926   1.6737   1.6737   4.5516   6.0022
     6.0022   6.3066   8.0003   8.0003   8.6400   8.9370  10.4004  11.1378
    19.4720  20.1454  20.8250  20.8250

     occupation numbers 
     1.0000   1.0000   1.0000   1.0000   1.0000   1.0000   1.0000   1.0000
     1.0000   1.0000   1.0000   1.0000   1.0000   1.0000   1.0000   1.0000
     0.0000   0.0000   0.0000   0.0000

          k = 0.2000 0.2000 0.4667 (  3704 PWs)   bands (ev):

    -5.4198  -4.8278  -0.9263  -0.9263   1.4055   1.4055   5.0855   5.6703
     6.0784   6.0784   7.9335   7.9335   9.3796   9.5742   9.8711  10.4220
    19.6929  19.9207  21.7082  21.7082

     occupation numbers 
     1.0000   1.0000   1.0000   1.0000   1.0000   1.0000   1.0000   1.0000
     1.0000   1.0000   1.0000   1.0000   1.0000   1.0000   1.0000   1.0000
     0.0000   0.0000   0.0000   0.0000

          k = 0.2000 0.2667 0.2667 (  3698 PWs)   bands (ev):

    -6.4590  -2.4034  -2.4034  -1.4050   2.0482   2.9827   2.9827   5.9289
     6.7570   6.7570   6.9560   8.3550   8.3550   8.4023  11.2449  11.8648
    19.4525  19.5006  19.5006  20.8656

     occupation numbers 
     1.0000   1.0000   1.0000   1.0000   1.0000   1.0000   1.0000   1.0000
     1.0000   1.0000   1.0000   1.0000   1.0000   1.0000   1.0000   1.0000
     0.0000   0.0000   0.0000   0.0000

          k = 0.2000 0.2667 0.3333 (  3697 PWs)   bands (ev):

    -6.0981  -3.1805  -2.1116  -1.2300   1.5446   2.3809   3.3822   6.1079
     6.2298   6.8063   7.7074   8.3974   8.5638   8.7133  10.7708  11.6642
    19.7076  19.8619  20.1549  20.8199

     occupation numbers 
     1.0000   1.0000   1.0000   1.0000   1.0000   1.0000   1.0000   1.0000
     1.0000   1.0000   1.0000   1.0000   1.0000   1.0000   1.0000   1.0000
     0.0000   0.0000   0.0000   0.0000

          k = 0.2000 0.2667 0.4000 (  3701 PWs)   bands (ev):

    -5.6596  -3.9014  -1.7843  -1.1348   1.2147   1.8375   3.8344   5.5476
     6.3205   6.8000   8.4176   8.5539   8.5928   9.2143  10.2556  11.2433
    19.9375  20.5194  20.6383  20.9837

     occupation numbers 
     1.0000   1.0000   1.0000   1.0000   1.0000   1.0000   1.0000   1.0000
     1.0000   1.0000   1.0000   1.0000   1.0000   1.0000   1.0000   1.0000
     0.0000   0.0000   0.0000   0.0000

          k = 0.2000 0.2667 0.4667 (  3706 PWs)   bands (ev):

    -5.1454  -4.5581  -1.4596  -1.2121   1.1670   1.4057   4.3460   4.9180
     6.5332   6.7059   8.4657   8.5397   9.1962   9.7334   9.9052  10.6318
    20.1782  20.4167  21.3232  21.7245

     occupation numbers 
     1.0000   1.0000   1.0000   1.0000   1.0000   1.0000   1.0000   1.0000
     1.0000   1.0000   1.0000   1.0000   1.0000   1.0000   1.0000   1.0000
     0.0000   0.0000   0.0000   0.0000

          k = 0.2000 0.3333 0.3333 (  3693 PWs)   bands (ev):

    -5.7397  -2.8633  -2.8633  -1.2049   1.1484   2.7282   2.7282   5.5039
     6.3584   7.6372   7.6372   8.8620   8.8620   8.9191  10.3595  11.5938
    20.0183  20.3655  20.3656  21.1923

     occupation numbers 
     1.0000   1.0000   1.0000   1.0000   1.0000   1.0000   1.0000   1.0000
     1.0000   1.0000   1.0000   1.0000   1.0000   1.0000   1.0000   1.0000
     0.0000   0.0000   0.0000   0.0000

          k = 0.2000 0.3333 0.4000 (  3691 PWs)   bands (ev):

    -5.3047  -3.5686  -2.4919  -1.3560   1.0388   2.1285   3.1498   4.8252
     6.6381   7.4643   8.3138   9.0010   9.1156   9.4891   9.8826  11.3148
    20.4449  20.5966  21.1707  21.2132

     occupation numbers 
     1.0000   1.0000   1.0000   1.0000   1.0000   1.0000   1.0000   1.0000
     1.0000   1.0000   1.0000   1.0000   1.0000   1.0000   1.0000   1.0000
     0.0000   0.0000   0.0000   0.0000

          k = 0.2000 0.3333 0.4667 (  3691 PWs)   bands (ev):

    -4.7954  -4.2151  -2.0850  -1.6811   1.2238   1.6125   3.6425   4.2026
     6.9319   7.2175   8.8715   9.1147   9.1677   9.3845  10.1889  10.8285
    20.8319  21.0503  21.0858  21.6755

     occupation numbers 
     1.0000   1.0000   1.0000   1.0000   1.0000   1.0000   1.0000   1.0000
     1.0000   1.0000   1.0000   1.0000   1.0000   1.0000   1.0000   1.0000
     0.0000   0.0000   0.0000   0.0000

          k = 0.2000 0.4000 0.4000 (  3700 PWs)   bands (ev):

    -4.8746  -3.1718  -3.1718  -1.7552   1.1606   2.5178   2.5178   4.1522
     6.9708   8.0102   8.0102   9.4412   9.4976   9.6793   9.6793  11.1936
    20.6253  21.3717  21.3717  21.6876

     occupation numbers 
     1.0000   1.0000   1.0000   1.0000   1.0000   1.0000   1.0000   1.0000
     1.0000   1.0000   1.0000   1.0000   1.0000   1.0000   1.0000   1.0000
     0.0000   0.0000   0.0000   0.0000

          k = 0.2000 0.4000 0.4667 (  3695 PWs)   bands (ev):

    -4.3725  -3.8025  -2.7212  -2.2359   1.4915   1.9572   2.9907   3.5381
     7.3186   7.6709   8.5013   8.9760   9.7107   9.7624  10.3305  10.8563
    21.0457  21.5672  21.5936  21.7259

     occupation numbers 
     1.0000   1.0000   1.0000   1.0000   1.0000   1.0000   1.0000   1.0000
     1.0000   1.0000   1.0000   1.0000   1.0000   1.0000   1.0000   1.0000
     0.0000   0.0000   0.0000   0.0000

          k = 0.2000 0.4667 0.4667 (  3691 PWs)   bands (ev):

    -3.8807  -3.3266  -3.3266  -2.7978   1.8977   2.4043   2.4043   2.9352
     7.7108   8.1086   8.1086   8.5450  10.1006  10.3070  10.3070  10.6822
    21.2231  21.5861  21.5861  21.7187

     occupation numbers 
     1.0000   1.0000   1.0000   1.0000   1.0000   1.0000   1.0000   1.0000
     1.0000   1.0000   1.0000   1.0000   1.0000   1.0000   1.0000   1.0000
     0.0000   0.0000   0.0000   0.0000

          k = 0.2667 0.2667 0.2667 (  3689 PWs)   bands (ev):

    -6.1784  -2.1830  -2.1830  -2.1830   2.3153   2.3153   2.3153   6.1856
     6.9358   6.9358   6.9358   8.6358   8.6358   8.6358  11.4645  11.4645
    19.6501  19.6501  19.6501  21.2841

     occupation numbers 
     1.0000   1.0000   1.0000   1.0000   1.0000   1.0000   1.0000   1.0000
     1.0000   1.0000   1.0000   1.0000   1.0000   1.0000   1.0000   1.0000
     0.0000   0.0000   0.0000   0.0000

          k = 0.2667 0.2667 0.3333 (  3699 PWs)   bands (ev):

    -5.8195  -2.9371  -1.9256  -1.9256   1.7011   1.7011   2.6617   5.4523
     7.1079   7.1079   7.9464   8.8013   8.8013   8.9295  11.0199  11.4163
    19.8862  20.0640  20.0640  21.1248

     occupation numbers 
     1.0000   1.0000   1.0000   1.0000   1.0000   1.0000   1.0000   1.0000
     1.0000   1.0000   1.0000   1.0000   1.0000   1.0000   1.0000   1.0000
     0.0000   0.0000   0.0000   0.0000

          k = 0.2667 0.2667 0.4000 (  3693 PWs)   bands (ev):

    -5.3838  -3.6442  -1.6697  -1.6696   1.1988   1.1988   3.0839   4.7681
     7.2540   7.2540   8.8655   8.8655   8.9140   9.2775  10.5589  11.0968
    20.1469  20.7067  20.7067  20.9193

     occupation numbers 
     1.0000   1.0000   1.0000   1.0000   1.0000   1.0000   1.0000   1.0000
     1.0000   1.0000   1.0000   1.0000   1.0000   1.0000   1.0000   1.0000
     0.0000   0.0000   0.0000   0.0000

          k = 0.2667 0.2667 0.4667 (  3694 PWs)   bands (ev):

    -4.8736  -4.2922  -1.4929  -1.4929   0.8966   0.8966   3.5784   4.1414
     7.3415   7.3415   8.8762   8.8762   9.6723   9.7942  10.1039  10.5392
    20.4165  20.6789  21.4389  21.4389

     occupation numbers 
     1.0000   1.0000   1.0000   1.0000   1.0000   1.0000   1.0000   1.0000
     1.0000   1.0000   1.0000   1.0000   1.0000   1.0000   1.0000   1.0000
     0.0000   0.0000   0.0000   0.0000

          k = 0.2667 0.3333 0.3333 (  3692 PWs)   bands (ev):

    -5.4635  -2.6377  -2.6377  -1.7402   1.1281   1.9905   1.9905   4.7160
     7.3741   8.0681   8.0681   9.1148   9.1148   9.1208  10.8088  11.3299
    20.2273  20.3051  20.3051  21.3792

     occupation numbers 
     1.0000   1.0000   1.0000   1.0000   1.0000   1.0000   1.0000   1.0000
     1.0000   1.0000   1.0000   1.0000   1.0000   1.0000   1.0000   1.0000
     0.0000   0.0000   0.0000   0.0000

          k = 0.2667 0.3333 0.4000 (  3693 PWs)   bands (ev):

    -5.0320  -3.3215  -2.3007  -1.6346   0.7557   1.4013   2.3812   4.0324
     7.6196   8.0841   8.9022   9.2516   9.3100   9.5395  10.4164  11.1269
    20.5697  20.6433  20.9289  21.3018

     occupation numbers 
     1.0000   1.0000   1.0000   1.0000   1.0000   1.0000   1.0000   1.0000
     1.0000   1.0000   1.0000   1.0000   1.0000   1.0000   1.0000   1.0000
     0.0000   0.0000   0.0000   0.0000

          k = 0.2667 0.3333 0.4667 (  3690 PWs)   bands (ev):

    -4.5279  -3.9554  -1.9649  -1.7094   0.6922   0.9410   2.8577   3.4105
     7.8361   8.0004   9.3425   9.3732   9.5131   9.9847  10.1175  10.7021
    20.8391  21.0920  21.2429  21.5473

     occupation numbers 
     1.0000   1.0000   1.0000   1.0000   1.0000   1.0000   1.0000   1.0000
     1.0000   1.0000   1.0000   1.0000   1.0000   1.0000   1.0000   1.0000
     0.0000   0.0000   0.0000   0.0000

          k = 0.2667 0.4000 0.4000 (  3693 PWs)   bands (ev):

    -4.6066  -2.9428  -2.9428  -1.7819   0.6224   1.7476   1.7476   3.3527
     7.9431   8.7408   8.7408   9.6523   9.7669   9.7669  10.0781  11.0668
    20.8179  21.1702  21.1702  21.6481

     occupation numbers 
     1.0000   1.0000   1.0000   1.0000   1.0000   1.0000   1.0000   1.0000
     1.0000   1.0000   1.0000   1.0000   1.0000   1.0000   1.0000   1.0000
     0.0000   0.0000   0.0000   0.0000

          k = 0.2667 0.4000 0.4667 (  3693 PWs)   bands (ev):

    -4.1116  -3.5534  -2.5268  -2.1131   0.8063   1.2083   2.1997   2.7386
     8.2420   8.5128   9.2480   9.6829   9.8432   9.8762  10.3274  10.7918
    21.2112  21.4093  21.6137  21.6172

     occupation numbers 
     1.0000   1.0000   1.0000   1.0000   1.0000   1.0000   1.0000   1.0000
     1.0000   1.0000   1.0000   1.0000   1.0000   1.0000   1.0000   1.0000
     0.0000   0.0000   0.0000   0.0000

          k = 0.2667 0.4667 0.4667 (  3691 PWs)   bands (ev):

    -3.6309  -3.0960  -3.0959  -2.6024   1.1422   1.6204   1.6204   2.1374
     8.6051   8.9414   8.9414   9.3286  10.1874  10.3535  10.3535  10.6754
    21.3727  21.6736  21.6736  21.7986

     occupation numbers 
     1.0000   1.0000   1.0000   1.0000   1.0000   1.0000   1.0000   1.0000
     1.0000   1.0000   1.0000   1.0000   1.0000   1.0000   1.0000   1.0000
     0.0000   0.0000   0.0000   0.0000

          k = 0.3333 0.3333 0.3333 (  3710 PWs)   bands (ev):

    -5.1110  -2.3731  -2.3731  -2.3731   1.3296   1.3296   1.3296   3.9740
     8.3541   8.3541   8.3541   9.3713   9.3713   9.3713  11.0195  11.0195
    20.4756  20.4757  20.4757  21.6440

     occupation numbers 
     1.0000   1.0000   1.0000   1.0000   1.0000   1.0000   1.0000   1.0000
     1.0000   1.0000   1.0000   1.0000   1.0000   1.0000   1.0000   1.0000
     0.0000   0.0000   0.0000   0.0000

          k = 0.3333 0.3333 0.4000 (  3692 PWs)   bands (ev):

    -4.6849  -3.0171  -2.1082  -2.1082   0.7955   0.7955   1.6765   3.2895
     8.5346   8.5346   9.2537   9.5597   9.5597   9.6632  10.6805  10.9520
    20.7463  20.8771  20.8771  21.4800

     occupation numbers 
     1.0000   1.0000   1.0000   1.0000   1.0000   1.0000   1.0000   1.0000
     1.0000   1.0000   1.0000   1.0000   1.0000   1.0000   1.0000   1.0000
     0.0000   0.0000   0.0000   0.0000

          k = 0.3333 0.3333 0.4667 (  3684 PWs)   bands (ev):

    -4.1889  -3.6293  -1.9236  -1.9236   0.4751   0.4751   2.1303   2.6718
     8.6258   8.6258   9.6528   9.6528   9.9870  10.0233  10.3309  10.6076
    21.0183  21.2692  21.4182  21.4183

     occupation numbers 
     1.0000   1.0000   1.0000   1.0000   1.0000   1.0000   1.0000   1.0000
     1.0000   1.0000   1.0000   1.0000   1.0000   1.0000   1.0000   1.0000
     0.0000   0.0000   0.0000   0.0000

          k = 0.3333 0.4000 0.4000 (  3690 PWs)   bands (ev):

    -4.2669  -2.6735  -2.6735  -1.9953   0.4014   1.0634   1.0634   2.6085
     8.8476   9.3092   9.3092   9.8394   9.8822   9.8822  10.5221  10.9049
    21.0411  21.1279  21.1279  21.6750

     occupation numbers 
     1.0000   1.0000   1.0000   1.0000   1.0000   1.0000   1.0000   1.0000
     1.0000   1.0000   1.0000   1.0000   1.0000   1.0000   1.0000   1.0000
     0.0000   0.0000   0.0000   0.0000

          k = 0.3333 0.4000 0.4667 (  3694 PWs)   bands (ev):

    -3.7838  -3.2461  -2.3301  -2.0688   0.3306   0.5866   1.4785   2.0004
     9.0726   9.2288   9.8509  10.0046  10.0179  10.2210  10.3065  10.7022
    21.3724  21.3966  21.5818  21.5872

     occupation numbers 
     1.0000   1.0000   1.0000   1.0000   1.0000   1.0000   1.0000   1.0000
     1.0000   1.0000   1.0000   1.0000   1.0000   1.0000   1.0000   1.0000
     0.0000   0.0000   0.0000   0.0000

          k = 0.3333 0.4667 0.4667 (  3700 PWs)   bands (ev):

    -3.3226  -2.8244  -2.8244  -2.4043   0.5156   0.9261   0.9261   1.4112
     9.3961   9.6491   9.6491   9.9668  10.2852  10.3992  10.3992  10.6550
    21.5334  21.7265  21.7265  21.8599

     occupation numbers 
     1.0000   1.0000   1.0000   1.0000   1.0000   1.0000   1.0000   1.0000
     1.0000   1.0000   1.0000   1.0000   1.0000   1.0000   1.0000   1.0000
     0.0000   0.0000   0.0000   0.0000

          k = 0.4000 0.4000 0.4000 (  3695 PWs)   bands (ev):

    -3.8609  -2.4028  -2.4028  -2.4028   0.5123   0.5123   0.5123   1.9329
     9.6334   9.6334   9.6334  10.0502  10.0502  10.0502  10.7127  10.7127
    21.2739  21.2739  21.2741  21.7910

     occupation numbers 
     1.0000   1.0000   1.0000   1.0000   1.0000   1.0000   1.0000   1.0000
     1.0000   1.0000   1.0000   1.0000   1.0000   1.0000   1.0000   1.0000
     0.0000   0.0000   0.0000   0.0000

          k = 0.4000 0.4000 0.4667 (  3690 PWs)   bands (ev):

    -3.3984  -2.8986  -2.2131  -2.2130   0.1814   0.1814   0.8531   1.3405
     9.7437   9.7438  10.1972  10.1972  10.2427  10.2739  10.4988  10.6169
    21.4905  21.5785  21.5786  21.6647

     occupation numbers 
     1.0000   1.0000   1.0000   1.0000   1.0000   1.0000   1.0000   1.0000
     1.0000   1.0000   1.0000   1.0000   1.0000   1.0000   1.0000   1.0000
     0.0000   0.0000   0.0000   0.0000

          k = 0.4000 0.4667 0.4667 (  3690 PWs)   bands (ev):

    -2.9739  -2.5507  -2.5507  -2.2858   0.1070   0.3674   0.3674   0.7819
    10.0244  10.1700  10.1700  10.3852  10.3948  10.4368  10.4368  10.6163
    21.6785  21.7306  21.7306  21.8329

     occupation numbers 
     1.0000   1.0000   1.0000   1.0000   1.0000   1.0000   1.0000   1.0000
     1.0000   1.0000   1.0000   1.0000   1.0000   1.0000   1.0000   1.0000
     0.0000   0.0000   0.0000   0.0000

          k = 0.4667 0.4667 0.4667 (  3678 PWs)   bands (ev):

    -2.6244  -2.3583  -2.3583  -2.3583   0.0316   0.0316   0.0316   0.2934
    10.4279  10.4279  10.4280  10.4783  10.4783  10.4783  10.5570  10.5570
    21.7774  21.7774  21.7775  21.8282

     occupation numbers 
     1.0000   1.0000   1.0000   1.0000   1.0000   1.0000   1.0000   1.0000
     1.0000   1.0000   1.0000   1.0000   1.0000   1.0000   1.0000   1.0000
     0.0000   0.0000   0.0000   0.0000

     the Fermi energy is    16.0758 ev

!    total energy              =     -99.35165648 Ry
     Harris-Foulkes estimate   =     -99.35165640 Ry
     estimated scf accuracy    <       0.00000010 Ry

     The total energy is the sum of the following terms:

     one-electron contribution =      32.71417259 Ry
     hartree contribution      =       7.76925687 Ry
     xc contribution           =     -37.51510380 Ry
     ewald contribution        =    -102.31998213 Ry
     smearing contrib. (-TS)   =      -0.00000000 Ry

     convergence has been achieved in   5 iterations

     Writing output data file c-15.save/

     init_run     :      3.06s CPU      3.21s WALL (       1 calls)
     electrons    :     31.72s CPU     33.06s WALL (       1 calls)

     Called by init_run:
     wfcinit      :      2.85s CPU      2.99s WALL (       1 calls)
     wfcinit:atom :      0.02s CPU      0.02s WALL (     120 calls)
     wfcinit:wfcr :      2.68s CPU      2.81s WALL (     120 calls)
     potinit      :      0.03s CPU      0.04s WALL (       1 calls)
     hinit0       :      0.09s CPU      0.09s WALL (       1 calls)

     Called by electrons:
     c_bands      :     28.13s CPU     29.28s WALL (       5 calls)
     sum_band     :      3.40s CPU      3.58s WALL (       5 calls)
     v_of_rho     :      0.10s CPU      0.11s WALL (       6 calls)
     v_h          :      0.01s CPU      0.01s WALL (       6 calls)
     v_xc         :      0.09s CPU      0.10s WALL (       6 calls)
     newd         :      0.09s CPU      0.10s WALL (       6 calls)
     mix_rho      :      0.01s CPU      0.01s WALL (       5 calls)

     Called by c_bands:
     init_us_2    :      0.34s CPU      0.35s WALL (    1320 calls)
     cegterg      :     27.11s CPU     28.24s WALL (     600 calls)

     Called by sum_band:
     sum_band:bec :      0.01s CPU      0.01s WALL (     600 calls)
     addusdens    :      0.05s CPU      0.05s WALL (       5 calls)

     Called by *egterg:
     h_psi        :     18.22s CPU     19.31s WALL (    2760 calls)
     s_psi        :      2.14s CPU      2.19s WALL (    2760 calls)
     g_psi        :      0.11s CPU      0.11s WALL (    2040 calls)
     cdiaghg      :      2.26s CPU      2.30s WALL (    2640 calls)
     cegterg:over :      3.15s CPU      3.20s WALL (    2040 calls)
     cegterg:upda :      1.26s CPU      1.28s WALL (    2040 calls)
     cegterg:last :      0.61s CPU      0.62s WALL (     601 calls)

     Called by h_psi:
     h_psi:pot    :     18.15s CPU     19.25s WALL (    2760 calls)
     h_psi:calbec :      3.07s CPU      3.25s WALL (    2760 calls)
     vloc_psi     :     12.91s CPU     13.75s WALL (    2760 calls)
     add_vuspsi   :      2.16s CPU      2.24s WALL (    2760 calls)

     General routines
     calbec       :      4.02s CPU      4.26s WALL (    3360 calls)
     fft          :      0.06s CPU      0.07s WALL (      76 calls)
     ffts         :      0.00s CPU      0.00s WALL (      11 calls)
     fftw         :     13.76s CPU     14.63s WALL (   85016 calls)
     interpolate  :      0.01s CPU      0.01s WALL (       6 calls)

     Parallel routines
     fft_scatt_xy :      1.12s CPU      1.19s WALL (   85103 calls)
     fft_scatt_yz :      6.64s CPU      7.07s WALL (   85103 calls)

     PWSCF        :     35.28s CPU     36.89s WALL


   This run was terminated on:  18:55:11  26May2022            

=------------------------------------------------------------------------------=
   JOB DONE.
=------------------------------------------------------------------------------=
