
     Program PWSCF v.6.4.1 starts on 26May2022 at 18:55:11 

     This program is part of the open-source Quantum ESPRESSO suite
     for quantum simulation of materials; please cite
         "P. Giannozzi et al., J. Phys.:Condens. Matter 21 395502 (2009);
         "P. Giannozzi et al., J. Phys.:Condens. Matter 29 465901 (2017);
          URL http://www.quantum-espresso.org", 
     in publications or presentations arising from this work. More details at
     http://www.quantum-espresso.org/quote

     Parallel version (MPI), running on     6 processors

     MPI processes distributed on     1 nodes
     R & G space division:  proc/nbgrp/npool/nimage =       6
     Reading input from c-16.in

     Current dimensions of program PWSCF are:
     Max number of different atomic species (ntypx) = 10
     Max number of k-points (npk) =  40000
     Max angular momentum in pseudopotentials (lmaxx) =  3

     Subspace diagonalization in iterative solution of the eigenvalue problem:
     a serial algorithm will be used

     Found symmetry operation: I + ( -0.5000 -0.5000  0.0000)
     This is a supercell, fractional translations are disabled
     Message from routine setup:
     DEPRECATED: symmetry with ibrav=0, use correct ibrav instead

     Parallelization info
     --------------------
     sticks:   dense  smooth     PW     G-vecs:    dense   smooth      PW
     Min         337     192     58                11417     4902     800
     Max         338     193     59                11420     4905     801
     Sum        2025    1153    349                68507    29423    4801



     bravais-lattice index     =            0
     lattice parameter (alat)  =       6.7388  a.u.
     unit-cell volume          =     306.0135 (a.u.)^3
     number of atoms/cell      =            8
     number of atomic types    =            1
     number of electrons       =        32.00
     number of Kohn-Sham states=           20
     kinetic-energy cutoff     =      80.0000  Ry
     charge density cutoff     =     560.0000  Ry
     convergence threshold     =      1.0E-06
     mixing beta               =       0.7000
     number of iterations used =            8  plain     mixing
     Exchange-correlation      = PBE ( 1  4  3  4 0 0)

     celldm(1)=   6.738763  celldm(2)=   0.000000  celldm(3)=   0.000000
     celldm(4)=   0.000000  celldm(5)=   0.000000  celldm(6)=   0.000000

     crystal axes: (cart. coord. in units of alat)
               a(1) = (   1.000000   0.000000   0.000000 )  
               a(2) = (   0.000000   1.000000   0.000000 )  
               a(3) = (   0.000000   0.000000   1.000000 )  

     reciprocal axes: (cart. coord. in units 2 pi/alat)
               b(1) = (  1.000000  0.000000  0.000000 )  
               b(2) = (  0.000000  1.000000  0.000000 )  
               b(3) = (  0.000000  0.000000  1.000000 )  


     PseudoPot. # 1 for C  read from file:
     /home/cristian/Escritorio/Proyecto_Grafeno/pseudopotenciales/C.pbe-n-rrkjus_psl.1.0.0.UPF
     MD5 check sum: 1fdd950c42eb37d8afe3dd2f8d12311e
     Pseudo is Ultrasoft + core correction, Zval =  4.0
     Generated using "atomic" code by A. Dal Corso v.6.3MaX
     Using radial grid of 1073 points,  4 beta functions with: 
                l(1) =   0
                l(2) =   0
                l(3) =   1
                l(4) =   1
     Q(r) pseudized with 0 coefficients 


     atomic species   valence    mass     pseudopotential
        C              4.00    12.01100     C ( 1.00)

     24 Sym. Ops. (no inversion) found


                                    s                        frac. trans.

      isym =  1     identity                                     

 cryst.   s( 1) = (     1          0          0      )
                  (     0          1          0      )
                  (     0          0          1      )

 cart.    s( 1) = (  1.0000000  0.0000000  0.0000000 )
                  (  0.0000000  1.0000000  0.0000000 )
                  (  0.0000000  0.0000000  1.0000000 )


      isym =  2     180 deg rotation - cart. axis [0,0,1]        

 cryst.   s( 2) = (    -1          0          0      )
                  (     0         -1          0      )
                  (     0          0          1      )

 cart.    s( 2) = ( -1.0000000  0.0000000  0.0000000 )
                  (  0.0000000 -1.0000000  0.0000000 )
                  (  0.0000000  0.0000000  1.0000000 )


      isym =  3     180 deg rotation - cart. axis [0,1,0]        

 cryst.   s( 3) = (    -1          0          0      )
                  (     0          1          0      )
                  (     0          0         -1      )

 cart.    s( 3) = ( -1.0000000  0.0000000  0.0000000 )
                  (  0.0000000  1.0000000  0.0000000 )
                  (  0.0000000  0.0000000 -1.0000000 )


      isym =  4     180 deg rotation - cart. axis [1,0,0]        

 cryst.   s( 4) = (     1          0          0      )
                  (     0         -1          0      )
                  (     0          0         -1      )

 cart.    s( 4) = (  1.0000000  0.0000000  0.0000000 )
                  (  0.0000000 -1.0000000  0.0000000 )
                  (  0.0000000  0.0000000 -1.0000000 )


      isym =  5     120 deg rotation - cart. axis [-1,-1,-1]     

 cryst.   s( 5) = (     0          0          1      )
                  (     1          0          0      )
                  (     0          1          0      )

 cart.    s( 5) = (  0.0000000  1.0000000  0.0000000 )
                  (  0.0000000  0.0000000  1.0000000 )
                  (  1.0000000  0.0000000  0.0000000 )


      isym =  6     120 deg rotation - cart. axis [-1,1,1]       

 cryst.   s( 6) = (     0          0         -1      )
                  (    -1          0          0      )
                  (     0          1          0      )

 cart.    s( 6) = (  0.0000000 -1.0000000  0.0000000 )
                  (  0.0000000  0.0000000  1.0000000 )
                  ( -1.0000000  0.0000000  0.0000000 )


      isym =  7     120 deg rotation - cart. axis [1,1,-1]       

 cryst.   s( 7) = (     0          0         -1      )
                  (     1          0          0      )
                  (     0         -1          0      )

 cart.    s( 7) = (  0.0000000  1.0000000  0.0000000 )
                  (  0.0000000  0.0000000 -1.0000000 )
                  ( -1.0000000  0.0000000  0.0000000 )


      isym =  8     120 deg rotation - cart. axis [1,-1,1]       

 cryst.   s( 8) = (     0          0          1      )
                  (    -1          0          0      )
                  (     0         -1          0      )

 cart.    s( 8) = (  0.0000000 -1.0000000  0.0000000 )
                  (  0.0000000  0.0000000 -1.0000000 )
                  (  1.0000000  0.0000000  0.0000000 )


      isym =  9     120 deg rotation - cart. axis [1,1,1]        

 cryst.   s( 9) = (     0          1          0      )
                  (     0          0          1      )
                  (     1          0          0      )

 cart.    s( 9) = (  0.0000000  0.0000000  1.0000000 )
                  (  1.0000000  0.0000000  0.0000000 )
                  (  0.0000000  1.0000000  0.0000000 )


      isym = 10     120 deg rotation - cart. axis [-1,1,-1]      

 cryst.   s(10) = (     0         -1          0      )
                  (     0          0         -1      )
                  (     1          0          0      )

 cart.    s(10) = (  0.0000000  0.0000000  1.0000000 )
                  ( -1.0000000  0.0000000  0.0000000 )
                  (  0.0000000 -1.0000000  0.0000000 )


      isym = 11     120 deg rotation - cart. axis [1,-1,-1]      

 cryst.   s(11) = (     0         -1          0      )
                  (     0          0          1      )
                  (    -1          0          0      )

 cart.    s(11) = (  0.0000000  0.0000000 -1.0000000 )
                  ( -1.0000000  0.0000000  0.0000000 )
                  (  0.0000000  1.0000000  0.0000000 )


      isym = 12     120 deg rotation - cart. axis [-1,-1,1]      

 cryst.   s(12) = (     0          1          0      )
                  (     0          0         -1      )
                  (    -1          0          0      )

 cart.    s(12) = (  0.0000000  0.0000000 -1.0000000 )
                  (  1.0000000  0.0000000  0.0000000 )
                  (  0.0000000 -1.0000000  0.0000000 )


      isym = 13     inv. 180 deg rotation - cart. axis [1,1,0]   

 cryst.   s(13) = (     0         -1          0      )
                  (    -1          0          0      )
                  (     0          0          1      )

 cart.    s(13) = (  0.0000000 -1.0000000  0.0000000 )
                  ( -1.0000000  0.0000000  0.0000000 )
                  (  0.0000000  0.0000000  1.0000000 )


      isym = 14     inv. 180 deg rotation - cart. axis [1,-1,0]  

 cryst.   s(14) = (     0          1          0      )
                  (     1          0          0      )
                  (     0          0          1      )

 cart.    s(14) = (  0.0000000  1.0000000  0.0000000 )
                  (  1.0000000  0.0000000  0.0000000 )
                  (  0.0000000  0.0000000  1.0000000 )


      isym = 15     inv.  90 deg rotation - cart. axis [0,0,-1]  

 cryst.   s(15) = (     0          1          0      )
                  (    -1          0          0      )
                  (     0          0         -1      )

 cart.    s(15) = (  0.0000000 -1.0000000  0.0000000 )
                  (  1.0000000  0.0000000  0.0000000 )
                  (  0.0000000  0.0000000 -1.0000000 )


      isym = 16     inv.  90 deg rotation - cart. axis [0,0,1]   

 cryst.   s(16) = (     0         -1          0      )
                  (     1          0          0      )
                  (     0          0         -1      )

 cart.    s(16) = (  0.0000000  1.0000000  0.0000000 )
                  ( -1.0000000  0.0000000  0.0000000 )
                  (  0.0000000  0.0000000 -1.0000000 )


      isym = 17     inv. 180 deg rotation - cart. axis [1,0,1]   

 cryst.   s(17) = (     0          0         -1      )
                  (     0          1          0      )
                  (    -1          0          0      )

 cart.    s(17) = (  0.0000000  0.0000000 -1.0000000 )
                  (  0.0000000  1.0000000  0.0000000 )
                  ( -1.0000000  0.0000000  0.0000000 )


      isym = 18     inv. 180 deg rotation - cart. axis [-1,0,1]  

 cryst.   s(18) = (     0          0          1      )
                  (     0          1          0      )
                  (     1          0          0      )

 cart.    s(18) = (  0.0000000  0.0000000  1.0000000 )
                  (  0.0000000  1.0000000  0.0000000 )
                  (  1.0000000  0.0000000  0.0000000 )


      isym = 19     inv.  90 deg rotation - cart. axis [0,1,0]   

 cryst.   s(19) = (     0          0          1      )
                  (     0         -1          0      )
                  (    -1          0          0      )

 cart.    s(19) = (  0.0000000  0.0000000 -1.0000000 )
                  (  0.0000000 -1.0000000  0.0000000 )
                  (  1.0000000  0.0000000  0.0000000 )


      isym = 20     inv.  90 deg rotation - cart. axis [0,-1,0]  

 cryst.   s(20) = (     0          0         -1      )
                  (     0         -1          0      )
                  (     1          0          0      )

 cart.    s(20) = (  0.0000000  0.0000000  1.0000000 )
                  (  0.0000000 -1.0000000  0.0000000 )
                  ( -1.0000000  0.0000000  0.0000000 )


      isym = 21     inv. 180 deg rotation - cart. axis [0,1,1]   

 cryst.   s(21) = (     1          0          0      )
                  (     0          0         -1      )
                  (     0         -1          0      )

 cart.    s(21) = (  1.0000000  0.0000000  0.0000000 )
                  (  0.0000000  0.0000000 -1.0000000 )
                  (  0.0000000 -1.0000000  0.0000000 )


      isym = 22     inv. 180 deg rotation - cart. axis [0,1,-1]  

 cryst.   s(22) = (     1          0          0      )
                  (     0          0          1      )
                  (     0          1          0      )

 cart.    s(22) = (  1.0000000  0.0000000  0.0000000 )
                  (  0.0000000  0.0000000  1.0000000 )
                  (  0.0000000  1.0000000  0.0000000 )


      isym = 23     inv.  90 deg rotation - cart. axis [-1,0,0]  

 cryst.   s(23) = (    -1          0          0      )
                  (     0          0          1      )
                  (     0         -1          0      )

 cart.    s(23) = ( -1.0000000  0.0000000  0.0000000 )
                  (  0.0000000  0.0000000 -1.0000000 )
                  (  0.0000000  1.0000000  0.0000000 )


      isym = 24     inv.  90 deg rotation - cart. axis [1,0,0]   

 cryst.   s(24) = (    -1          0          0      )
                  (     0          0         -1      )
                  (     0          1          0      )

 cart.    s(24) = ( -1.0000000  0.0000000  0.0000000 )
                  (  0.0000000  0.0000000  1.0000000 )
                  (  0.0000000 -1.0000000  0.0000000 )


   Cartesian axes

     site n.     atom                  positions (alat units)
         1           C   tau(   1) = (   0.0000000   0.0000000   0.0000000  )
         2           C   tau(   2) = (   0.5000000   0.5000000   0.0000000  )
         3           C   tau(   3) = (   0.0000000   0.5000000   0.5000000  )
         4           C   tau(   4) = (   0.5000000   0.0000000   0.5000000  )
         5           C   tau(   5) = (   0.2500000   0.2500000   0.2500000  )
         6           C   tau(   6) = (   0.7500000   0.7500000   0.2500000  )
         7           C   tau(   7) = (   0.2500000   0.7500000   0.7500000  )
         8           C   tau(   8) = (   0.7500000   0.2500000   0.7500000  )

   Crystallographic axes

     site n.     atom                  positions (cryst. coord.)
         1           C   tau(   1) = (  0.0000000  0.0000000  0.0000000  )
         2           C   tau(   2) = (  0.5000000  0.5000000  0.0000000  )
         3           C   tau(   3) = (  0.0000000  0.5000000  0.5000000  )
         4           C   tau(   4) = (  0.5000000  0.0000000  0.5000000  )
         5           C   tau(   5) = (  0.2500000  0.2500000  0.2500000  )
         6           C   tau(   6) = (  0.7500000  0.7500000  0.2500000  )
         7           C   tau(   7) = (  0.2500000  0.7500000  0.7500000  )
         8           C   tau(   8) = (  0.7500000  0.2500000  0.7500000  )

     number of k points=   165  Marzari-Vanderbilt smearing, width (Ry)=  0.0200
                       cart. coord. in units 2pi/alat
        k(    1) = (   0.0000000   0.0000000   0.0000000), wk =   0.0004883
        k(    2) = (   0.0000000   0.0000000   0.0625000), wk =   0.0029297
        k(    3) = (   0.0000000   0.0000000   0.1250000), wk =   0.0029297
        k(    4) = (   0.0000000   0.0000000   0.1875000), wk =   0.0029297
        k(    5) = (   0.0000000   0.0000000   0.2500000), wk =   0.0029297
        k(    6) = (   0.0000000   0.0000000   0.3125000), wk =   0.0029297
        k(    7) = (   0.0000000   0.0000000   0.3750000), wk =   0.0029297
        k(    8) = (   0.0000000   0.0000000   0.4375000), wk =   0.0029297
        k(    9) = (   0.0000000   0.0000000  -0.5000000), wk =   0.0014648
        k(   10) = (   0.0000000   0.0625000   0.0625000), wk =   0.0058594
        k(   11) = (   0.0000000   0.0625000   0.1250000), wk =   0.0117188
        k(   12) = (   0.0000000   0.0625000   0.1875000), wk =   0.0117188
        k(   13) = (   0.0000000   0.0625000   0.2500000), wk =   0.0117188
        k(   14) = (   0.0000000   0.0625000   0.3125000), wk =   0.0117188
        k(   15) = (   0.0000000   0.0625000   0.3750000), wk =   0.0117188
        k(   16) = (   0.0000000   0.0625000   0.4375000), wk =   0.0117188
        k(   17) = (   0.0000000   0.0625000  -0.5000000), wk =   0.0058594
        k(   18) = (   0.0000000   0.1250000   0.1250000), wk =   0.0058594
        k(   19) = (   0.0000000   0.1250000   0.1875000), wk =   0.0117188
        k(   20) = (   0.0000000   0.1250000   0.2500000), wk =   0.0117188
        k(   21) = (   0.0000000   0.1250000   0.3125000), wk =   0.0117188
        k(   22) = (   0.0000000   0.1250000   0.3750000), wk =   0.0117188
        k(   23) = (   0.0000000   0.1250000   0.4375000), wk =   0.0117188
        k(   24) = (   0.0000000   0.1250000  -0.5000000), wk =   0.0058594
        k(   25) = (   0.0000000   0.1875000   0.1875000), wk =   0.0058594
        k(   26) = (   0.0000000   0.1875000   0.2500000), wk =   0.0117188
        k(   27) = (   0.0000000   0.1875000   0.3125000), wk =   0.0117188
        k(   28) = (   0.0000000   0.1875000   0.3750000), wk =   0.0117188
        k(   29) = (   0.0000000   0.1875000   0.4375000), wk =   0.0117188
        k(   30) = (   0.0000000   0.1875000  -0.5000000), wk =   0.0058594
        k(   31) = (   0.0000000   0.2500000   0.2500000), wk =   0.0058594
        k(   32) = (   0.0000000   0.2500000   0.3125000), wk =   0.0117188
        k(   33) = (   0.0000000   0.2500000   0.3750000), wk =   0.0117188
        k(   34) = (   0.0000000   0.2500000   0.4375000), wk =   0.0117188
        k(   35) = (   0.0000000   0.2500000  -0.5000000), wk =   0.0058594
        k(   36) = (   0.0000000   0.3125000   0.3125000), wk =   0.0058594
        k(   37) = (   0.0000000   0.3125000   0.3750000), wk =   0.0117188
        k(   38) = (   0.0000000   0.3125000   0.4375000), wk =   0.0117188
        k(   39) = (   0.0000000   0.3125000  -0.5000000), wk =   0.0058594
        k(   40) = (   0.0000000   0.3750000   0.3750000), wk =   0.0058594
        k(   41) = (   0.0000000   0.3750000   0.4375000), wk =   0.0117188
        k(   42) = (   0.0000000   0.3750000  -0.5000000), wk =   0.0058594
        k(   43) = (   0.0000000   0.4375000   0.4375000), wk =   0.0058594
        k(   44) = (   0.0000000   0.4375000  -0.5000000), wk =   0.0058594
        k(   45) = (   0.0000000  -0.5000000  -0.5000000), wk =   0.0014648
        k(   46) = (   0.0625000   0.0625000   0.0625000), wk =   0.0039062
        k(   47) = (   0.0625000   0.0625000   0.1250000), wk =   0.0117188
        k(   48) = (   0.0625000   0.0625000   0.1875000), wk =   0.0117188
        k(   49) = (   0.0625000   0.0625000   0.2500000), wk =   0.0117188
        k(   50) = (   0.0625000   0.0625000   0.3125000), wk =   0.0117188
        k(   51) = (   0.0625000   0.0625000   0.3750000), wk =   0.0117188
        k(   52) = (   0.0625000   0.0625000   0.4375000), wk =   0.0117188
        k(   53) = (   0.0625000   0.0625000  -0.5000000), wk =   0.0058594
        k(   54) = (   0.0625000   0.1250000   0.1250000), wk =   0.0117188
        k(   55) = (   0.0625000   0.1250000   0.1875000), wk =   0.0234375
        k(   56) = (   0.0625000   0.1250000   0.2500000), wk =   0.0234375
        k(   57) = (   0.0625000   0.1250000   0.3125000), wk =   0.0234375
        k(   58) = (   0.0625000   0.1250000   0.3750000), wk =   0.0234375
        k(   59) = (   0.0625000   0.1250000   0.4375000), wk =   0.0234375
        k(   60) = (   0.0625000   0.1250000  -0.5000000), wk =   0.0117188
        k(   61) = (   0.0625000   0.1875000   0.1875000), wk =   0.0117188
        k(   62) = (   0.0625000   0.1875000   0.2500000), wk =   0.0234375
        k(   63) = (   0.0625000   0.1875000   0.3125000), wk =   0.0234375
        k(   64) = (   0.0625000   0.1875000   0.3750000), wk =   0.0234375
        k(   65) = (   0.0625000   0.1875000   0.4375000), wk =   0.0234375
        k(   66) = (   0.0625000   0.1875000  -0.5000000), wk =   0.0117188
        k(   67) = (   0.0625000   0.2500000   0.2500000), wk =   0.0117188
        k(   68) = (   0.0625000   0.2500000   0.3125000), wk =   0.0234375
        k(   69) = (   0.0625000   0.2500000   0.3750000), wk =   0.0234375
        k(   70) = (   0.0625000   0.2500000   0.4375000), wk =   0.0234375
        k(   71) = (   0.0625000   0.2500000  -0.5000000), wk =   0.0117188
        k(   72) = (   0.0625000   0.3125000   0.3125000), wk =   0.0117188
        k(   73) = (   0.0625000   0.3125000   0.3750000), wk =   0.0234375
        k(   74) = (   0.0625000   0.3125000   0.4375000), wk =   0.0234375
        k(   75) = (   0.0625000   0.3125000  -0.5000000), wk =   0.0117188
        k(   76) = (   0.0625000   0.3750000   0.3750000), wk =   0.0117188
        k(   77) = (   0.0625000   0.3750000   0.4375000), wk =   0.0234375
        k(   78) = (   0.0625000   0.3750000  -0.5000000), wk =   0.0117188
        k(   79) = (   0.0625000   0.4375000   0.4375000), wk =   0.0117188
        k(   80) = (   0.0625000   0.4375000  -0.5000000), wk =   0.0117188
        k(   81) = (   0.0625000  -0.5000000  -0.5000000), wk =   0.0029297
        k(   82) = (   0.1250000   0.1250000   0.1250000), wk =   0.0039062
        k(   83) = (   0.1250000   0.1250000   0.1875000), wk =   0.0117188
        k(   84) = (   0.1250000   0.1250000   0.2500000), wk =   0.0117188
        k(   85) = (   0.1250000   0.1250000   0.3125000), wk =   0.0117188
        k(   86) = (   0.1250000   0.1250000   0.3750000), wk =   0.0117188
        k(   87) = (   0.1250000   0.1250000   0.4375000), wk =   0.0117188
        k(   88) = (   0.1250000   0.1250000  -0.5000000), wk =   0.0058594
        k(   89) = (   0.1250000   0.1875000   0.1875000), wk =   0.0117188
        k(   90) = (   0.1250000   0.1875000   0.2500000), wk =   0.0234375
        k(   91) = (   0.1250000   0.1875000   0.3125000), wk =   0.0234375
        k(   92) = (   0.1250000   0.1875000   0.3750000), wk =   0.0234375
        k(   93) = (   0.1250000   0.1875000   0.4375000), wk =   0.0234375
        k(   94) = (   0.1250000   0.1875000  -0.5000000), wk =   0.0117188
        k(   95) = (   0.1250000   0.2500000   0.2500000), wk =   0.0117188
        k(   96) = (   0.1250000   0.2500000   0.3125000), wk =   0.0234375
        k(   97) = (   0.1250000   0.2500000   0.3750000), wk =   0.0234375
        k(   98) = (   0.1250000   0.2500000   0.4375000), wk =   0.0234375
        k(   99) = (   0.1250000   0.2500000  -0.5000000), wk =   0.0117188
        k(  100) = (   0.1250000   0.3125000   0.3125000), wk =   0.0117188
        k(  101) = (   0.1250000   0.3125000   0.3750000), wk =   0.0234375
        k(  102) = (   0.1250000   0.3125000   0.4375000), wk =   0.0234375
        k(  103) = (   0.1250000   0.3125000  -0.5000000), wk =   0.0117188
        k(  104) = (   0.1250000   0.3750000   0.3750000), wk =   0.0117188
        k(  105) = (   0.1250000   0.3750000   0.4375000), wk =   0.0234375
        k(  106) = (   0.1250000   0.3750000  -0.5000000), wk =   0.0117188
        k(  107) = (   0.1250000   0.4375000   0.4375000), wk =   0.0117188
        k(  108) = (   0.1250000   0.4375000  -0.5000000), wk =   0.0117188
        k(  109) = (   0.1250000  -0.5000000  -0.5000000), wk =   0.0029297
        k(  110) = (   0.1875000   0.1875000   0.1875000), wk =   0.0039062
        k(  111) = (   0.1875000   0.1875000   0.2500000), wk =   0.0117188
        k(  112) = (   0.1875000   0.1875000   0.3125000), wk =   0.0117188
        k(  113) = (   0.1875000   0.1875000   0.3750000), wk =   0.0117188
        k(  114) = (   0.1875000   0.1875000   0.4375000), wk =   0.0117188
        k(  115) = (   0.1875000   0.1875000  -0.5000000), wk =   0.0058594
        k(  116) = (   0.1875000   0.2500000   0.2500000), wk =   0.0117188
        k(  117) = (   0.1875000   0.2500000   0.3125000), wk =   0.0234375
        k(  118) = (   0.1875000   0.2500000   0.3750000), wk =   0.0234375
        k(  119) = (   0.1875000   0.2500000   0.4375000), wk =   0.0234375
        k(  120) = (   0.1875000   0.2500000  -0.5000000), wk =   0.0117188
        k(  121) = (   0.1875000   0.3125000   0.3125000), wk =   0.0117188
        k(  122) = (   0.1875000   0.3125000   0.3750000), wk =   0.0234375
        k(  123) = (   0.1875000   0.3125000   0.4375000), wk =   0.0234375
        k(  124) = (   0.1875000   0.3125000  -0.5000000), wk =   0.0117188
        k(  125) = (   0.1875000   0.3750000   0.3750000), wk =   0.0117188
        k(  126) = (   0.1875000   0.3750000   0.4375000), wk =   0.0234375
        k(  127) = (   0.1875000   0.3750000  -0.5000000), wk =   0.0117188
        k(  128) = (   0.1875000   0.4375000   0.4375000), wk =   0.0117188
        k(  129) = (   0.1875000   0.4375000  -0.5000000), wk =   0.0117188
        k(  130) = (   0.1875000  -0.5000000  -0.5000000), wk =   0.0029297
        k(  131) = (   0.2500000   0.2500000   0.2500000), wk =   0.0039062
        k(  132) = (   0.2500000   0.2500000   0.3125000), wk =   0.0117188
        k(  133) = (   0.2500000   0.2500000   0.3750000), wk =   0.0117188
        k(  134) = (   0.2500000   0.2500000   0.4375000), wk =   0.0117188
        k(  135) = (   0.2500000   0.2500000  -0.5000000), wk =   0.0058594
        k(  136) = (   0.2500000   0.3125000   0.3125000), wk =   0.0117188
        k(  137) = (   0.2500000   0.3125000   0.3750000), wk =   0.0234375
        k(  138) = (   0.2500000   0.3125000   0.4375000), wk =   0.0234375
        k(  139) = (   0.2500000   0.3125000  -0.5000000), wk =   0.0117188
        k(  140) = (   0.2500000   0.3750000   0.3750000), wk =   0.0117188
        k(  141) = (   0.2500000   0.3750000   0.4375000), wk =   0.0234375
        k(  142) = (   0.2500000   0.3750000  -0.5000000), wk =   0.0117188
        k(  143) = (   0.2500000   0.4375000   0.4375000), wk =   0.0117188
        k(  144) = (   0.2500000   0.4375000  -0.5000000), wk =   0.0117188
        k(  145) = (   0.2500000  -0.5000000  -0.5000000), wk =   0.0029297
        k(  146) = (   0.3125000   0.3125000   0.3125000), wk =   0.0039062
        k(  147) = (   0.3125000   0.3125000   0.3750000), wk =   0.0117188
        k(  148) = (   0.3125000   0.3125000   0.4375000), wk =   0.0117188
        k(  149) = (   0.3125000   0.3125000  -0.5000000), wk =   0.0058594
        k(  150) = (   0.3125000   0.3750000   0.3750000), wk =   0.0117188
        k(  151) = (   0.3125000   0.3750000   0.4375000), wk =   0.0234375
        k(  152) = (   0.3125000   0.3750000  -0.5000000), wk =   0.0117188
        k(  153) = (   0.3125000   0.4375000   0.4375000), wk =   0.0117188
        k(  154) = (   0.3125000   0.4375000  -0.5000000), wk =   0.0117188
        k(  155) = (   0.3125000  -0.5000000  -0.5000000), wk =   0.0029297
        k(  156) = (   0.3750000   0.3750000   0.3750000), wk =   0.0039062
        k(  157) = (   0.3750000   0.3750000   0.4375000), wk =   0.0117188
        k(  158) = (   0.3750000   0.3750000  -0.5000000), wk =   0.0058594
        k(  159) = (   0.3750000   0.4375000   0.4375000), wk =   0.0117188
        k(  160) = (   0.3750000   0.4375000  -0.5000000), wk =   0.0117188
        k(  161) = (   0.3750000  -0.5000000  -0.5000000), wk =   0.0029297
        k(  162) = (   0.4375000   0.4375000   0.4375000), wk =   0.0039062
        k(  163) = (   0.4375000   0.4375000  -0.5000000), wk =   0.0058594
        k(  164) = (   0.4375000  -0.5000000  -0.5000000), wk =   0.0029297
        k(  165) = (  -0.5000000  -0.5000000  -0.5000000), wk =   0.0004883

                       cryst. coord.
        k(    1) = (   0.0000000   0.0000000   0.0000000), wk =   0.0004883
        k(    2) = (   0.0000000   0.0000000   0.0625000), wk =   0.0029297
        k(    3) = (   0.0000000   0.0000000   0.1250000), wk =   0.0029297
        k(    4) = (   0.0000000   0.0000000   0.1875000), wk =   0.0029297
        k(    5) = (   0.0000000   0.0000000   0.2500000), wk =   0.0029297
        k(    6) = (   0.0000000   0.0000000   0.3125000), wk =   0.0029297
        k(    7) = (   0.0000000   0.0000000   0.3750000), wk =   0.0029297
        k(    8) = (   0.0000000   0.0000000   0.4375000), wk =   0.0029297
        k(    9) = (   0.0000000   0.0000000  -0.5000000), wk =   0.0014648
        k(   10) = (   0.0000000   0.0625000   0.0625000), wk =   0.0058594
        k(   11) = (   0.0000000   0.0625000   0.1250000), wk =   0.0117188
        k(   12) = (   0.0000000   0.0625000   0.1875000), wk =   0.0117188
        k(   13) = (   0.0000000   0.0625000   0.2500000), wk =   0.0117188
        k(   14) = (   0.0000000   0.0625000   0.3125000), wk =   0.0117188
        k(   15) = (   0.0000000   0.0625000   0.3750000), wk =   0.0117188
        k(   16) = (   0.0000000   0.0625000   0.4375000), wk =   0.0117188
        k(   17) = (   0.0000000   0.0625000  -0.5000000), wk =   0.0058594
        k(   18) = (   0.0000000   0.1250000   0.1250000), wk =   0.0058594
        k(   19) = (   0.0000000   0.1250000   0.1875000), wk =   0.0117188
        k(   20) = (   0.0000000   0.1250000   0.2500000), wk =   0.0117188
        k(   21) = (   0.0000000   0.1250000   0.3125000), wk =   0.0117188
        k(   22) = (   0.0000000   0.1250000   0.3750000), wk =   0.0117188
        k(   23) = (   0.0000000   0.1250000   0.4375000), wk =   0.0117188
        k(   24) = (   0.0000000   0.1250000  -0.5000000), wk =   0.0058594
        k(   25) = (   0.0000000   0.1875000   0.1875000), wk =   0.0058594
        k(   26) = (   0.0000000   0.1875000   0.2500000), wk =   0.0117188
        k(   27) = (   0.0000000   0.1875000   0.3125000), wk =   0.0117188
        k(   28) = (   0.0000000   0.1875000   0.3750000), wk =   0.0117188
        k(   29) = (   0.0000000   0.1875000   0.4375000), wk =   0.0117188
        k(   30) = (   0.0000000   0.1875000  -0.5000000), wk =   0.0058594
        k(   31) = (   0.0000000   0.2500000   0.2500000), wk =   0.0058594
        k(   32) = (   0.0000000   0.2500000   0.3125000), wk =   0.0117188
        k(   33) = (   0.0000000   0.2500000   0.3750000), wk =   0.0117188
        k(   34) = (   0.0000000   0.2500000   0.4375000), wk =   0.0117188
        k(   35) = (   0.0000000   0.2500000  -0.5000000), wk =   0.0058594
        k(   36) = (   0.0000000   0.3125000   0.3125000), wk =   0.0058594
        k(   37) = (   0.0000000   0.3125000   0.3750000), wk =   0.0117188
        k(   38) = (   0.0000000   0.3125000   0.4375000), wk =   0.0117188
        k(   39) = (   0.0000000   0.3125000  -0.5000000), wk =   0.0058594
        k(   40) = (   0.0000000   0.3750000   0.3750000), wk =   0.0058594
        k(   41) = (   0.0000000   0.3750000   0.4375000), wk =   0.0117188
        k(   42) = (   0.0000000   0.3750000  -0.5000000), wk =   0.0058594
        k(   43) = (   0.0000000   0.4375000   0.4375000), wk =   0.0058594
        k(   44) = (   0.0000000   0.4375000  -0.5000000), wk =   0.0058594
        k(   45) = (   0.0000000  -0.5000000  -0.5000000), wk =   0.0014648
        k(   46) = (   0.0625000   0.0625000   0.0625000), wk =   0.0039062
        k(   47) = (   0.0625000   0.0625000   0.1250000), wk =   0.0117188
        k(   48) = (   0.0625000   0.0625000   0.1875000), wk =   0.0117188
        k(   49) = (   0.0625000   0.0625000   0.2500000), wk =   0.0117188
        k(   50) = (   0.0625000   0.0625000   0.3125000), wk =   0.0117188
        k(   51) = (   0.0625000   0.0625000   0.3750000), wk =   0.0117188
        k(   52) = (   0.0625000   0.0625000   0.4375000), wk =   0.0117188
        k(   53) = (   0.0625000   0.0625000  -0.5000000), wk =   0.0058594
        k(   54) = (   0.0625000   0.1250000   0.1250000), wk =   0.0117188
        k(   55) = (   0.0625000   0.1250000   0.1875000), wk =   0.0234375
        k(   56) = (   0.0625000   0.1250000   0.2500000), wk =   0.0234375
        k(   57) = (   0.0625000   0.1250000   0.3125000), wk =   0.0234375
        k(   58) = (   0.0625000   0.1250000   0.3750000), wk =   0.0234375
        k(   59) = (   0.0625000   0.1250000   0.4375000), wk =   0.0234375
        k(   60) = (   0.0625000   0.1250000  -0.5000000), wk =   0.0117188
        k(   61) = (   0.0625000   0.1875000   0.1875000), wk =   0.0117188
        k(   62) = (   0.0625000   0.1875000   0.2500000), wk =   0.0234375
        k(   63) = (   0.0625000   0.1875000   0.3125000), wk =   0.0234375
        k(   64) = (   0.0625000   0.1875000   0.3750000), wk =   0.0234375
        k(   65) = (   0.0625000   0.1875000   0.4375000), wk =   0.0234375
        k(   66) = (   0.0625000   0.1875000  -0.5000000), wk =   0.0117188
        k(   67) = (   0.0625000   0.2500000   0.2500000), wk =   0.0117188
        k(   68) = (   0.0625000   0.2500000   0.3125000), wk =   0.0234375
        k(   69) = (   0.0625000   0.2500000   0.3750000), wk =   0.0234375
        k(   70) = (   0.0625000   0.2500000   0.4375000), wk =   0.0234375
        k(   71) = (   0.0625000   0.2500000  -0.5000000), wk =   0.0117188
        k(   72) = (   0.0625000   0.3125000   0.3125000), wk =   0.0117188
        k(   73) = (   0.0625000   0.3125000   0.3750000), wk =   0.0234375
        k(   74) = (   0.0625000   0.3125000   0.4375000), wk =   0.0234375
        k(   75) = (   0.0625000   0.3125000  -0.5000000), wk =   0.0117188
        k(   76) = (   0.0625000   0.3750000   0.3750000), wk =   0.0117188
        k(   77) = (   0.0625000   0.3750000   0.4375000), wk =   0.0234375
        k(   78) = (   0.0625000   0.3750000  -0.5000000), wk =   0.0117188
        k(   79) = (   0.0625000   0.4375000   0.4375000), wk =   0.0117188
        k(   80) = (   0.0625000   0.4375000  -0.5000000), wk =   0.0117188
        k(   81) = (   0.0625000  -0.5000000  -0.5000000), wk =   0.0029297
        k(   82) = (   0.1250000   0.1250000   0.1250000), wk =   0.0039062
        k(   83) = (   0.1250000   0.1250000   0.1875000), wk =   0.0117188
        k(   84) = (   0.1250000   0.1250000   0.2500000), wk =   0.0117188
        k(   85) = (   0.1250000   0.1250000   0.3125000), wk =   0.0117188
        k(   86) = (   0.1250000   0.1250000   0.3750000), wk =   0.0117188
        k(   87) = (   0.1250000   0.1250000   0.4375000), wk =   0.0117188
        k(   88) = (   0.1250000   0.1250000  -0.5000000), wk =   0.0058594
        k(   89) = (   0.1250000   0.1875000   0.1875000), wk =   0.0117188
        k(   90) = (   0.1250000   0.1875000   0.2500000), wk =   0.0234375
        k(   91) = (   0.1250000   0.1875000   0.3125000), wk =   0.0234375
        k(   92) = (   0.1250000   0.1875000   0.3750000), wk =   0.0234375
        k(   93) = (   0.1250000   0.1875000   0.4375000), wk =   0.0234375
        k(   94) = (   0.1250000   0.1875000  -0.5000000), wk =   0.0117188
        k(   95) = (   0.1250000   0.2500000   0.2500000), wk =   0.0117188
        k(   96) = (   0.1250000   0.2500000   0.3125000), wk =   0.0234375
        k(   97) = (   0.1250000   0.2500000   0.3750000), wk =   0.0234375
        k(   98) = (   0.1250000   0.2500000   0.4375000), wk =   0.0234375
        k(   99) = (   0.1250000   0.2500000  -0.5000000), wk =   0.0117188
        k(  100) = (   0.1250000   0.3125000   0.3125000), wk =   0.0117188
        k(  101) = (   0.1250000   0.3125000   0.3750000), wk =   0.0234375
        k(  102) = (   0.1250000   0.3125000   0.4375000), wk =   0.0234375
        k(  103) = (   0.1250000   0.3125000  -0.5000000), wk =   0.0117188
        k(  104) = (   0.1250000   0.3750000   0.3750000), wk =   0.0117188
        k(  105) = (   0.1250000   0.3750000   0.4375000), wk =   0.0234375
        k(  106) = (   0.1250000   0.3750000  -0.5000000), wk =   0.0117188
        k(  107) = (   0.1250000   0.4375000   0.4375000), wk =   0.0117188
        k(  108) = (   0.1250000   0.4375000  -0.5000000), wk =   0.0117188
        k(  109) = (   0.1250000  -0.5000000  -0.5000000), wk =   0.0029297
        k(  110) = (   0.1875000   0.1875000   0.1875000), wk =   0.0039062
        k(  111) = (   0.1875000   0.1875000   0.2500000), wk =   0.0117188
        k(  112) = (   0.1875000   0.1875000   0.3125000), wk =   0.0117188
        k(  113) = (   0.1875000   0.1875000   0.3750000), wk =   0.0117188
        k(  114) = (   0.1875000   0.1875000   0.4375000), wk =   0.0117188
        k(  115) = (   0.1875000   0.1875000  -0.5000000), wk =   0.0058594
        k(  116) = (   0.1875000   0.2500000   0.2500000), wk =   0.0117188
        k(  117) = (   0.1875000   0.2500000   0.3125000), wk =   0.0234375
        k(  118) = (   0.1875000   0.2500000   0.3750000), wk =   0.0234375
        k(  119) = (   0.1875000   0.2500000   0.4375000), wk =   0.0234375
        k(  120) = (   0.1875000   0.2500000  -0.5000000), wk =   0.0117188
        k(  121) = (   0.1875000   0.3125000   0.3125000), wk =   0.0117188
        k(  122) = (   0.1875000   0.3125000   0.3750000), wk =   0.0234375
        k(  123) = (   0.1875000   0.3125000   0.4375000), wk =   0.0234375
        k(  124) = (   0.1875000   0.3125000  -0.5000000), wk =   0.0117188
        k(  125) = (   0.1875000   0.3750000   0.3750000), wk =   0.0117188
        k(  126) = (   0.1875000   0.3750000   0.4375000), wk =   0.0234375
        k(  127) = (   0.1875000   0.3750000  -0.5000000), wk =   0.0117188
        k(  128) = (   0.1875000   0.4375000   0.4375000), wk =   0.0117188
        k(  129) = (   0.1875000   0.4375000  -0.5000000), wk =   0.0117188
        k(  130) = (   0.1875000  -0.5000000  -0.5000000), wk =   0.0029297
        k(  131) = (   0.2500000   0.2500000   0.2500000), wk =   0.0039062
        k(  132) = (   0.2500000   0.2500000   0.3125000), wk =   0.0117188
        k(  133) = (   0.2500000   0.2500000   0.3750000), wk =   0.0117188
        k(  134) = (   0.2500000   0.2500000   0.4375000), wk =   0.0117188
        k(  135) = (   0.2500000   0.2500000  -0.5000000), wk =   0.0058594
        k(  136) = (   0.2500000   0.3125000   0.3125000), wk =   0.0117188
        k(  137) = (   0.2500000   0.3125000   0.3750000), wk =   0.0234375
        k(  138) = (   0.2500000   0.3125000   0.4375000), wk =   0.0234375
        k(  139) = (   0.2500000   0.3125000  -0.5000000), wk =   0.0117188
        k(  140) = (   0.2500000   0.3750000   0.3750000), wk =   0.0117188
        k(  141) = (   0.2500000   0.3750000   0.4375000), wk =   0.0234375
        k(  142) = (   0.2500000   0.3750000  -0.5000000), wk =   0.0117188
        k(  143) = (   0.2500000   0.4375000   0.4375000), wk =   0.0117188
        k(  144) = (   0.2500000   0.4375000  -0.5000000), wk =   0.0117188
        k(  145) = (   0.2500000  -0.5000000  -0.5000000), wk =   0.0029297
        k(  146) = (   0.3125000   0.3125000   0.3125000), wk =   0.0039062
        k(  147) = (   0.3125000   0.3125000   0.3750000), wk =   0.0117188
        k(  148) = (   0.3125000   0.3125000   0.4375000), wk =   0.0117188
        k(  149) = (   0.3125000   0.3125000  -0.5000000), wk =   0.0058594
        k(  150) = (   0.3125000   0.3750000   0.3750000), wk =   0.0117188
        k(  151) = (   0.3125000   0.3750000   0.4375000), wk =   0.0234375
        k(  152) = (   0.3125000   0.3750000  -0.5000000), wk =   0.0117188
        k(  153) = (   0.3125000   0.4375000   0.4375000), wk =   0.0117188
        k(  154) = (   0.3125000   0.4375000  -0.5000000), wk =   0.0117188
        k(  155) = (   0.3125000  -0.5000000  -0.5000000), wk =   0.0029297
        k(  156) = (   0.3750000   0.3750000   0.3750000), wk =   0.0039062
        k(  157) = (   0.3750000   0.3750000   0.4375000), wk =   0.0117188
        k(  158) = (   0.3750000   0.3750000  -0.5000000), wk =   0.0058594
        k(  159) = (   0.3750000   0.4375000   0.4375000), wk =   0.0117188
        k(  160) = (   0.3750000   0.4375000  -0.5000000), wk =   0.0117188
        k(  161) = (   0.3750000  -0.5000000  -0.5000000), wk =   0.0029297
        k(  162) = (   0.4375000   0.4375000   0.4375000), wk =   0.0039062
        k(  163) = (   0.4375000   0.4375000  -0.5000000), wk =   0.0058594
        k(  164) = (   0.4375000  -0.5000000  -0.5000000), wk =   0.0029297
        k(  165) = (  -0.5000000  -0.5000000  -0.5000000), wk =   0.0004883

     Dense  grid:    68507 G-vectors     FFT dimensions: (  54,  54,  54)

     Smooth grid:    29423 G-vectors     FFT dimensions: (  40,  40,  40)

     Dynamical RAM for                 wfc:       0.19 MB

     Dynamical RAM for     wfc (w. buffer):      31.21 MB

     Dynamical RAM for           str. fact:       0.17 MB

     Dynamical RAM for           local pot:       0.00 MB

     Dynamical RAM for          nlocal pot:       0.60 MB

     Dynamical RAM for                qrad:       0.58 MB

     Dynamical RAM for          rho,v,vnew:       1.12 MB

     Dynamical RAM for               rhoin:       0.37 MB

     Dynamical RAM for            rho*nmix:       2.79 MB

     Dynamical RAM for           G-vectors:       0.69 MB

     Dynamical RAM for          h,s,v(r/c):       0.29 MB

     Dynamical RAM for          <psi|beta>:       0.02 MB

     Dynamical RAM for                 psi:       0.75 MB

     Dynamical RAM for                hpsi:       0.75 MB

     Dynamical RAM for                spsi:       0.75 MB

     Dynamical RAM for      wfcinit/wfcrot:       0.63 MB

     Dynamical RAM for           addusdens:       8.89 MB

     Estimated static dynamical RAM per process >      38.89 MB

     Estimated max dynamical RAM per process >      47.78 MB

     Estimated total dynamical RAM >     286.66 MB

     Check: negative core charge=   -0.000003

     Initial potential from superposition of free atoms

     starting charge   31.99967, renormalised to   32.00000
     Starting wfcs are   32 randomized atomic wfcs

     total cpu time spent up to now is        4.7 secs

     Self-consistent Calculation

     iteration #  1     ecut=    80.00 Ry     beta= 0.70
     Davidson diagonalization with overlap
     ethr =  1.00E-02,  avg # of iterations =  2.7

     total cpu time spent up to now is       14.8 secs

     total energy              =     -99.31590490 Ry
     Harris-Foulkes estimate   =     -99.52683191 Ry
     estimated scf accuracy    <       0.47318588 Ry

     iteration #  2     ecut=    80.00 Ry     beta= 0.70
     Davidson diagonalization with overlap
     ethr =  1.48E-03,  avg # of iterations =  1.4

     total cpu time spent up to now is       21.4 secs

     total energy              =     -99.35011880 Ry
     Harris-Foulkes estimate   =     -99.35073382 Ry
     estimated scf accuracy    <       0.00960073 Ry

     iteration #  3     ecut=    80.00 Ry     beta= 0.70
     Davidson diagonalization with overlap
     ethr =  3.00E-05,  avg # of iterations =  6.7

     total cpu time spent up to now is       32.5 secs

     total energy              =     -99.35162256 Ry
     Harris-Foulkes estimate   =     -99.35156318 Ry
     estimated scf accuracy    <       0.00026599 Ry

     iteration #  4     ecut=    80.00 Ry     beta= 0.70
     Davidson diagonalization with overlap
     ethr =  8.31E-07,  avg # of iterations =  3.6

     total cpu time spent up to now is       41.1 secs

     total energy              =     -99.35165542 Ry
     Harris-Foulkes estimate   =     -99.35165634 Ry
     estimated scf accuracy    <       0.00000420 Ry

     iteration #  5     ecut=    80.00 Ry     beta= 0.70
     Davidson diagonalization with overlap
     ethr =  1.31E-08,  avg # of iterations =  2.4

     total cpu time spent up to now is       50.1 secs

     End of self-consistent calculation

          k = 0.0000 0.0000 0.0000 (  3743 PWs)   bands (ev):

    -8.1254   0.5840   0.5840   0.5841   0.5841   0.5841   0.5842   7.0362
     7.0362   7.0362   7.0363   7.0363   7.0363  13.3426  13.3426  13.3426
    18.1425  18.1425  18.1425  18.1425

     occupation numbers 
     1.0000   1.0000   1.0000   1.0000   1.0000   1.0000   1.0000   1.0000
     1.0000   1.0000   1.0000   1.0000   1.0000   1.0000   1.0000   1.0000
     0.0000   0.0000   0.0000   0.0000

          k = 0.0000 0.0000 0.0625 (  3743 PWs)   bands (ev):

    -8.0893  -0.3982   0.6072   0.6072   0.6072   0.6073   1.6005   6.9558
     6.9558   6.9558   6.9558   7.0715   7.0715  13.1912  13.1912  13.2534
    17.8745  18.2915  18.2915  18.2915

     occupation numbers 
     1.0000   1.0000   1.0000   1.0000   1.0000   1.0000   1.0000   1.0000
     1.0000   1.0000   1.0000   1.0000   1.0000   1.0000   1.0000   1.0000
     0.0000   0.0000   0.0000   0.0000

          k = 0.0000 0.0000 0.1250 (  3755 PWs)   bands (ev):

    -7.9812  -1.3392   0.6752   0.6752   0.6752   0.6753   2.6426   6.7308
     6.7308   6.7308   6.7308   7.1771   7.1771  12.7891  12.7891  12.9919
    17.6841  18.7220  18.7220  18.8399

     occupation numbers 
     1.0000   1.0000   1.0000   1.0000   1.0000   1.0000   1.0000   1.0000
     1.0000   1.0000   1.0000   1.0000   1.0000   1.0000   1.0000   1.0000
     0.0000   0.0000   0.0000   0.0000

          k = 0.0000 0.0000 0.1875 (  3731 PWs)   bands (ev):

    -7.8013  -2.2328   0.7833   0.7833   0.7833   0.7834   3.7007   6.4025
     6.4025   6.4025   6.4026   7.3524   7.3524  12.2369  12.2369  12.5738
    17.5652  18.7101  19.3928  19.3929

     occupation numbers 
     1.0000   1.0000   1.0000   1.0000   1.0000   1.0000   1.0000   1.0000
     1.0000   1.0000   1.0000   1.0000   1.0000   1.0000   1.0000   1.0000
     0.0000   0.0000   0.0000   0.0000

          k = 0.0000 0.0000 0.2500 (  3691 PWs)   bands (ev):

    -7.5498  -3.0740   0.9223   0.9224   0.9224   0.9224   4.7640   6.0229
     6.0229   6.0229   6.0230   7.5964   7.5964  11.6166  11.6166  12.0199
    17.5113  18.5457  20.1159  20.2520

     occupation numbers 
     1.0000   1.0000   1.0000   1.0000   1.0000   1.0000   1.0000   1.0000
     1.0000   1.0000   1.0000   1.0000   1.0000   1.0000   1.0000   1.0000
     0.0000   0.0000   0.0000   0.0000

          k = 0.0000 0.0000 0.3125 (  3703 PWs)   bands (ev):

    -7.2274  -3.8587   1.0774   1.0774   1.0774   1.0775   5.6446   5.6446
     5.6446   5.6447   5.8209   7.9075   7.9075  10.9795  10.9795  11.3513
    17.5163  18.3606  20.8590  21.2463

     occupation numbers 
     1.0000   1.0000   1.0000   1.0000   1.0000   1.0000   1.0000   1.0000
     1.0000   1.0000   1.0000   1.0000   1.0000   1.0000   1.0000   1.0000
     0.0000   0.0000   0.0000   0.0000

          k = 0.0000 0.0000 0.3750 (  3699 PWs)   bands (ev):

    -6.8347  -4.5834   1.2254   1.2254   1.2254   1.2255   5.3189   5.3189
     5.3189   5.3189   6.8592   8.2835   8.2835  10.3559  10.3559  10.5870
    17.5735  18.1687  21.7031  22.3187

     occupation numbers 
     1.0000   1.0000   1.0000   1.0000   1.0000   1.0000   1.0000   1.0000
     1.0000   1.0000   1.0000   1.0000   1.0000   1.0000   1.0000   1.0000
     0.0000   0.0000   0.0000   0.0000

          k = 0.0000 0.0000 0.4375 (  3700 PWs)   bands (ev):

    -6.3727  -5.2454   1.3354   1.3355   1.3355   1.3355   5.0952   5.0952
     5.0952   5.0952   7.8669   8.7213   8.7213   9.7427   9.7644   9.7644
    17.6758  17.9830  22.6366  23.3737

     occupation numbers 
     1.0000   1.0000   1.0000   1.0000   1.0000   1.0000   1.0000   1.0000
     1.0000   1.0000   1.0000   1.0000   1.0000   1.0000   1.0000   1.0000
     0.0000   0.0000   0.0000   0.0000

          k = 0.0000 0.0000-0.5000 (  3668 PWs)   bands (ev):

    -5.8424  -5.8424   1.3767   1.3767   1.3767   1.3768   5.0149   5.0150
     5.0150   5.0150   8.8320   8.8320   9.2167   9.2167   9.2168   9.2168
    17.8153  17.8154  23.6333  23.6334

     occupation numbers 
     1.0000   1.0000   1.0000   1.0000   1.0000   1.0000   1.0000   1.0000
     1.0000   1.0000   1.0000   1.0000   1.0000   1.0000   1.0000   1.0000
     0.0000   0.0000   0.0000   0.0000

          k = 0.0000 0.0625 0.0625 (  3743 PWs)   bands (ev):

    -8.0533  -0.3715  -0.3715   0.6108   0.6488   1.6185   1.6185   6.6695
     6.9854   6.9855   6.9984   6.9984   7.0967  12.9254  13.0433  13.2981
    18.0262  18.0263  18.2011  18.6402

     occupation numbers 
     1.0000   1.0000   1.0000   1.0000   1.0000   1.0000   1.0000   1.0000
     1.0000   1.0000   1.0000   1.0000   1.0000   1.0000   1.0000   1.0000
     0.0000   0.0000   0.0000   0.0000

          k = 0.0000 0.0625 0.1250 (  3746 PWs)   bands (ev):

    -7.9452  -1.3100  -0.2924   0.6551   0.7364   1.6702   2.6528   6.2786
     6.7442   6.7949   7.0768   7.0865   7.1139  12.4572  12.6487  13.1453
    17.8382  18.4075  18.4644  18.9849

     occupation numbers 
     1.0000   1.0000   1.0000   1.0000   1.0000   1.0000   1.0000   1.0000
     1.0000   1.0000   1.0000   1.0000   1.0000   1.0000   1.0000   1.0000
     0.0000   0.0000   0.0000   0.0000

          k = 0.0000 0.0625 0.1875 (  3717 PWs)   bands (ev):

    -7.7653  -2.2018  -0.1639   0.7314   0.8684   1.7481   3.6991   5.8351
     6.3900   6.5021   6.9132   7.2580   7.3032  11.8768  12.1042  12.7983
    17.7210  18.8609  18.8913  19.1454

     occupation numbers 
     1.0000   1.0000   1.0000   1.0000   1.0000   1.0000   1.0000   1.0000
     1.0000   1.0000   1.0000   1.0000   1.0000   1.0000   1.0000   1.0000
     0.0000   0.0000   0.0000   0.0000

          k = 0.0000 0.0625 0.2500 (  3715 PWs)   bands (ev):

    -7.5140  -3.0417   0.0079   0.8248   1.0393   1.8386   4.7435   5.3925
     5.9742   6.1740   6.6474   7.4987   7.5681  11.2381  11.4905  12.2961
    17.6686  18.6992  19.6083  20.0169

     occupation numbers 
     1.0000   1.0000   1.0000   1.0000   1.0000   1.0000   1.0000   1.0000
     1.0000   1.0000   1.0000   1.0000   1.0000   1.0000   1.0000   1.0000
     0.0000   0.0000   0.0000   0.0000

          k = 0.0000 0.0625 0.3125 (  3709 PWs)   bands (ev):

    -7.1917  -3.8254   0.2132   0.9120   1.2401   1.9197   5.0039   5.5458
     5.7691   5.8679   6.3307   7.8067   7.9119  10.5753  10.8586  11.6764
    17.6745  18.5160  20.5033  21.0259

     occupation numbers 
     1.0000   1.0000   1.0000   1.0000   1.0000   1.0000   1.0000   1.0000
     1.0000   1.0000   1.0000   1.0000   1.0000   1.0000   1.0000   1.0000
     0.0000   0.0000   0.0000   0.0000

          k = 0.0000 0.0625 0.3750 (  3699 PWs)   bands (ev):

    -6.7993  -4.5494   0.4362   0.9609   1.4555   1.9624   4.7214   5.1501
     5.6398   6.0144   6.7538   8.1797   8.3424   9.9037  10.2393  10.9752
    17.7322  18.3255  21.5165  21.8218

     occupation numbers 
     1.0000   1.0000   1.0000   1.0000   1.0000   1.0000   1.0000   1.0000
     1.0000   1.0000   1.0000   1.0000   1.0000   1.0000   1.0000   1.0000
     0.0000   0.0000   0.0000   0.0000

          k = 0.0000 0.0625 0.4375 (  3685 PWs)   bands (ev):

    -6.3374  -5.2109   0.6530   0.9390   1.6632   1.9377   4.5903   4.8307
     5.5353   5.7473   7.6685   8.6146   8.8727   9.2181   9.6515  10.2344
    17.8347  18.1409  22.5722  22.7481

     occupation numbers 
     1.0000   1.0000   1.0000   1.0000   1.0000   1.0000   1.0000   1.0000
     1.0000   1.0000   1.0000   1.0000   1.0000   1.0000   1.0000   1.0000
     0.0000   0.0000   0.0000   0.0000

          k = 0.0000 0.0625-0.5000 (  3692 PWs)   bands (ev):

    -5.8075  -5.8075   0.8314   0.8315   1.8336   1.8336   4.6314   4.6314
     5.5754   5.5754   8.4870   8.4871   9.1071   9.1071   9.5123   9.5123
    17.9739  17.9739  23.4720  23.4721

     occupation numbers 
     1.0000   1.0000   1.0000   1.0000   1.0000   1.0000   1.0000   1.0000
     1.0000   1.0000   1.0000   1.0000   1.0000   1.0000   1.0000   1.0000
     0.0000   0.0000   0.0000   0.0000

          k = 0.0000 0.1250 0.1250 (  3723 PWs)   bands (ev):

    -7.8373  -1.2231  -1.2231   0.6677   0.8426   2.6801   2.6801   5.7719
     6.8325   6.8325   6.9400   6.9400   7.2765  11.9213  12.2709  13.1618
    18.2821  18.2821  18.3759  19.2450

     occupation numbers 
     1.0000   1.0000   1.0000   1.0000   1.0000   1.0000   1.0000   1.0000
     1.0000   1.0000   1.0000   1.0000   1.0000   1.0000   1.0000   1.0000
     0.0000   0.0000   0.0000   0.0000

          k = 0.0000 0.1250 0.1875 (  3714 PWs)   bands (ev):

    -7.6576  -2.1094  -1.0806   0.6983   0.9944   2.7130   3.6889   5.2649
     6.4587   6.6974   6.9934   7.1717   7.3156  11.3055  11.7444  12.9630
    18.1693  18.6375  18.9706  19.2446

     occupation numbers 
     1.0000   1.0000   1.0000   1.0000   1.0000   1.0000   1.0000   1.0000
     1.0000   1.0000   1.0000   1.0000   1.0000   1.0000   1.0000   1.0000
     0.0000   0.0000   0.0000   0.0000

          k = 0.0000 0.1250 0.2500 (  3697 PWs)   bands (ev):

    -7.4066  -2.9453  -0.8864   0.7236   1.1895   2.7317   4.6755   4.8114
     6.0166   6.4429   7.2120   7.2250   7.4986  10.6506  11.1460  12.5719
    18.1199  19.1149  19.1698  19.8495

     occupation numbers 
     1.0000   1.0000   1.0000   1.0000   1.0000   1.0000   1.0000   1.0000
     1.0000   1.0000   1.0000   1.0000   1.0000   1.0000   1.0000   1.0000
     0.0000   0.0000   0.0000   0.0000

          k = 0.0000 0.1250 0.3125 (  3699 PWs)   bands (ev):

    -7.0848  -3.7260  -0.6472   0.7108   1.4224   2.7094   4.4660   5.5534
     5.6135   6.2365   7.0067   7.5249   7.9330   9.9818  10.5268  12.0280
    18.1274  18.9463  19.9254  20.8677

     occupation numbers 
     1.0000   1.0000   1.0000   1.0000   1.0000   1.0000   1.0000   1.0000
     1.0000   1.0000   1.0000   1.0000   1.0000   1.0000   1.0000   1.0000
     0.0000   0.0000   0.0000   0.0000

          k = 0.0000 0.1250 0.3750 (  3696 PWs)   bands (ev):

    -6.6929  -4.4478  -0.3732   0.6256   1.6835   2.6201   4.2770   5.1099
     6.1285   6.4768   6.7498   7.8903   8.4855   9.3122   9.9179  11.3723
    18.1854  18.7649  20.8448  21.9791

     occupation numbers 
     1.0000   1.0000   1.0000   1.0000   1.0000   1.0000   1.0000   1.0000
     1.0000   1.0000   1.0000   1.0000   1.0000   1.0000   1.0000   1.0000
     0.0000   0.0000   0.0000   0.0000

          k = 0.0000 0.1250 0.4375 (  3687 PWs)   bands (ev):

    -6.2318  -5.1075  -0.0808   0.4521   1.9579   2.4539   4.2686   4.7226
     6.1439   6.4907   7.2551   8.3178   8.6440   9.1491   9.3390  10.6444
    18.2868  18.5864  21.8582  23.0715

     occupation numbers 
     1.0000   1.0000   1.0000   1.0000   1.0000   1.0000   1.0000   1.0000
     1.0000   1.0000   1.0000   1.0000   1.0000   1.0000   1.0000   1.0000
     0.0000   0.0000   0.0000   0.0000

          k = 0.0000 0.1250-0.5000 (  3694 PWs)   bands (ev):

    -5.7029  -5.7028   0.2054   0.2055   2.2240   2.2241   4.4288   4.4289
     6.2750   6.2750   7.9666   7.9667   8.8027   8.8027   9.8866   9.8866
    18.4235  18.4235  22.8491  22.8491

     occupation numbers 
     1.0000   1.0000   1.0000   1.0000   1.0000   1.0000   1.0000   1.0000
     1.0000   1.0000   1.0000   1.0000   1.0000   1.0000   1.0000   1.0000
     0.0000   0.0000   0.0000   0.0000

          k = 0.0000 0.1875 0.1875 (  3711 PWs)   bands (ev):

    -7.4783  -1.9570  -1.9569   0.6608   1.1650   3.6544   3.6544   4.7467
     6.6041   6.6041   7.0008   7.0009   7.5710  10.6729  11.2374  12.9260
    18.6640  18.8627  18.8627  19.6081

     occupation numbers 
     1.0000   1.0000   1.0000   1.0000   1.0000   1.0000   1.0000   1.0000
     1.0000   1.0000   1.0000   1.0000   1.0000   1.0000   1.0000   1.0000
     0.0000   0.0000   0.0000   0.0000

          k = 0.0000 0.1875 0.2500 (  3699 PWs)   bands (ev):

    -7.2279  -2.7857  -1.7473   0.5856   1.3804   3.5723   4.3366   4.5444
     6.1422   6.8228   6.8474   7.4274   7.6661  10.0143  10.6564  12.6785
    18.8155  18.9771  19.6669  19.7453

     occupation numbers 
     1.0000   1.0000   1.0000   1.0000   1.0000   1.0000   1.0000   1.0000
     1.0000   1.0000   1.0000   1.0000   1.0000   1.0000   1.0000   1.0000
     0.0000   0.0000   0.0000   0.0000

          k = 0.0000 0.1875 0.3125 (  3696 PWs)   bands (ev):

    -6.9068  -3.5612  -1.4847   0.4372   1.6377   3.4211   4.0853   5.3587
     5.6543   6.7627   7.1116   7.6189   7.9860   9.3503  10.0516  12.2439
    18.8230  19.5513  19.5630  20.7659

     occupation numbers 
     1.0000   1.0000   1.0000   1.0000   1.0000   1.0000   1.0000   1.0000
     1.0000   1.0000   1.0000   1.0000   1.0000   1.0000   1.0000   1.0000
     0.0000   0.0000   0.0000   0.0000

          k = 0.0000 0.1875 0.3750 (  3693 PWs)   bands (ev):

    -6.5159  -4.2790  -1.1762   0.1987   1.9312   3.1942   4.0200   5.1779
     6.0922   6.7749   7.4669   7.4700   8.6643   8.6930   9.4549  11.6598
    18.8784  19.4125  20.3356  21.8795

     occupation numbers 
     1.0000   1.0000   1.0000   1.0000   1.0000   1.0000   1.0000   1.0000
     1.0000   1.0000   1.0000   1.0000   1.0000   1.0000   1.0000   1.0000
     0.0000   0.0000   0.0000   0.0000

          k = 0.0000 0.1875 0.4375 (  3700 PWs)   bands (ev):

    -6.0562  -4.9359  -0.8326  -0.1154   2.2512   2.9062   4.1310   4.7448
     6.7653   6.8814   7.2674   7.8848   8.0468   8.8867   9.4221  10.9670
    18.9744  19.2528  21.2650  23.2611

     occupation numbers 
     1.0000   1.0000   1.0000   1.0000   1.0000   1.0000   1.0000   1.0000
     1.0000   1.0000   1.0000   1.0000   1.0000   1.0000   1.0000   1.0000
     0.0000   0.0000   0.0000   0.0000

          k = 0.0000 0.1875-0.5000 (  3688 PWs)   bands (ev):

    -5.5290  -5.5289  -0.4706  -0.4706   2.5831   2.5831   4.3849   4.3849
     7.0574   7.0574   7.4087   7.4087   8.3602   8.3602  10.2064  10.2064
    19.1025  19.1026  22.2528  22.2528

     occupation numbers 
     1.0000   1.0000   1.0000   1.0000   1.0000   1.0000   1.0000   1.0000
     1.0000   1.0000   1.0000   1.0000   1.0000   1.0000   1.0000   1.0000
     0.0000   0.0000   0.0000   0.0000

          k = 0.0000 0.2500 0.2500 (  3708 PWs)   bands (ev):

    -6.9782  -2.5650  -2.5649   0.3744   1.6149   4.0209   4.3362   4.3362
     6.3454   6.3454   7.3974   7.3975   7.9721   9.3604  10.0909  12.5838
    19.0589  19.6982  19.6982  20.1112

     occupation numbers 
     1.0000   1.0000   1.0000   1.0000   1.0000   1.0000   1.0000   1.0000
     1.0000   1.0000   1.0000   1.0000   1.0000   1.0000   1.0000   1.0000
     0.0000   0.0000   0.0000   0.0000

          k = 0.0000 0.2500 0.3125 (  3692 PWs)   bands (ev):

    -6.6583  -3.3324  -2.2861   0.0718   1.8929   3.8938   4.0513   5.0199
     5.8390   6.6214   7.4343   8.0794   8.1180   8.7070   9.4994  12.2863
    19.4178  19.7018  20.2357  20.7154

     occupation numbers 
     1.0000   1.0000   1.0000   1.0000   1.0000   1.0000   1.0000   1.0000
     1.0000   1.0000   1.0000   1.0000   1.0000   1.0000   1.0000   1.0000
     0.0000   0.0000   0.0000   0.0000

          k = 0.0000 0.2500 0.3750 (  3698 PWs)   bands (ev):

    -6.2689  -4.0443  -1.9539  -0.3084   2.2113   3.7069   3.9482   5.3395
     5.6447   6.9656   7.5384   8.0652   8.1218   8.8520   8.9141  11.8078
    19.7492  20.0245  20.1772  21.8221

     occupation numbers 
     1.0000   1.0000   1.0000   1.0000   1.0000   1.0000   1.0000   1.0000
     1.0000   1.0000   1.0000   1.0000   1.0000   1.0000   1.0000   1.0000
     0.0000   0.0000   0.0000   0.0000

          k = 0.0000 0.2500 0.4375 (  3696 PWs)   bands (ev):

    -5.8111  -4.6967  -1.5757  -0.7314   2.5639   3.3286   4.1523   4.8754
     6.2414   7.3735   7.4411   7.6915   8.0223   8.3561   9.6608  11.1834
    19.8324  20.0637  20.8245  22.8302

     occupation numbers 
     1.0000   1.0000   1.0000   1.0000   1.0000   1.0000   1.0000   1.0000
     1.0000   1.0000   1.0000   1.0000   1.0000   1.0000   1.0000   1.0000
     0.0000   0.0000   0.0000   0.0000

          k = 0.0000 0.2500-0.5000 (  3712 PWs)   bands (ev):

    -5.2865  -5.2864  -1.1625  -1.1624   2.9411   2.9411   4.4712   4.4713
     6.8352   6.8352   7.8393   7.8393   7.8648   7.8648  10.4535  10.4535
    19.9417  19.9417  21.7456  21.7457

     occupation numbers 
     1.0000   1.0000   1.0000   1.0000   1.0000   1.0000   1.0000   1.0000
     1.0000   1.0000   1.0000   1.0000   1.0000   1.0000   1.0000   1.0000
     0.0000   0.0000   0.0000   0.0000

          k = 0.0000 0.3125 0.3125 (  3696 PWs)   bands (ev):

    -6.3399  -3.0419  -3.0419  -0.3729   2.1907   3.8866   4.6218   4.6219
     6.1005   6.1006   8.0674   8.2096   8.2097   8.4676   8.9193  12.1354
    19.5494  20.7098  20.7099  20.7486

     occupation numbers 
     1.0000   1.0000   1.0000   1.0000   1.0000   1.0000   1.0000   1.0000
     1.0000   1.0000   1.0000   1.0000   1.0000   1.0000   1.0000   1.0000
     0.0000   0.0000   0.0000   0.0000

          k = 0.0000 0.3125 0.3750 (  3693 PWs)   bands (ev):

    -5.9526  -3.7454  -2.6931  -0.8622   2.5302   4.0339   4.1908   5.1645
     5.5841   6.4330   7.4427   8.3440   8.3627   8.6569   9.0332  11.7910
    19.9445  20.7417  20.9402  21.8008

     occupation numbers 
     1.0000   1.0000   1.0000   1.0000   1.0000   1.0000   1.0000   1.0000
     1.0000   1.0000   1.0000   1.0000   1.0000   1.0000   1.0000   1.0000
     0.0000   0.0000   0.0000   0.0000

          k = 0.0000 0.3125 0.4375 (  3694 PWs)   bands (ev):

    -5.4975  -4.3914  -2.2910  -1.3610   2.9081   3.7501   4.3023   5.0983
     5.7054   6.8307   6.8397   7.7952   8.5169   8.7032   9.8504  11.2721
    20.5702  20.8013  20.9388  22.4005

     occupation numbers 
     1.0000   1.0000   1.0000   1.0000   1.0000   1.0000   1.0000   1.0000
     1.0000   1.0000   1.0000   1.0000   1.0000   1.0000   1.0000   1.0000
     0.0000   0.0000   0.0000   0.0000

          k = 0.0000 0.3125-0.5000 (  3698 PWs)   bands (ev):

    -4.9765  -4.9764  -1.8432  -1.8431   3.3179   3.3179   4.6644   4.6644
     6.2612   6.2612   7.2874   7.2874   8.6427   8.6427  10.6117  10.6117
    20.8749  20.8750  21.3685  21.3685

     occupation numbers 
     1.0000   1.0000   1.0000   1.0000   1.0000   1.0000   1.0000   1.0000
     1.0000   1.0000   1.0000   1.0000   1.0000   1.0000   1.0000   1.0000
     0.0000   0.0000   0.0000   0.0000

          k = 0.0000 0.3750 0.3750 (  3682 PWs)   bands (ev):

    -5.5680  -3.3846  -3.3846  -1.4273   2.8900   4.2452   4.6737   4.6737
     5.9035   5.9035   6.8363   7.7778   9.0409   9.1915   9.1916  11.5926
    20.1154  21.5123  21.8063  21.8064

     occupation numbers 
     1.0000   1.0000   1.0000   1.0000   1.0000   1.0000   1.0000   1.0000
     1.0000   1.0000   1.0000   1.0000   1.0000   1.0000   1.0000   1.0000
     0.0000   0.0000   0.0000   0.0000

          k = 0.0000 0.3750 0.4375 (  3687 PWs)   bands (ev):

    -5.1167  -4.0220  -2.9657  -1.9773   3.2895   4.1895   4.5563   5.1732
     5.4019   6.2534   6.2905   7.2374   9.2633   9.3042   9.9730  11.2102
    20.5309  21.7697  21.8252  22.0316

     occupation numbers 
     1.0000   1.0000   1.0000   1.0000   1.0000   1.0000   1.0000   1.0000
     1.0000   1.0000   1.0000   1.0000   1.0000   1.0000   1.0000   1.0000
     0.0000   0.0000   0.0000   0.0000

          k = 0.0000 0.3750-0.5000 (  3688 PWs)   bands (ev):

    -4.6005  -4.6004  -2.4940  -2.4940   3.7249   3.7249   4.9474   4.9474
     5.6987   5.6987   6.7380   6.7380   9.3402   9.3402  10.6599  10.6599
    21.1550  21.1551  21.8314  21.8315

     occupation numbers 
     1.0000   1.0000   1.0000   1.0000   1.0000   1.0000   1.0000   1.0000
     1.0000   1.0000   1.0000   1.0000   1.0000   1.0000   1.0000   1.0000
     0.0000   0.0000   0.0000   0.0000

          k = 0.0000 0.4375 0.4375 (  3682 PWs)   bands (ev):

    -4.6702  -3.5910  -3.5910  -2.5618   3.7097   4.6572   4.6572   4.8961
     5.6908   5.7769   5.7769   6.7052   9.6697  10.0037  10.0038  10.9790
    20.7212  21.7219  21.7220  21.7756

     occupation numbers 
     1.0000   1.0000   1.0000   1.0000   1.0000   1.0000   1.0000   1.0000
     1.0000   1.0000   1.0000   1.0000   1.0000   1.0000   1.0000   1.0000
     0.0000   0.0000   0.0000   0.0000

          k = 0.0000 0.4375-0.5000 (  3682 PWs)   bands (ev):

    -4.1607  -4.1606  -3.1025  -3.1024   4.1671   4.1671   5.1576   5.1577
     5.3073   5.3074   6.2144   6.2145   9.9121   9.9121  10.5725  10.5725
    21.1309  21.1309  21.6680  21.6680

     occupation numbers 
     1.0000   1.0000   1.0000   1.0000   1.0000   1.0000   1.0000   1.0000
     1.0000   1.0000   1.0000   1.0000   1.0000   1.0000   1.0000   1.0000
     0.0000   0.0000   0.0000   0.0000

          k = 0.0000-0.5000-0.5000 (  3676 PWs)   bands (ev):

    -3.6600  -3.6599  -3.6599  -3.6598   4.6454   4.6454   4.6454   4.6455
     5.7333   5.7333   5.7333   5.7334  10.3265  10.3265  10.3266  10.3266
    21.3064  21.3064  21.3064  21.3065

     occupation numbers 
     1.0000   1.0000   1.0000   1.0000   1.0000   1.0000   1.0000   1.0000
     1.0000   1.0000   1.0000   1.0000   1.0000   1.0000   1.0000   1.0000
     0.0000   0.0000   0.0000   0.0000

          k = 0.0625 0.0625 0.0625 (  3749 PWs)   bands (ev):

    -8.0172  -0.3453  -0.3453  -0.3453   1.6355   1.6355   1.6356   6.7085
     6.7085   6.7086   7.1317   7.1317   7.1317  12.6107  13.1533  13.1533
    18.0924  18.0924  18.0924  18.8570

     occupation numbers 
     1.0000   1.0000   1.0000   1.0000   1.0000   1.0000   1.0000   1.0000
     1.0000   1.0000   1.0000   1.0000   1.0000   1.0000   1.0000   1.0000
     0.0000   0.0000   0.0000   0.0000

          k = 0.0625 0.0625 0.1250 (  3741 PWs)   bands (ev):

    -7.9092  -1.2811  -0.2680  -0.2679   1.6840   1.6841   2.6610   6.3225
     6.3226   6.8262   7.1128   7.1128   7.2366  12.0967  12.7660  13.0836
    17.9428  18.3580  18.3580  19.1301

     occupation numbers 
     1.0000   1.0000   1.0000   1.0000   1.0000   1.0000   1.0000   1.0000
     1.0000   1.0000   1.0000   1.0000   1.0000   1.0000   1.0000   1.0000
     0.0000   0.0000   0.0000   0.0000

          k = 0.0625 0.0625 0.1875 (  3720 PWs)   bands (ev):

    -7.7294  -2.1710  -0.1432  -0.1432   1.7559   1.7560   3.6933   5.8863
     5.8864   6.9532   6.9533   7.0248   7.4107  11.4902  12.2299  12.8017
    17.8417  18.8674  18.8674  19.0046

     occupation numbers 
     1.0000   1.0000   1.0000   1.0000   1.0000   1.0000   1.0000   1.0000
     1.0000   1.0000   1.0000   1.0000   1.0000   1.0000   1.0000   1.0000
     0.0000   0.0000   0.0000   0.0000

          k = 0.0625 0.0625 0.2500 (  3704 PWs)   bands (ev):

    -7.4782  -3.0096   0.0215   0.0215   1.8362   1.8362   4.7147   5.4541
     5.4542   6.6959   6.6960   7.3092   7.6530  10.8388  11.6239  12.3432
    17.7983  18.8433  19.5973  19.5973

     occupation numbers 
     1.0000   1.0000   1.0000   1.0000   1.0000   1.0000   1.0000   1.0000
     1.0000   1.0000   1.0000   1.0000   1.0000   1.0000   1.0000   1.0000
     0.0000   0.0000   0.0000   0.0000

          k = 0.0625 0.0625 0.3125 (  3701 PWs)   bands (ev):

    -7.1561  -3.7923   0.2126   0.2126   1.9030   1.9031   5.0778   5.0778
     5.7012   6.3953   6.3953   7.6895   7.9617  10.1727  10.9986  11.7486
    17.8099  18.6606  20.4992  20.4994

     occupation numbers 
     1.0000   1.0000   1.0000   1.0000   1.0000   1.0000   1.0000   1.0000
     1.0000   1.0000   1.0000   1.0000   1.0000   1.0000   1.0000   1.0000
     0.0000   0.0000   0.0000   0.0000

          k = 0.0625 0.0625 0.3750 (  3692 PWs)   bands (ev):

    -6.7638  -4.5155   0.4061   0.4062   1.9347   1.9348   4.8013   4.8013
     6.1093   6.1094   6.6206   8.1827   8.3346   9.5079  10.3845  11.0554
    17.8715  18.4703  21.5161  21.5162

     occupation numbers 
     1.0000   1.0000   1.0000   1.0000   1.0000   1.0000   1.0000   1.0000
     1.0000   1.0000   1.0000   1.0000   1.0000   1.0000   1.0000   1.0000
     0.0000   0.0000   0.0000   0.0000

          k = 0.0625 0.0625 0.4375 (  3689 PWs)   bands (ev):

    -6.3022  -5.1764   0.5614   0.5615   1.9294   1.9294   4.6453   4.6454
     5.8984   5.8985   7.4426   8.7685   8.8027   8.8460   9.8006  10.3004
    17.9766  18.2854  22.5663  22.5663

     occupation numbers 
     1.0000   1.0000   1.0000   1.0000   1.0000   1.0000   1.0000   1.0000
     1.0000   1.0000   1.0000   1.0000   1.0000   1.0000   1.0000   1.0000
     0.0000   0.0000   0.0000   0.0000

          k = 0.0625 0.0625-0.5000 (  3690 PWs)   bands (ev):

    -5.7726  -5.7726   0.6234   0.6234   1.9191   1.9191   4.5980   4.5981
     5.8194   5.8194   8.1705   8.1705   9.2591   9.2592   9.5290   9.5290
    18.1174  18.1175  23.2713  23.2714

     occupation numbers 
     1.0000   1.0000   1.0000   1.0000   1.0000   1.0000   1.0000   1.0000
     1.0000   1.0000   1.0000   1.0000   1.0000   1.0000   1.0000   1.0000
     0.0000   0.0000   0.0000   0.0000

          k = 0.0625 0.1250 0.1250 (  3717 PWs)   bands (ev):

    -7.8013  -1.1951  -1.1951  -0.1965   1.7224   2.6813   2.6813   5.8263
     6.4562   6.4562   7.2212   7.2212   7.3108  11.5343  12.5145  13.0349
    18.2681  18.2681  18.3684  19.3953

     occupation numbers 
     1.0000   1.0000   1.0000   1.0000   1.0000   1.0000   1.0000   1.0000
     1.0000   1.0000   1.0000   1.0000   1.0000   1.0000   1.0000   1.0000
     0.0000   0.0000   0.0000   0.0000

          k = 0.0625 0.1250 0.1875 (  3711 PWs)   bands (ev):

    -7.6217  -2.0791  -1.0545  -0.0843   1.7747   2.6999   3.6692   5.3359
     6.0429   6.6851   7.0753   7.3506   7.4028  10.9001  12.0200  12.8630
    18.2014  18.6449  18.8201  19.3739

     occupation numbers 
     1.0000   1.0000   1.0000   1.0000   1.0000   1.0000   1.0000   1.0000
     1.0000   1.0000   1.0000   1.0000   1.0000   1.0000   1.0000   1.0000
     0.0000   0.0000   0.0000   0.0000

          k = 0.0625 0.1250 0.2500 (  3704 PWs)   bands (ev):

    -7.3708  -2.9135  -0.8638   0.0553   1.8240   2.6929   4.6198   4.9097
     5.6406   6.8470   7.0187   7.2503   7.6608  10.2356  11.4376  12.5017
    18.1790  19.1836  19.2357  19.5761

     occupation numbers 
     1.0000   1.0000   1.0000   1.0000   1.0000   1.0000   1.0000   1.0000
     1.0000   1.0000   1.0000   1.0000   1.0000   1.0000   1.0000   1.0000
     0.0000   0.0000   0.0000   0.0000

          k = 0.0625 0.1250 0.3125 (  3703 PWs)   bands (ev):

    -7.0492  -3.6931  -0.6309   0.1959   1.8548   2.6307   4.6042   5.2924
     5.4991   6.6007   7.0518   7.4639   8.0054   9.5659  10.8270  11.9780
    18.2042  19.0632  19.9418  20.4934

     occupation numbers 
     1.0000   1.0000   1.0000   1.0000   1.0000   1.0000   1.0000   1.0000
     1.0000   1.0000   1.0000   1.0000   1.0000   1.0000   1.0000   1.0000
     0.0000   0.0000   0.0000   0.0000

          k = 0.0625 0.1250 0.3750 (  3687 PWs)   bands (ev):

    -6.6575  -4.4140  -0.3692   0.2900   1.8780   2.4946   4.4587   5.0134
     6.2814   6.4082   6.8074   7.9955   8.4686   8.9056  10.2203  11.3315
    18.2747  18.8785  20.8607  21.5179

     occupation numbers 
     1.0000   1.0000   1.0000   1.0000   1.0000   1.0000   1.0000   1.0000
     1.0000   1.0000   1.0000   1.0000   1.0000   1.0000   1.0000   1.0000
     0.0000   0.0000   0.0000   0.0000

          k = 0.0625 0.1250 0.4375 (  3685 PWs)   bands (ev):

    -6.1967  -5.0732  -0.1019   0.2762   1.9456   2.2996   4.4702   4.7859
     6.3325   6.5708   6.9763   8.2598   8.5400   9.0932   9.6350  10.6023
    18.3851  18.6963  21.8672  22.5475

     occupation numbers 
     1.0000   1.0000   1.0000   1.0000   1.0000   1.0000   1.0000   1.0000
     1.0000   1.0000   1.0000   1.0000   1.0000   1.0000   1.0000   1.0000
     0.0000   0.0000   0.0000   0.0000

          k = 0.0625 0.1250-0.5000 (  3692 PWs)   bands (ev):

    -5.6681  -5.6680   0.1319   0.1319   2.0959   2.0959   4.5963   4.5964
     6.3958   6.3958   7.6233   7.6234   9.0777   9.0777   9.8350   9.8350
    18.5284  18.5285  22.7843  22.7843

     occupation numbers 
     1.0000   1.0000   1.0000   1.0000   1.0000   1.0000   1.0000   1.0000
     1.0000   1.0000   1.0000   1.0000   1.0000   1.0000   1.0000   1.0000
     0.0000   0.0000   0.0000   0.0000

          k = 0.0625 0.1875 0.1875 (  3708 PWs)   bands (ev):

    -7.4425  -1.9278  -1.9278   0.0004   1.7916   3.6064   3.6064   4.8499
     6.3114   6.3114   7.2860   7.2860   7.6040  10.2513  11.5652  12.8247
    18.6820  18.7864  18.7865  19.7232

     occupation numbers 
     1.0000   1.0000   1.0000   1.0000   1.0000   1.0000   1.0000   1.0000
     1.0000   1.0000   1.0000   1.0000   1.0000   1.0000   1.0000   1.0000
     0.0000   0.0000   0.0000   0.0000

          k = 0.0625 0.1875 0.2500 (  3708 PWs)   bands (ev):

    -7.1922  -2.7545  -1.7200   0.0841   1.7948   3.4769   4.4395   4.4913
     5.9491   6.6936   7.1186   7.6017   7.6993   9.5818  11.0105  12.5949
    18.7862  18.9996  19.5662  19.7618

     occupation numbers 
     1.0000   1.0000   1.0000   1.0000   1.0000   1.0000   1.0000   1.0000
     1.0000   1.0000   1.0000   1.0000   1.0000   1.0000   1.0000   1.0000
     0.0000   0.0000   0.0000   0.0000

          k = 0.0625 0.1875 0.3125 (  3698 PWs)   bands (ev):

    -6.8713  -3.5287  -1.4608   0.1162   1.7993   3.2615   4.3077   5.1755
     5.6151   6.9760   7.1635   7.6548   8.0529   8.9141  10.4197  12.1774
    18.8256  19.5751  19.6458  20.4982

     occupation numbers 
     1.0000   1.0000   1.0000   1.0000   1.0000   1.0000   1.0000   1.0000
     1.0000   1.0000   1.0000   1.0000   1.0000   1.0000   1.0000   1.0000
     0.0000   0.0000   0.0000   0.0000

          k = 0.0625 0.1875 0.3750 (  3694 PWs)   bands (ev):

    -6.4806  -4.2456  -1.1584   0.0337   1.8653   2.9698   4.3053   5.2962
     5.8258   6.9226   7.5113   7.6664   8.2619   8.6612   9.8267  11.6057
    18.9039  19.4868  20.3583  21.5287

     occupation numbers 
     1.0000   1.0000   1.0000   1.0000   1.0000   1.0000   1.0000   1.0000
     1.0000   1.0000   1.0000   1.0000   1.0000   1.0000   1.0000   1.0000
     0.0000   0.0000   0.0000   0.0000

          k = 0.0625 0.1875 0.4375 (  3691 PWs)   bands (ev):

    -6.0212  -4.9017  -0.8265  -0.1827   2.0411   2.6382   4.4483   4.9822
     6.4297   6.9799   7.3185   7.6320   8.1753   9.2504   9.3904  10.9205
    19.0170  19.3187  21.2821  22.5063

     occupation numbers 
     1.0000   1.0000   1.0000   1.0000   1.0000   1.0000   1.0000   1.0000
     1.0000   1.0000   1.0000   1.0000   1.0000   1.0000   1.0000   1.0000
     0.0000   0.0000   0.0000   0.0000

          k = 0.0625 0.1875-0.5000 (  3688 PWs)   bands (ev):

    -5.4943  -5.4943  -0.4883  -0.4882   2.3131   2.3132   4.6884   4.6884
     7.0243   7.0243   7.1258   7.1258   8.6999   8.7000  10.1654  10.1654
    19.1582  19.1583  22.2370  22.2370

     occupation numbers 
     1.0000   1.0000   1.0000   1.0000   1.0000   1.0000   1.0000   1.0000
     1.0000   1.0000   1.0000   1.0000   1.0000   1.0000   1.0000   1.0000
     0.0000   0.0000   0.0000   0.0000

          k = 0.0625 0.2500 0.2500 (  3705 PWs)   bands (ev):

    -6.9427  -2.5349  -2.5349   0.0572   1.7669   4.1624   4.1624   4.2539
     6.3521   6.3521   7.5416   7.5417   8.0030   8.9135  10.4798  12.5110
    19.0852  19.5825  19.5826  20.1848

     occupation numbers 
     1.0000   1.0000   1.0000   1.0000   1.0000   1.0000   1.0000   1.0000
     1.0000   1.0000   1.0000   1.0000   1.0000   1.0000   1.0000   1.0000
     0.0000   0.0000   0.0000   0.0000

          k = 0.0625 0.2500 0.3125 (  3693 PWs)   bands (ev):

    -6.6229  -3.3006  -2.2580  -0.0892   1.8037   3.8022   4.2094   4.7606
     5.9907   6.7976   7.5388   8.1337   8.1487   8.2517   9.9089  12.2279
    19.4452  19.6310  20.2885  20.5235

     occupation numbers 
     1.0000   1.0000   1.0000   1.0000   1.0000   1.0000   1.0000   1.0000
     1.0000   1.0000   1.0000   1.0000   1.0000   1.0000   1.0000   1.0000
     0.0000   0.0000   0.0000   0.0000

          k = 0.0625 0.2500 0.3750 (  3689 PWs)   bands (ev):

    -6.2337  -4.0114  -1.9291  -0.3729   1.9586   3.3931   4.3257   5.3112
     5.6105   7.2564   7.6095   7.6123   8.1542   8.8592   9.3328  11.7620
    19.7115  20.0509  20.2142  21.5540

     occupation numbers 
     1.0000   1.0000   1.0000   1.0000   1.0000   1.0000   1.0000   1.0000
     1.0000   1.0000   1.0000   1.0000   1.0000   1.0000   1.0000   1.0000
     0.0000   0.0000   0.0000   0.0000

          k = 0.0625 0.2500 0.4375 (  3693 PWs)   bands (ev):

    -5.7763  -4.6629  -1.5569  -0.7473   2.2258   2.9728   4.5579   5.2284
     5.8530   6.9948   7.7329   7.7461   8.0585   8.7716   9.6463  11.1479
    19.8198  20.0865  20.8468  22.4029

     occupation numbers 
     1.0000   1.0000   1.0000   1.0000   1.0000   1.0000   1.0000   1.0000
     1.0000   1.0000   1.0000   1.0000   1.0000   1.0000   1.0000   1.0000
     0.0000   0.0000   0.0000   0.0000

          k = 0.0625 0.2500-0.5000 (  3696 PWs)   bands (ev):

    -5.2521  -5.2520  -1.1551  -1.1551   2.5740   2.5740   4.8687   4.8688
     6.4103   6.4104   7.9078   7.9078   8.2369   8.2370  10.4273  10.4273
    19.9486  19.9487  21.7508  21.7508

     occupation numbers 
     1.0000   1.0000   1.0000   1.0000   1.0000   1.0000   1.0000   1.0000
     1.0000   1.0000   1.0000   1.0000   1.0000   1.0000   1.0000   1.0000
     0.0000   0.0000   0.0000   0.0000

          k = 0.0625 0.3125 0.3125 (  3695 PWs)   bands (ev):

    -6.3047  -3.0113  -3.0113  -0.4365   1.9249   4.2809   4.2927   4.2927
     6.3860   6.3860   7.5984   8.2533   8.2534   8.4955   9.3563  12.0895
    19.5782  20.5736  20.5737  20.7797

     occupation numbers 
     1.0000   1.0000   1.0000   1.0000   1.0000   1.0000   1.0000   1.0000
     1.0000   1.0000   1.0000   1.0000   1.0000   1.0000   1.0000   1.0000
     0.0000   0.0000   0.0000   0.0000

          k = 0.0625 0.3125 0.3750 (  3699 PWs)   bands (ev):

    -5.9176  -3.7131  -2.6644  -0.8772   2.1621   3.8068   4.4790   4.7740
     5.9540   6.8027   6.9672   8.3993   8.6838   8.7968   9.0466  11.7570
    19.9727  20.6476  20.9494  21.5958

     occupation numbers 
     1.0000   1.0000   1.0000   1.0000   1.0000   1.0000   1.0000   1.0000
     1.0000   1.0000   1.0000   1.0000   1.0000   1.0000   1.0000   1.0000
     0.0000   0.0000   0.0000   0.0000

          k = 0.0625 0.3125 0.4375 (  3698 PWs)   bands (ev):

    -5.4630  -4.3582  -2.2656  -1.3530   2.4899   3.3306   4.7687   5.2724
     5.5263   6.3668   7.2505   8.2518   8.5488   8.7305   9.8474  11.2485
    20.5954  20.7401  20.9265  22.4061

     occupation numbers 
     1.0000   1.0000   1.0000   1.0000   1.0000   1.0000   1.0000   1.0000
     1.0000   1.0000   1.0000   1.0000   1.0000   1.0000   1.0000   1.0000
     0.0000   0.0000   0.0000   0.0000

          k = 0.0625 0.3125-0.5000 (  3702 PWs)   bands (ev):

    -4.9425  -4.9424  -1.8238  -1.8237   2.8856   2.8856   5.1246   5.1247
     5.8017   5.8017   7.7340   7.7341   8.6717   8.6717  10.5977  10.5977
    20.8401  20.8401  21.3838  21.3838

     occupation numbers 
     1.0000   1.0000   1.0000   1.0000   1.0000   1.0000   1.0000   1.0000
     1.0000   1.0000   1.0000   1.0000   1.0000   1.0000   1.0000   1.0000
     0.0000   0.0000   0.0000   0.0000

          k = 0.0625 0.3750 0.3750 (  3691 PWs)   bands (ev):

    -5.5334  -3.3536  -3.3536  -1.4190   2.4562   4.2395   4.2395   4.7314
     6.3350   6.3350   6.3482   8.2533   9.0643   9.2082   9.2083  11.5695
    20.1436  21.5037  21.6511  21.6512

     occupation numbers 
     1.0000   1.0000   1.0000   1.0000   1.0000   1.0000   1.0000   1.0000
     1.0000   1.0000   1.0000   1.0000   1.0000   1.0000   1.0000   1.0000
     0.0000   0.0000   0.0000   0.0000

          k = 0.0625 0.3750 0.4375 (  3690 PWs)   bands (ev):

    -5.0825  -3.9895  -2.9367  -1.9575   2.8235   3.7270   4.7063   5.0595
     5.7615   5.8766   6.7579   7.7238   9.2847   9.3228   9.9775  11.1966
    20.5571  21.7108  21.7327  22.0454

     occupation numbers 
     1.0000   1.0000   1.0000   1.0000   1.0000   1.0000   1.0000   1.0000
     1.0000   1.0000   1.0000   1.0000   1.0000   1.0000   1.0000   1.0000
     0.0000   0.0000   0.0000   0.0000

          k = 0.0625 0.3750-0.5000 (  3692 PWs)   bands (ev):

    -4.5670  -4.5669  -2.4683  -2.4682   3.2509   3.2510   5.2133   5.2133
     5.4462   5.4463   7.2223   7.2224   9.3601   9.3601  10.6550  10.6550
    21.1751  21.1751  21.7548  21.7548

     occupation numbers 
     1.0000   1.0000   1.0000   1.0000   1.0000   1.0000   1.0000   1.0000
     1.0000   1.0000   1.0000   1.0000   1.0000   1.0000   1.0000   1.0000
     0.0000   0.0000   0.0000   0.0000

          k = 0.0625 0.4375 0.4375 (  3688 PWs)   bands (ev):

    -4.6367  -3.5597  -3.5597  -2.5359   3.2191   4.1684   4.1684   5.1890
     5.4156   6.2773   6.2773   7.2095   9.6867  10.0132  10.0133  10.9736
    20.7465  21.7284  21.7285  21.7869

[...]
     0.0000   0.0000   0.0000   0.0000

          k = 0.2500 0.2500 0.2500 (  3683 PWs)   bands (ev):

    -6.4113  -2.1055  -2.1055  -2.1054   2.5580   2.5580   2.5580   6.6020
     6.6020   6.6021   6.7532   8.4599   8.4600   8.4600  11.5945  11.5945
    19.4580  19.4580  19.4580  21.1530

     occupation numbers 
     1.0000   1.0000   1.0000   1.0000   1.0000   1.0000   1.0000   1.0000
     1.0000   1.0000   1.0000   1.0000   1.0000   1.0000   1.0000   1.0000
     0.0000   0.0000   0.0000   0.0000

          k = 0.2500 0.2500 0.3125 (  3697 PWs)   bands (ev):

    -6.0944  -2.8363  -1.8733  -1.8732   1.9825   1.9825   2.8907   6.0575
     6.7439   6.7440   7.5483   8.6081   8.6081   8.7270  11.1580  11.5601
    19.6617  19.8349  19.8349  21.0107

     occupation numbers 
     1.0000   1.0000   1.0000   1.0000   1.0000   1.0000   1.0000   1.0000
     1.0000   1.0000   1.0000   1.0000   1.0000   1.0000   1.0000   1.0000
     0.0000   0.0000   0.0000   0.0000

          k = 0.2500 0.2500 0.3750 (  3703 PWs)   bands (ev):

    -5.7092  -3.5249  -1.6290  -1.6289   1.4807   1.4807   3.2790   5.4002
     6.8830   6.8831   8.4789   8.6599   8.6599   9.0458  10.7030  11.2878
    19.8904  20.4258  20.4259  20.8266

     occupation numbers 
     1.0000   1.0000   1.0000   1.0000   1.0000   1.0000   1.0000   1.0000
     1.0000   1.0000   1.0000   1.0000   1.0000   1.0000   1.0000   1.0000
     0.0000   0.0000   0.0000   0.0000

          k = 0.2500 0.2500 0.4375 (  3698 PWs)   bands (ev):

    -5.2571  -4.1615  -1.4236  -1.4235   1.1164   1.1164   3.7254   4.7890
     6.9887   6.9888   8.6581   8.6581   9.3567   9.4110  10.2503  10.8025
    20.1330  20.6121  21.1560  21.1560

     occupation numbers 
     1.0000   1.0000   1.0000   1.0000   1.0000   1.0000   1.0000   1.0000
     1.0000   1.0000   1.0000   1.0000   1.0000   1.0000   1.0000   1.0000
     0.0000   0.0000   0.0000   0.0000

          k = 0.2500 0.2500-0.5000 (  3708 PWs)   bands (ev):

    -4.7403  -4.7402  -1.3383  -1.3382   0.9775   0.9775   4.2295   4.2295
     7.0290   7.0291   8.6504   8.6504   9.8155   9.8156  10.1445  10.1445
    20.3774  20.3774  21.6732  21.6732

     occupation numbers 
     1.0000   1.0000   1.0000   1.0000   1.0000   1.0000   1.0000   1.0000
     1.0000   1.0000   1.0000   1.0000   1.0000   1.0000   1.0000   1.0000
     0.0000   0.0000   0.0000   0.0000

          k = 0.2500 0.3125 0.3125 (  3694 PWs)   bands (ev):

    -5.7795  -2.5721  -2.5721  -1.6907   1.4198   2.2612   2.2612   5.3580
     6.9664   7.6673   7.6673   8.8882   8.8883   8.9041  10.9508  11.4670
    19.9879  20.0480  20.0480  21.2614

     occupation numbers 
     1.0000   1.0000   1.0000   1.0000   1.0000   1.0000   1.0000   1.0000
     1.0000   1.0000   1.0000   1.0000   1.0000   1.0000   1.0000   1.0000
     0.0000   0.0000   0.0000   0.0000

          k = 0.2500 0.3125 0.3750 (  3688 PWs)   bands (ev):

    -5.3970  -3.2418  -2.2699  -1.5471   0.9940   1.6908   2.6181   4.7000
     7.1868   7.7169   8.5184   8.9968   9.0809   9.2542  10.5638  11.2894
    20.2863  20.3732  20.6304  21.1970

     occupation numbers 
     1.0000   1.0000   1.0000   1.0000   1.0000   1.0000   1.0000   1.0000
     1.0000   1.0000   1.0000   1.0000   1.0000   1.0000   1.0000   1.0000
     0.0000   0.0000   0.0000   0.0000

          k = 0.2500 0.3125 0.4375 (  3697 PWs)   bands (ev):

    -4.9489  -3.8666  -1.9552  -1.5260   0.7980   1.2145   3.0456   4.0914
     7.3948   7.6836   9.0755   9.1464   9.1981   9.7623  10.1409  10.9140
    20.5365  20.9489  21.0108  21.3176

     occupation numbers 
     1.0000   1.0000   1.0000   1.0000   1.0000   1.0000   1.0000   1.0000
     1.0000   1.0000   1.0000   1.0000   1.0000   1.0000   1.0000   1.0000
     0.0000   0.0000   0.0000   0.0000

          k = 0.2500 0.3125-0.5000 (  3686 PWs)   bands (ev):

    -4.4375  -4.4374  -1.6796  -1.6795   0.8886   0.8886   3.5382   3.5383
     7.5692   7.5693   9.1324   9.1324   9.6993   9.6994  10.3727  10.3727
    20.7833  20.7834  21.5422  21.5422

     occupation numbers 
     1.0000   1.0000   1.0000   1.0000   1.0000   1.0000   1.0000   1.0000
     1.0000   1.0000   1.0000   1.0000   1.0000   1.0000   1.0000   1.0000
     0.0000   0.0000   0.0000   0.0000

          k = 0.2500 0.3750 0.3750 (  3686 PWs)   bands (ev):

    -5.0185  -2.9078  -2.9077  -1.5888   0.7367   2.0100   2.0100   4.0437
     7.4723   8.4186   8.4186   9.4025   9.4566   9.4567  10.2314  11.2297
    20.5426  20.8580  20.8581  21.5070

     occupation numbers 
     1.0000   1.0000   1.0000   1.0000   1.0000   1.0000   1.0000   1.0000
     1.0000   1.0000   1.0000   1.0000   1.0000   1.0000   1.0000   1.0000
     0.0000   0.0000   0.0000   0.0000

          k = 0.2500 0.3750 0.4375 (  3698 PWs)   bands (ev):

    -4.5759  -3.5136  -2.5358  -1.8080   0.7699   1.4753   2.4153   3.4396
     7.7481   8.2391   8.9672   9.5921   9.5974   9.8424  10.0148  10.9837
    20.9231  21.0936  21.4870  21.4956

     occupation numbers 
     1.0000   1.0000   1.0000   1.0000   1.0000   1.0000   1.0000   1.0000
     1.0000   1.0000   1.0000   1.0000   1.0000   1.0000   1.0000   1.0000
     0.0000   0.0000   0.0000   0.0000

          k = 0.2500 0.3750-0.5000 (  3704 PWs)   bands (ev):

    -4.0725  -4.0725  -2.1519  -2.1518   1.0440   1.0440   2.8946   2.8946
     8.0086   8.0087   9.4244   9.4244   9.6506   9.6506  10.5589  10.5589
    21.3173  21.3174  21.4351  21.4352

     occupation numbers 
     1.0000   1.0000   1.0000   1.0000   1.0000   1.0000   1.0000   1.0000
     1.0000   1.0000   1.0000   1.0000   1.0000   1.0000   1.0000   1.0000
     0.0000   0.0000   0.0000   0.0000

          k = 0.2500 0.4375 0.4375 (  3693 PWs)   bands (ev):

    -4.1413  -3.1100  -3.1100  -2.2176   0.9857   1.8487   1.8487   2.8428
     8.0791   8.6958   8.6959   9.4876   9.9238  10.1337  10.1338  10.8772
    21.0937  21.6431  21.6431  21.9052

     occupation numbers 
     1.0000   1.0000   1.0000   1.0000   1.0000   1.0000   1.0000   1.0000
     1.0000   1.0000   1.0000   1.0000   1.0000   1.0000   1.0000   1.0000
     0.0000   0.0000   0.0000   0.0000

          k = 0.2500 0.4375-0.5000 (  3696 PWs)   bands (ev):

    -3.6500  -3.6499  -2.6692  -2.6692   1.3628   1.3628   2.3092   2.3093
     8.3963   8.3964   9.1047   9.1047  10.1065  10.1065  10.5832  10.5832
    21.4354  21.4355  21.7715  21.7717

     occupation numbers 
     1.0000   1.0000   1.0000   1.0000   1.0000   1.0000   1.0000   1.0000
     1.0000   1.0000   1.0000   1.0000   1.0000   1.0000   1.0000   1.0000
     0.0000   0.0000   0.0000   0.0000

          k = 0.2500-0.5000-0.5000 (  3672 PWs)   bands (ev):

    -3.1776  -3.1776  -3.1776  -3.1775   1.7934   1.7935   1.7935   1.7936
     8.7596   8.7596   8.7596   8.7597  10.4294  10.4295  10.4295  10.4295
    21.5787  21.5787  21.5788  21.5789

     occupation numbers 
     1.0000   1.0000   1.0000   1.0000   1.0000   1.0000   1.0000   1.0000
     1.0000   1.0000   1.0000   1.0000   1.0000   1.0000   1.0000   1.0000
     0.0000   0.0000   0.0000   0.0000

          k = 0.3125 0.3125 0.3125 (  3701 PWs)   bands (ev):

    -5.4669  -2.3334  -2.3334  -2.3333   1.6288   1.6288   1.6288   4.6518
     7.9103   7.9103   7.9104   9.1400   9.1401   9.1401  11.1446  11.1446
    20.2120  20.2120  20.2120  21.5586

     occupation numbers 
     1.0000   1.0000   1.0000   1.0000   1.0000   1.0000   1.0000   1.0000
     1.0000   1.0000   1.0000   1.0000   1.0000   1.0000   1.0000   1.0000
     0.0000   0.0000   0.0000   0.0000

          k = 0.3125 0.3125 0.3750 (  3690 PWs)   bands (ev):

    -5.0879  -2.9729  -2.0809  -2.0808   1.0884   1.0884   1.9483   3.9910
     8.0883   8.0884   8.8057   9.3172   9.3172   9.4184  10.7940  11.0964
    20.4619  20.5911  20.5911  21.4038

     occupation numbers 
     1.0000   1.0000   1.0000   1.0000   1.0000   1.0000   1.0000   1.0000
     1.0000   1.0000   1.0000   1.0000   1.0000   1.0000   1.0000   1.0000
     0.0000   0.0000   0.0000   0.0000

          k = 0.3125 0.3125 0.4375 (  3698 PWs)   bands (ev):

    -4.6445  -3.5802  -1.8669  -1.8668   0.6991   0.6991   2.3548   3.3835
     8.2033   8.2034   9.4121   9.4121   9.6151   9.7326  10.4321  10.8045
    20.7225  21.1377  21.1377  21.2081

     occupation numbers 
     1.0000   1.0000   1.0000   1.0000   1.0000   1.0000   1.0000   1.0000
     1.0000   1.0000   1.0000   1.0000   1.0000   1.0000   1.0000   1.0000
     0.0000   0.0000   0.0000   0.0000

          k = 0.3125 0.3125-0.5000 (  3682 PWs)   bands (ev):

    -4.1402  -4.1402  -1.7773  -1.7773   0.5508   0.5508   2.8358   2.8359
     8.2440   8.2441   9.4404   9.4404  10.0740  10.0740  10.2965  10.2965
    20.9766  20.9766  21.5613  21.5614

     occupation numbers 
     1.0000   1.0000   1.0000   1.0000   1.0000   1.0000   1.0000   1.0000
     1.0000   1.0000   1.0000   1.0000   1.0000   1.0000   1.0000   1.0000
     0.0000   0.0000   0.0000   0.0000

          k = 0.3125 0.3750 0.3750 (  3693 PWs)   bands (ev):

    -4.7136  -2.6646  -2.6645  -1.9296   0.6349   1.3492   1.3492   3.3307
     8.3703   8.8999   8.8999   9.5932   9.6163   9.6164  10.6315  11.0353
    20.7571  20.8323  20.8323  21.5935

     occupation numbers 
     1.0000   1.0000   1.0000   1.0000   1.0000   1.0000   1.0000   1.0000
     1.0000   1.0000   1.0000   1.0000   1.0000   1.0000   1.0000   1.0000
     0.0000   0.0000   0.0000   0.0000

          k = 0.3125 0.3750 0.4375 (  3687 PWs)   bands (ev):

    -4.2775  -3.2417  -2.3425  -1.9036   0.4238   0.8525   1.7247   2.7273
     8.5931   8.8719   9.5359   9.7657   9.7674  10.0160  10.3242  10.8559
    21.0800  21.1161  21.3423  21.5107

     occupation numbers 
     1.0000   1.0000   1.0000   1.0000   1.0000   1.0000   1.0000   1.0000
     1.0000   1.0000   1.0000   1.0000   1.0000   1.0000   1.0000   1.0000
     0.0000   0.0000   0.0000   0.0000

          k = 0.3125 0.3750-0.5000 (  3694 PWs)   bands (ev):

    -3.7842  -3.7841  -2.0597  -2.0596   0.5144   0.5145   2.1888   2.1888
     8.7632   8.7633   9.8225   9.8225   9.9727   9.9728  10.4860  10.4860
    21.3143  21.3143  21.5456  21.5456

     occupation numbers 
     1.0000   1.0000   1.0000   1.0000   1.0000   1.0000   1.0000   1.0000
     1.0000   1.0000   1.0000   1.0000   1.0000   1.0000   1.0000   1.0000
     0.0000   0.0000   0.0000   0.0000

          k = 0.3125 0.4375 0.4375 (  3694 PWs)   bands (ev):

    -3.8523  -2.8642  -2.8642  -2.1241   0.4519   1.1738   1.1738   2.1323
     8.8997   9.3677   9.3677  10.0508  10.0614  10.1884  10.1885  10.8086
    21.2710  21.5446  21.5446  21.8163

     occupation numbers 
     1.0000   1.0000   1.0000   1.0000   1.0000   1.0000   1.0000   1.0000
     1.0000   1.0000   1.0000   1.0000   1.0000   1.0000   1.0000   1.0000
     0.0000   0.0000   0.0000   0.0000

          k = 0.3125 0.4375-0.5000 (  3692 PWs)   bands (ev):

    -3.3766  -3.3766  -2.4738  -2.4737   0.7311   0.7312   1.6094   1.6094
     9.1549   9.1549   9.7451   9.7451  10.1995  10.1995  10.5719  10.5719
    21.5675  21.5675  21.7250  21.7251

     occupation numbers 
     1.0000   1.0000   1.0000   1.0000   1.0000   1.0000   1.0000   1.0000
     1.0000   1.0000   1.0000   1.0000   1.0000   1.0000   1.0000   1.0000
     0.0000   0.0000   0.0000   0.0000

          k = 0.3125-0.5000-0.5000 (  3700 PWs)   bands (ev):

    -2.9309  -2.9309  -2.9309  -2.9308   1.1141   1.1142   1.1142   1.1143
     9.4729   9.4730   9.4730   9.4730  10.4701  10.4701  10.4702  10.4702
    21.6902  21.6902  21.6902  21.6903

     occupation numbers 
     1.0000   1.0000   1.0000   1.0000   1.0000   1.0000   1.0000   1.0000
     1.0000   1.0000   1.0000   1.0000   1.0000   1.0000   1.0000   1.0000
     0.0000   0.0000   0.0000   0.0000

          k = 0.3750 0.3750 0.3750 (  3701 PWs)   bands (ev):

    -4.3460  -2.4064  -2.4064  -2.4063   0.7879   0.7879   0.7879   2.6705
     9.1909   9.1909   9.1910   9.8135   9.8135   9.8135  10.8105  10.8105
    20.9914  20.9915  20.9916  21.7544

     occupation numbers 
     1.0000   1.0000   1.0000   1.0000   1.0000   1.0000   1.0000   1.0000
     1.0000   1.0000   1.0000   1.0000   1.0000   1.0000   1.0000   1.0000
     0.0000   0.0000   0.0000   0.0000

          k = 0.3750 0.3750 0.4375 (  3693 PWs)   bands (ev):

    -3.9200  -2.9295  -2.1862  -2.1862   0.3841   0.3842   1.1100   2.0725
     9.3296   9.3297   9.8910   9.9789   9.9789  10.0554  10.5649  10.7398
    21.2268  21.3218  21.3219  21.6191

     occupation numbers 
     1.0000   1.0000   1.0000   1.0000   1.0000   1.0000   1.0000   1.0000
     1.0000   1.0000   1.0000   1.0000   1.0000   1.0000   1.0000   1.0000
     0.0000   0.0000   0.0000   0.0000

          k = 0.3750 0.3750-0.5000 (  3680 PWs)   bands (ev):

    -3.4432  -3.4431  -2.0937  -2.0936   0.2301   0.2301   1.5473   1.5473
     9.3703   9.3703  10.0412  10.0412  10.3094  10.3095  10.4227  10.4227
    21.4423  21.4423  21.6271  21.6272

     occupation numbers 
     1.0000   1.0000   1.0000   1.0000   1.0000   1.0000   1.0000   1.0000
     1.0000   1.0000   1.0000   1.0000   1.0000   1.0000   1.0000   1.0000
     0.0000   0.0000   0.0000   0.0000

          k = 0.3750 0.4375 0.4375 (  3692 PWs)   bands (ev):

    -3.5105  -2.6026  -2.6026  -2.1571   0.1647   0.6016   0.6016   1.4873
     9.6110   9.8844   9.8844  10.1908  10.2452  10.2453  10.4497  10.7180
    21.4529  21.5202  21.5203  21.7743

     occupation numbers 
     1.0000   1.0000   1.0000   1.0000   1.0000   1.0000   1.0000   1.0000
     1.0000   1.0000   1.0000   1.0000   1.0000   1.0000   1.0000   1.0000
     0.0000   0.0000   0.0000   0.0000

          k = 0.3750 0.4375-0.5000 (  3690 PWs)   bands (ev):

    -3.0625  -3.0624  -2.3150  -2.3150   0.2560   0.2561   0.9876   0.9877
     9.7812   9.7813  10.2217  10.2217  10.3004  10.3004  10.5445  10.5446
    21.6845  21.6845  21.6890  21.6890

     occupation numbers 
     1.0000   1.0000   1.0000   1.0000   1.0000   1.0000   1.0000   1.0000
     1.0000   1.0000   1.0000   1.0000   1.0000   1.0000   1.0000   1.0000
     0.0000   0.0000   0.0000   0.0000

          k = 0.3750-0.5000-0.5000 (  3688 PWs)   bands (ev):

    -2.6682  -2.6682  -2.6682  -2.6681   0.5386   0.5387   0.5387   0.5387
    10.0401  10.0401  10.0401  10.0402  10.5052  10.5052  10.5053  10.5053
    21.7817  21.7818  21.7820  21.7822

     occupation numbers 
     1.0000   1.0000   1.0000   1.0000   1.0000   1.0000   1.0000   1.0000
     1.0000   1.0000   1.0000   1.0000   1.0000   1.0000   1.0000   1.0000
     0.0000   0.0000   0.0000   0.0000

          k = 0.4375 0.4375 0.4375 (  3692 PWs)   bands (ev):

    -3.1287  -2.3788  -2.3788  -2.3787   0.1900   0.1901   0.1901   0.9249
    10.1634  10.1634  10.1635  10.3355  10.3356  10.3356  10.6061  10.6061
    21.6165  21.6165  21.6165  21.8192

     occupation numbers 
     1.0000   1.0000   1.0000   1.0000   1.0000   1.0000   1.0000   1.0000
     1.0000   1.0000   1.0000   1.0000   1.0000   1.0000   1.0000   1.0000
     0.0000   0.0000   0.0000   0.0000

          k = 0.4375 0.4375-0.5000 (  3688 PWs)   bands (ev):

    -2.7332  -2.7331  -2.2844  -2.2843   0.0328   0.0328   0.4738   0.4739
    10.2142  10.2143  10.4125  10.4125  10.4766  10.4767  10.5075  10.5075
    21.7386  21.7386  21.7628  21.7632

     occupation numbers 
     1.0000   1.0000   1.0000   1.0000   1.0000   1.0000   1.0000   1.0000
     1.0000   1.0000   1.0000   1.0000   1.0000   1.0000   1.0000   1.0000
     0.0000   0.0000   0.0000   0.0000

          k = 0.4375-0.5000-0.5000 (  3680 PWs)   bands (ev):

    -2.4432  -2.4432  -2.4432  -2.4430   0.1246   0.1246   0.1246   0.1246
    10.4089  10.4090  10.4090  10.4090  10.5290  10.5290  10.5291  10.5291
    21.8268  21.8268  21.8268  21.8269

     occupation numbers 
     1.0000   1.0000   1.0000   1.0000   1.0000   1.0000   1.0000   1.0000
     1.0000   1.0000   1.0000   1.0000   1.0000   1.0000   1.0000   1.0000
     0.0000   0.0000   0.0000   0.0000

          k =-0.5000-0.5000-0.5000 (  3648 PWs)   bands (ev):

    -2.3481  -2.3481  -2.3481  -2.3480  -0.0337  -0.0337  -0.0337  -0.0337
    10.5374  10.5374  10.5374  10.5374  10.5374  10.5375  10.5375  10.5375
    21.8309  21.8309  21.8309  21.8309

     occupation numbers 
     1.0000   1.0000   1.0000   1.0000   1.0000   1.0000   1.0000   1.0000
     1.0000   1.0000   1.0000   1.0000   1.0000   1.0000   1.0000   1.0000
     0.0000   0.0000   0.0000   0.0000

     the Fermi energy is    15.9659 ev

!    total energy              =     -99.35165661 Ry
     Harris-Foulkes estimate   =     -99.35165653 Ry
     estimated scf accuracy    <       0.00000011 Ry

     The total energy is the sum of the following terms:

     one-electron contribution =      32.71417529 Ry
     hartree contribution      =       7.76925144 Ry
     xc contribution           =     -37.51510120 Ry
     ewald contribution        =    -102.31998213 Ry
     smearing contrib. (-TS)   =      -0.00000000 Ry

     convergence has been achieved in   5 iterations

     Writing output data file c-16.save/

     init_run     :      4.24s CPU      4.43s WALL (       1 calls)
     electrons    :     43.92s CPU     45.40s WALL (       1 calls)

     Called by init_run:
     wfcinit      :      4.03s CPU      4.21s WALL (       1 calls)
     wfcinit:atom :      0.03s CPU      0.03s WALL (     165 calls)
     wfcinit:wfcr :      3.78s CPU      3.96s WALL (     165 calls)
     potinit      :      0.04s CPU      0.04s WALL (       1 calls)
     hinit0       :      0.09s CPU      0.10s WALL (       1 calls)

     Called by electrons:
     c_bands      :     39.05s CPU     40.28s WALL (       5 calls)
     sum_band     :      4.66s CPU      4.90s WALL (       5 calls)
     v_of_rho     :      0.11s CPU      0.11s WALL (       6 calls)
     v_h          :      0.01s CPU      0.01s WALL (       6 calls)
     v_xc         :      0.10s CPU      0.10s WALL (       6 calls)
     newd         :      0.11s CPU      0.11s WALL (       6 calls)
     mix_rho      :      0.01s CPU      0.01s WALL (       5 calls)

     Called by c_bands:
     init_us_2    :      0.46s CPU      0.47s WALL (    1815 calls)
     cegterg      :     37.66s CPU     38.87s WALL (     825 calls)

     Called by sum_band:
     sum_band:bec :      0.02s CPU      0.02s WALL (     825 calls)
     addusdens    :      0.05s CPU      0.08s WALL (       5 calls)

     Called by *egterg:
     h_psi        :     25.49s CPU     26.73s WALL (    3760 calls)
     s_psi        :      2.95s CPU      3.00s WALL (    3760 calls)
     g_psi        :      0.15s CPU      0.15s WALL (    2770 calls)
     cdiaghg      :      3.06s CPU      3.09s WALL (    3595 calls)
     cegterg:over :      4.34s CPU      4.38s WALL (    2770 calls)
     cegterg:upda :      1.74s CPU      1.75s WALL (    2770 calls)
     cegterg:last :      0.84s CPU      0.85s WALL (     828 calls)

     Called by h_psi:
     h_psi:pot    :     25.39s CPU     26.64s WALL (    3760 calls)
     h_psi:calbec :      4.22s CPU      4.43s WALL (    3760 calls)
     vloc_psi     :     18.16s CPU     19.13s WALL (    3760 calls)
     add_vuspsi   :      2.99s CPU      3.07s WALL (    3760 calls)

     General routines
     calbec       :      5.53s CPU      5.81s WALL (    4585 calls)
     fft          :      0.07s CPU      0.07s WALL (      76 calls)
     ffts         :      0.00s CPU      0.00s WALL (      11 calls)
     fftw         :     19.32s CPU     20.33s WALL (  117090 calls)
     interpolate  :      0.01s CPU      0.01s WALL (       6 calls)

     Parallel routines
     fft_scatt_xy :      1.57s CPU      1.64s WALL (  117177 calls)
     fft_scatt_yz :      9.32s CPU      9.82s WALL (  117177 calls)

     PWSCF        :     48.70s CPU     50.56s WALL


   This run was terminated on:  18:56: 2  26May2022            

=------------------------------------------------------------------------------=
   JOB DONE.
=------------------------------------------------------------------------------=
