
     Program PWSCF v.6.4.1 starts on 26May2022 at 18:52:17 

     This program is part of the open-source Quantum ESPRESSO suite
     for quantum simulation of materials; please cite
         "P. Giannozzi et al., J. Phys.:Condens. Matter 21 395502 (2009);
         "P. Giannozzi et al., J. Phys.:Condens. Matter 29 465901 (2017);
          URL http://www.quantum-espresso.org", 
     in publications or presentations arising from this work. More details at
     http://www.quantum-espresso.org/quote

     Parallel version (MPI), running on     6 processors

     MPI processes distributed on     1 nodes
     R & G space division:  proc/nbgrp/npool/nimage =       6
     Reading input from c-9.in

     Current dimensions of program PWSCF are:
     Max number of different atomic species (ntypx) = 10
     Max number of k-points (npk) =  40000
     Max angular momentum in pseudopotentials (lmaxx) =  3

     Subspace diagonalization in iterative solution of the eigenvalue problem:
     a serial algorithm will be used

     Found symmetry operation: I + ( -0.5000 -0.5000  0.0000)
     This is a supercell, fractional translations are disabled
     Message from routine setup:
     DEPRECATED: symmetry with ibrav=0, use correct ibrav instead

     Parallelization info
     --------------------
     sticks:   dense  smooth     PW     G-vecs:    dense   smooth      PW
     Min         337     192     56                11417     4902     782
     Max         338     193     57                11420     4905     783
     Sum        2025    1153    341                68507    29423    4697



     bravais-lattice index     =            0
     lattice parameter (alat)  =       6.7388  a.u.
     unit-cell volume          =     306.0135 (a.u.)^3
     number of atoms/cell      =            8
     number of atomic types    =            1
     number of electrons       =        32.00
     number of Kohn-Sham states=           20
     kinetic-energy cutoff     =      80.0000  Ry
     charge density cutoff     =     560.0000  Ry
     convergence threshold     =      1.0E-06
     mixing beta               =       0.7000
     number of iterations used =            8  plain     mixing
     Exchange-correlation      = PBE ( 1  4  3  4 0 0)

     celldm(1)=   6.738763  celldm(2)=   0.000000  celldm(3)=   0.000000
     celldm(4)=   0.000000  celldm(5)=   0.000000  celldm(6)=   0.000000

     crystal axes: (cart. coord. in units of alat)
               a(1) = (   1.000000   0.000000   0.000000 )  
               a(2) = (   0.000000   1.000000   0.000000 )  
               a(3) = (   0.000000   0.000000   1.000000 )  

     reciprocal axes: (cart. coord. in units 2 pi/alat)
               b(1) = (  1.000000  0.000000  0.000000 )  
               b(2) = (  0.000000  1.000000  0.000000 )  
               b(3) = (  0.000000  0.000000  1.000000 )  


     PseudoPot. # 1 for C  read from file:
     /home/cristian/Escritorio/Proyecto_Grafeno/pseudopotenciales/C.pbe-n-rrkjus_psl.1.0.0.UPF
     MD5 check sum: 1fdd950c42eb37d8afe3dd2f8d12311e
     Pseudo is Ultrasoft + core correction, Zval =  4.0
     Generated using "atomic" code by A. Dal Corso v.6.3MaX
     Using radial grid of 1073 points,  4 beta functions with: 
                l(1) =   0
                l(2) =   0
                l(3) =   1
                l(4) =   1
     Q(r) pseudized with 0 coefficients 


     atomic species   valence    mass     pseudopotential
        C              4.00    12.01100     C ( 1.00)

     24 Sym. Ops. (no inversion) found


                                    s                        frac. trans.

      isym =  1     identity                                     

 cryst.   s( 1) = (     1          0          0      )
                  (     0          1          0      )
                  (     0          0          1      )

 cart.    s( 1) = (  1.0000000  0.0000000  0.0000000 )
                  (  0.0000000  1.0000000  0.0000000 )
                  (  0.0000000  0.0000000  1.0000000 )


      isym =  2     180 deg rotation - cart. axis [0,0,1]        

 cryst.   s( 2) = (    -1          0          0      )
                  (     0         -1          0      )
                  (     0          0          1      )

 cart.    s( 2) = ( -1.0000000  0.0000000  0.0000000 )
                  (  0.0000000 -1.0000000  0.0000000 )
                  (  0.0000000  0.0000000  1.0000000 )


      isym =  3     180 deg rotation - cart. axis [0,1,0]        

 cryst.   s( 3) = (    -1          0          0      )
                  (     0          1          0      )
                  (     0          0         -1      )

 cart.    s( 3) = ( -1.0000000  0.0000000  0.0000000 )
                  (  0.0000000  1.0000000  0.0000000 )
                  (  0.0000000  0.0000000 -1.0000000 )


      isym =  4     180 deg rotation - cart. axis [1,0,0]        

 cryst.   s( 4) = (     1          0          0      )
                  (     0         -1          0      )
                  (     0          0         -1      )

 cart.    s( 4) = (  1.0000000  0.0000000  0.0000000 )
                  (  0.0000000 -1.0000000  0.0000000 )
                  (  0.0000000  0.0000000 -1.0000000 )


      isym =  5     120 deg rotation - cart. axis [-1,-1,-1]     

 cryst.   s( 5) = (     0          0          1      )
                  (     1          0          0      )
                  (     0          1          0      )

 cart.    s( 5) = (  0.0000000  1.0000000  0.0000000 )
                  (  0.0000000  0.0000000  1.0000000 )
                  (  1.0000000  0.0000000  0.0000000 )


      isym =  6     120 deg rotation - cart. axis [-1,1,1]       

 cryst.   s( 6) = (     0          0         -1      )
                  (    -1          0          0      )
                  (     0          1          0      )

 cart.    s( 6) = (  0.0000000 -1.0000000  0.0000000 )
                  (  0.0000000  0.0000000  1.0000000 )
                  ( -1.0000000  0.0000000  0.0000000 )


      isym =  7     120 deg rotation - cart. axis [1,1,-1]       

 cryst.   s( 7) = (     0          0         -1      )
                  (     1          0          0      )
                  (     0         -1          0      )

 cart.    s( 7) = (  0.0000000  1.0000000  0.0000000 )
                  (  0.0000000  0.0000000 -1.0000000 )
                  ( -1.0000000  0.0000000  0.0000000 )


      isym =  8     120 deg rotation - cart. axis [1,-1,1]       

 cryst.   s( 8) = (     0          0          1      )
                  (    -1          0          0      )
                  (     0         -1          0      )

 cart.    s( 8) = (  0.0000000 -1.0000000  0.0000000 )
                  (  0.0000000  0.0000000 -1.0000000 )
                  (  1.0000000  0.0000000  0.0000000 )


      isym =  9     120 deg rotation - cart. axis [1,1,1]        

 cryst.   s( 9) = (     0          1          0      )
                  (     0          0          1      )
                  (     1          0          0      )

 cart.    s( 9) = (  0.0000000  0.0000000  1.0000000 )
                  (  1.0000000  0.0000000  0.0000000 )
                  (  0.0000000  1.0000000  0.0000000 )


      isym = 10     120 deg rotation - cart. axis [-1,1,-1]      

 cryst.   s(10) = (     0         -1          0      )
                  (     0          0         -1      )
                  (     1          0          0      )

 cart.    s(10) = (  0.0000000  0.0000000  1.0000000 )
                  ( -1.0000000  0.0000000  0.0000000 )
                  (  0.0000000 -1.0000000  0.0000000 )


      isym = 11     120 deg rotation - cart. axis [1,-1,-1]      

 cryst.   s(11) = (     0         -1          0      )
                  (     0          0          1      )
                  (    -1          0          0      )

 cart.    s(11) = (  0.0000000  0.0000000 -1.0000000 )
                  ( -1.0000000  0.0000000  0.0000000 )
                  (  0.0000000  1.0000000  0.0000000 )


      isym = 12     120 deg rotation - cart. axis [-1,-1,1]      

 cryst.   s(12) = (     0          1          0      )
                  (     0          0         -1      )
                  (    -1          0          0      )

 cart.    s(12) = (  0.0000000  0.0000000 -1.0000000 )
                  (  1.0000000  0.0000000  0.0000000 )
                  (  0.0000000 -1.0000000  0.0000000 )


      isym = 13     inv. 180 deg rotation - cart. axis [1,1,0]   

 cryst.   s(13) = (     0         -1          0      )
                  (    -1          0          0      )
                  (     0          0          1      )

 cart.    s(13) = (  0.0000000 -1.0000000  0.0000000 )
                  ( -1.0000000  0.0000000  0.0000000 )
                  (  0.0000000  0.0000000  1.0000000 )


      isym = 14     inv. 180 deg rotation - cart. axis [1,-1,0]  

 cryst.   s(14) = (     0          1          0      )
                  (     1          0          0      )
                  (     0          0          1      )

 cart.    s(14) = (  0.0000000  1.0000000  0.0000000 )
                  (  1.0000000  0.0000000  0.0000000 )
                  (  0.0000000  0.0000000  1.0000000 )


      isym = 15     inv.  90 deg rotation - cart. axis [0,0,-1]  

 cryst.   s(15) = (     0          1          0      )
                  (    -1          0          0      )
                  (     0          0         -1      )

 cart.    s(15) = (  0.0000000 -1.0000000  0.0000000 )
                  (  1.0000000  0.0000000  0.0000000 )
                  (  0.0000000  0.0000000 -1.0000000 )


      isym = 16     inv.  90 deg rotation - cart. axis [0,0,1]   

 cryst.   s(16) = (     0         -1          0      )
                  (     1          0          0      )
                  (     0          0         -1      )

 cart.    s(16) = (  0.0000000  1.0000000  0.0000000 )
                  ( -1.0000000  0.0000000  0.0000000 )
                  (  0.0000000  0.0000000 -1.0000000 )


      isym = 17     inv. 180 deg rotation - cart. axis [1,0,1]   

 cryst.   s(17) = (     0          0         -1      )
                  (     0          1          0      )
                  (    -1          0          0      )

 cart.    s(17) = (  0.0000000  0.0000000 -1.0000000 )
                  (  0.0000000  1.0000000  0.0000000 )
                  ( -1.0000000  0.0000000  0.0000000 )


      isym = 18     inv. 180 deg rotation - cart. axis [-1,0,1]  

 cryst.   s(18) = (     0          0          1      )
                  (     0          1          0      )
                  (     1          0          0      )

 cart.    s(18) = (  0.0000000  0.0000000  1.0000000 )
                  (  0.0000000  1.0000000  0.0000000 )
                  (  1.0000000  0.0000000  0.0000000 )


      isym = 19     inv.  90 deg rotation - cart. axis [0,1,0]   

 cryst.   s(19) = (     0          0          1      )
                  (     0         -1          0      )
                  (    -1          0          0      )

 cart.    s(19) = (  0.0000000  0.0000000 -1.0000000 )
                  (  0.0000000 -1.0000000  0.0000000 )
                  (  1.0000000  0.0000000  0.0000000 )


      isym = 20     inv.  90 deg rotation - cart. axis [0,-1,0]  

 cryst.   s(20) = (     0          0         -1      )
                  (     0         -1          0      )
                  (     1          0          0      )

 cart.    s(20) = (  0.0000000  0.0000000  1.0000000 )
                  (  0.0000000 -1.0000000  0.0000000 )
                  ( -1.0000000  0.0000000  0.0000000 )


      isym = 21     inv. 180 deg rotation - cart. axis [0,1,1]   

 cryst.   s(21) = (     1          0          0      )
                  (     0          0         -1      )
                  (     0         -1          0      )

 cart.    s(21) = (  1.0000000  0.0000000  0.0000000 )
                  (  0.0000000  0.0000000 -1.0000000 )
                  (  0.0000000 -1.0000000  0.0000000 )


      isym = 22     inv. 180 deg rotation - cart. axis [0,1,-1]  

 cryst.   s(22) = (     1          0          0      )
                  (     0          0          1      )
                  (     0          1          0      )

 cart.    s(22) = (  1.0000000  0.0000000  0.0000000 )
                  (  0.0000000  0.0000000  1.0000000 )
                  (  0.0000000  1.0000000  0.0000000 )


      isym = 23     inv.  90 deg rotation - cart. axis [-1,0,0]  

 cryst.   s(23) = (    -1          0          0      )
                  (     0          0          1      )
                  (     0         -1          0      )

 cart.    s(23) = ( -1.0000000  0.0000000  0.0000000 )
                  (  0.0000000  0.0000000 -1.0000000 )
                  (  0.0000000  1.0000000  0.0000000 )


      isym = 24     inv.  90 deg rotation - cart. axis [1,0,0]   

 cryst.   s(24) = (    -1          0          0      )
                  (     0          0         -1      )
                  (     0          1          0      )

 cart.    s(24) = ( -1.0000000  0.0000000  0.0000000 )
                  (  0.0000000  0.0000000  1.0000000 )
                  (  0.0000000 -1.0000000  0.0000000 )


   Cartesian axes

     site n.     atom                  positions (alat units)
         1           C   tau(   1) = (   0.0000000   0.0000000   0.0000000  )
         2           C   tau(   2) = (   0.5000000   0.5000000   0.0000000  )
         3           C   tau(   3) = (   0.0000000   0.5000000   0.5000000  )
         4           C   tau(   4) = (   0.5000000   0.0000000   0.5000000  )
         5           C   tau(   5) = (   0.2500000   0.2500000   0.2500000  )
         6           C   tau(   6) = (   0.7500000   0.7500000   0.2500000  )
         7           C   tau(   7) = (   0.2500000   0.7500000   0.7500000  )
         8           C   tau(   8) = (   0.7500000   0.2500000   0.7500000  )

   Crystallographic axes

     site n.     atom                  positions (cryst. coord.)
         1           C   tau(   1) = (  0.0000000  0.0000000  0.0000000  )
         2           C   tau(   2) = (  0.5000000  0.5000000  0.0000000  )
         3           C   tau(   3) = (  0.0000000  0.5000000  0.5000000  )
         4           C   tau(   4) = (  0.5000000  0.0000000  0.5000000  )
         5           C   tau(   5) = (  0.2500000  0.2500000  0.2500000  )
         6           C   tau(   6) = (  0.7500000  0.7500000  0.2500000  )
         7           C   tau(   7) = (  0.2500000  0.7500000  0.7500000  )
         8           C   tau(   8) = (  0.7500000  0.2500000  0.7500000  )

     number of k points=    35  Marzari-Vanderbilt smearing, width (Ry)=  0.0200
                       cart. coord. in units 2pi/alat
        k(    1) = (   0.0000000   0.0000000   0.0000000), wk =   0.0027435
        k(    2) = (   0.0000000   0.0000000   0.1111111), wk =   0.0164609
        k(    3) = (   0.0000000   0.0000000   0.2222222), wk =   0.0164609
        k(    4) = (   0.0000000   0.0000000   0.3333333), wk =   0.0164609
        k(    5) = (   0.0000000   0.0000000   0.4444444), wk =   0.0164609
        k(    6) = (   0.0000000   0.1111111   0.1111111), wk =   0.0329218
        k(    7) = (   0.0000000   0.1111111   0.2222222), wk =   0.0658436
        k(    8) = (   0.0000000   0.1111111   0.3333333), wk =   0.0658436
        k(    9) = (   0.0000000   0.1111111   0.4444444), wk =   0.0658436
        k(   10) = (   0.0000000   0.2222222   0.2222222), wk =   0.0329218
        k(   11) = (   0.0000000   0.2222222   0.3333333), wk =   0.0658436
        k(   12) = (   0.0000000   0.2222222   0.4444444), wk =   0.0658436
        k(   13) = (   0.0000000   0.3333333   0.3333333), wk =   0.0329218
        k(   14) = (   0.0000000   0.3333333   0.4444444), wk =   0.0658436
        k(   15) = (   0.0000000   0.4444444   0.4444444), wk =   0.0329218
        k(   16) = (   0.1111111   0.1111111   0.1111111), wk =   0.0219479
        k(   17) = (   0.1111111   0.1111111   0.2222222), wk =   0.0658436
        k(   18) = (   0.1111111   0.1111111   0.3333333), wk =   0.0658436
        k(   19) = (   0.1111111   0.1111111   0.4444444), wk =   0.0658436
        k(   20) = (   0.1111111   0.2222222   0.2222222), wk =   0.0658436
        k(   21) = (   0.1111111   0.2222222   0.3333333), wk =   0.1316872
        k(   22) = (   0.1111111   0.2222222   0.4444444), wk =   0.1316872
        k(   23) = (   0.1111111   0.3333333   0.3333333), wk =   0.0658436
        k(   24) = (   0.1111111   0.3333333   0.4444444), wk =   0.1316872
        k(   25) = (   0.1111111   0.4444444   0.4444444), wk =   0.0658436
        k(   26) = (   0.2222222   0.2222222   0.2222222), wk =   0.0219479
        k(   27) = (   0.2222222   0.2222222   0.3333333), wk =   0.0658436
        k(   28) = (   0.2222222   0.2222222   0.4444444), wk =   0.0658436
        k(   29) = (   0.2222222   0.3333333   0.3333333), wk =   0.0658436
        k(   30) = (   0.2222222   0.3333333   0.4444444), wk =   0.1316872
        k(   31) = (   0.2222222   0.4444444   0.4444444), wk =   0.0658436
        k(   32) = (   0.3333333   0.3333333   0.3333333), wk =   0.0219479
        k(   33) = (   0.3333333   0.3333333   0.4444444), wk =   0.0658436
        k(   34) = (   0.3333333   0.4444444   0.4444444), wk =   0.0658436
        k(   35) = (   0.4444444   0.4444444   0.4444444), wk =   0.0219479

                       cryst. coord.
        k(    1) = (   0.0000000   0.0000000   0.0000000), wk =   0.0027435
        k(    2) = (   0.0000000   0.0000000   0.1111111), wk =   0.0164609
        k(    3) = (   0.0000000   0.0000000   0.2222222), wk =   0.0164609
        k(    4) = (   0.0000000   0.0000000   0.3333333), wk =   0.0164609
        k(    5) = (   0.0000000   0.0000000   0.4444444), wk =   0.0164609
        k(    6) = (   0.0000000   0.1111111   0.1111111), wk =   0.0329218
        k(    7) = (   0.0000000   0.1111111   0.2222222), wk =   0.0658436
        k(    8) = (   0.0000000   0.1111111   0.3333333), wk =   0.0658436
        k(    9) = (   0.0000000   0.1111111   0.4444444), wk =   0.0658436
        k(   10) = (   0.0000000   0.2222222   0.2222222), wk =   0.0329218
        k(   11) = (   0.0000000   0.2222222   0.3333333), wk =   0.0658436
        k(   12) = (   0.0000000   0.2222222   0.4444444), wk =   0.0658436
        k(   13) = (   0.0000000   0.3333333   0.3333333), wk =   0.0329218
        k(   14) = (   0.0000000   0.3333333   0.4444444), wk =   0.0658436
        k(   15) = (   0.0000000   0.4444444   0.4444444), wk =   0.0329218
        k(   16) = (   0.1111111   0.1111111   0.1111111), wk =   0.0219479
        k(   17) = (   0.1111111   0.1111111   0.2222222), wk =   0.0658436
        k(   18) = (   0.1111111   0.1111111   0.3333333), wk =   0.0658436
        k(   19) = (   0.1111111   0.1111111   0.4444444), wk =   0.0658436
        k(   20) = (   0.1111111   0.2222222   0.2222222), wk =   0.0658436
        k(   21) = (   0.1111111   0.2222222   0.3333333), wk =   0.1316872
        k(   22) = (   0.1111111   0.2222222   0.4444444), wk =   0.1316872
        k(   23) = (   0.1111111   0.3333333   0.3333333), wk =   0.0658436
        k(   24) = (   0.1111111   0.3333333   0.4444444), wk =   0.1316872
        k(   25) = (   0.1111111   0.4444444   0.4444444), wk =   0.0658436
        k(   26) = (   0.2222222   0.2222222   0.2222222), wk =   0.0219479
        k(   27) = (   0.2222222   0.2222222   0.3333333), wk =   0.0658436
        k(   28) = (   0.2222222   0.2222222   0.4444444), wk =   0.0658436
        k(   29) = (   0.2222222   0.3333333   0.3333333), wk =   0.0658436
        k(   30) = (   0.2222222   0.3333333   0.4444444), wk =   0.1316872
        k(   31) = (   0.2222222   0.4444444   0.4444444), wk =   0.0658436
        k(   32) = (   0.3333333   0.3333333   0.3333333), wk =   0.0219479
        k(   33) = (   0.3333333   0.3333333   0.4444444), wk =   0.0658436
        k(   34) = (   0.3333333   0.4444444   0.4444444), wk =   0.0658436
        k(   35) = (   0.4444444   0.4444444   0.4444444), wk =   0.0219479

     Dense  grid:    68507 G-vectors     FFT dimensions: (  54,  54,  54)

     Smooth grid:    29423 G-vectors     FFT dimensions: (  40,  40,  40)

     Dynamical RAM for                 wfc:       0.19 MB

     Dynamical RAM for     wfc (w. buffer):       6.77 MB

     Dynamical RAM for           str. fact:       0.17 MB

     Dynamical RAM for           local pot:       0.00 MB

     Dynamical RAM for          nlocal pot:       0.60 MB

     Dynamical RAM for                qrad:       0.58 MB

     Dynamical RAM for          rho,v,vnew:       1.12 MB

     Dynamical RAM for               rhoin:       0.37 MB

     Dynamical RAM for            rho*nmix:       2.79 MB

     Dynamical RAM for           G-vectors:       0.69 MB

     Dynamical RAM for          h,s,v(r/c):       0.29 MB

     Dynamical RAM for          <psi|beta>:       0.02 MB

     Dynamical RAM for                 psi:       0.75 MB

     Dynamical RAM for                hpsi:       0.75 MB

     Dynamical RAM for                spsi:       0.75 MB

     Dynamical RAM for      wfcinit/wfcrot:       0.63 MB

     Dynamical RAM for           addusdens:       8.89 MB

     Estimated static dynamical RAM per process >      14.45 MB

     Estimated max dynamical RAM per process >      23.34 MB

     Estimated total dynamical RAM >     140.03 MB

     Check: negative core charge=   -0.000003

     Initial potential from superposition of free atoms

     starting charge   31.99967, renormalised to   32.00000
     Starting wfcs are   32 randomized atomic wfcs

     total cpu time spent up to now is        1.4 secs

     Self-consistent Calculation

     iteration #  1     ecut=    80.00 Ry     beta= 0.70
     Davidson diagonalization with overlap
     ethr =  1.00E-02,  avg # of iterations =  2.4

     total cpu time spent up to now is        3.4 secs

     total energy              =     -99.31591586 Ry
     Harris-Foulkes estimate   =     -99.52683319 Ry
     estimated scf accuracy    <       0.47317022 Ry

     iteration #  2     ecut=    80.00 Ry     beta= 0.70
     Davidson diagonalization with overlap
     ethr =  1.48E-03,  avg # of iterations =  1.2

     total cpu time spent up to now is        4.9 secs

     total energy              =     -99.35010883 Ry
     Harris-Foulkes estimate   =     -99.35072553 Ry
     estimated scf accuracy    <       0.00960663 Ry

     iteration #  3     ecut=    80.00 Ry     beta= 0.70
     Davidson diagonalization with overlap
     ethr =  3.00E-05,  avg # of iterations =  6.6

     total cpu time spent up to now is        7.2 secs

     total energy              =     -99.35162200 Ry
     Harris-Foulkes estimate   =     -99.35156310 Ry
     estimated scf accuracy    <       0.00026560 Ry

     iteration #  4     ecut=    80.00 Ry     beta= 0.70
     Davidson diagonalization with overlap
     ethr =  8.30E-07,  avg # of iterations =  4.1

     total cpu time spent up to now is        9.1 secs

     total energy              =     -99.35165503 Ry
     Harris-Foulkes estimate   =     -99.35165598 Ry
     estimated scf accuracy    <       0.00000427 Ry

     iteration #  5     ecut=    80.00 Ry     beta= 0.70
     Davidson diagonalization with overlap
     ethr =  1.33E-08,  avg # of iterations =  2.3

     total cpu time spent up to now is       11.0 secs

     End of self-consistent calculation

          k = 0.0000 0.0000 0.0000 (  3743 PWs)   bands (ev):

    -8.1254   0.5841   0.5841   0.5841   0.5841   0.5841   0.5841   7.0362
     7.0362   7.0362   7.0362   7.0362   7.0362  13.3426  13.3426  13.3426
    18.1425  18.1425  18.1425  18.1426

     occupation numbers 
     1.0000   1.0000   1.0000   1.0000   1.0000   1.0000   1.0000   1.0000
     1.0000   1.0000   1.0000   1.0000   1.0000   1.0000   1.0000   1.0000
     0.0000   0.0000   0.0000   0.0000

          k = 0.0000 0.0000 0.1111 (  3759 PWs)   bands (ev):

    -8.0114  -1.1340   0.6564   0.6564   0.6564   0.6565   2.4093   6.7914
     6.7914   6.7914   6.7915   7.1476   7.1476  12.8949  12.8949  13.0643
    17.7200  18.6039  18.6039  18.6039

     occupation numbers 
     1.0000   1.0000   1.0000   1.0000   1.0000   1.0000   1.0000   1.0000
     1.0000   1.0000   1.0000   1.0000   1.0000   1.0000   1.0000   1.0000
     0.0000   0.0000   0.0000   0.0000

          k = 0.0000 0.0000 0.2222 (  3707 PWs)   bands (ev):

    -7.6704  -2.7069   0.8575   0.8575   0.8575   0.8576   4.2915   6.1946
     6.1946   6.1946   6.1946   7.4796   7.4796  11.8968  11.8968  12.2815
    17.5276  18.6222  19.8188  19.8503

     occupation numbers 
     1.0000   1.0000   1.0000   1.0000   1.0000   1.0000   1.0000   1.0000
     1.0000   1.0000   1.0000   1.0000   1.0000   1.0000   1.0000   1.0000
     0.0000   0.0000   0.0000   0.0000

          k = 0.0000 0.0000 0.3333 (  3683 PWs)   bands (ev):

    -7.1043  -4.1070   1.1289   1.1289   1.1289   1.1289   5.5277   5.5277
     5.5277   5.5277   6.1697   8.0258   8.0258  10.7690  10.7690  11.1064
    17.5299  18.2967  21.1295  21.5984

     occupation numbers 
     1.0000   1.0000   1.0000   1.0000   1.0000   1.0000   1.0000   1.0000
     1.0000   1.0000   1.0000   1.0000   1.0000   1.0000   1.0000   1.0000
     0.0000   0.0000   0.0000   0.0000

          k = 0.0000 0.0000 0.4444 (  3704 PWs)   bands (ev):

    -6.3171  -5.3150   1.3439   1.3439   1.3439   1.3439   5.0786   5.0786
     5.0786   5.0787   7.9765   8.7736   8.7736   9.6446   9.7012   9.7012
    17.6897  17.9633  22.7449  23.4800

     occupation numbers 
     1.0000   1.0000   1.0000   1.0000   1.0000   1.0000   1.0000   1.0000
     1.0000   1.0000   1.0000   1.0000   1.0000   1.0000   1.0000   1.0000
     0.0000   0.0000   0.0000   0.0000

          k = 0.0000 0.1111 0.1111 (  3733 PWs)   bands (ev):

    -7.8977  -1.0437  -1.0437   0.6556   0.7884   2.4462   2.4462   5.9973
     6.8744   6.8744   6.9490   6.9490   7.2264  12.1749  12.4719  13.2004
    18.1951  18.1951  18.3272  19.1838

     occupation numbers 
     1.0000   1.0000   1.0000   1.0000   1.0000   1.0000   1.0000   1.0000
     1.0000   1.0000   1.0000   1.0000   1.0000   1.0000   1.0000   1.0000
     0.0000   0.0000   0.0000   0.0000

          k = 0.0000 0.1111 0.2222 (  3704 PWs)   bands (ev):

    -7.5570  -2.6068  -0.7804   0.7306   1.0634   2.5227   4.2532   5.1273
     6.1990   6.4918   7.1723   7.1863   7.3665  11.0802  11.5105  12.7299
    18.0113  18.9613  19.0742  19.4708

     occupation numbers 
     1.0000   1.0000   1.0000   1.0000   1.0000   1.0000   1.0000   1.0000
     1.0000   1.0000   1.0000   1.0000   1.0000   1.0000   1.0000   1.0000
     0.0000   0.0000   0.0000   0.0000

          k = 0.0000 0.1111 0.3333 (  3702 PWs)   bands (ev):

    -6.9918  -4.0013  -0.3720   0.7517   1.4613   2.5285   4.4842   5.3941
     5.9635   6.0831   6.7706   7.7162   8.0875   9.8945  10.4093  11.7469
    18.0177  18.7698  20.3382  21.2596

     occupation numbers 
     1.0000   1.0000   1.0000   1.0000   1.0000   1.0000   1.0000   1.0000
     1.0000   1.0000   1.0000   1.0000   1.0000   1.0000   1.0000   1.0000
     0.0000   0.0000   0.0000   0.0000

          k = 0.0000 0.1111 0.4444 (  3689 PWs)   bands (ev):

    -6.2059  -5.2058   0.1157   0.5473   1.9222   2.3261   4.3306   4.6982
     6.0026   6.2938   7.4404   8.4490   8.6989   9.1628   9.3607  10.4767
    18.1773  18.4464  22.1226  23.0882

     occupation numbers 
     1.0000   1.0000   1.0000   1.0000   1.0000   1.0000   1.0000   1.0000
     1.0000   1.0000   1.0000   1.0000   1.0000   1.0000   1.0000   1.0000
     0.0000   0.0000   0.0000   0.0000

          k = 0.0000 0.2222 0.2222 (  3708 PWs)   bands (ev):

    -7.2178  -2.3106  -2.3106   0.5539   1.3993   4.0829   4.0829   4.2800
     6.4611   6.4611   7.1666   7.1666   7.7813   9.9449  10.6078  12.7492
    18.8707  19.3003  19.3003  19.8706

     occupation numbers 
     1.0000   1.0000   1.0000   1.0000   1.0000   1.0000   1.0000   1.0000
     1.0000   1.0000   1.0000   1.0000   1.0000   1.0000   1.0000   1.0000
     0.0000   0.0000   0.0000   0.0000

          k = 0.0000 0.2222 0.3333 (  3694 PWs)   bands (ev):

    -6.6551  -3.6866  -1.8327   0.1473   1.8730   3.6885   3.9361   5.4093
     5.5811   6.9546   7.1337   7.9019   8.2686   8.7754   9.5520  12.1309
    19.3047  19.6524  19.9098  21.0941

     occupation numbers 
     1.0000   1.0000   1.0000   1.0000   1.0000   1.0000   1.0000   1.0000
     1.0000   1.0000   1.0000   1.0000   1.0000   1.0000   1.0000   1.0000
     0.0000   0.0000   0.0000   0.0000

          k = 0.0000 0.2222 0.4444 (  3687 PWs)   bands (ev):

    -5.8734  -4.8801  -1.2053  -0.4981   2.4608   3.1028   4.1522   4.7584
     6.5453   7.3448   7.6411   7.6566   7.6731   8.5380   9.6490  11.0221
    19.4460  19.6747  21.1027  23.0967

     occupation numbers 
     1.0000   1.0000   1.0000   1.0000   1.0000   1.0000   1.0000   1.0000
     1.0000   1.0000   1.0000   1.0000   1.0000   1.0000   1.0000   1.0000
     0.0000   0.0000   0.0000   0.0000

          k = 0.0000 0.3333 0.3333 (  3696 PWs)   bands (ev):

    -6.0971  -3.1712  -3.1712  -0.7036   2.4102   3.9630   4.6547   4.6547
     6.0282   6.0282   7.6488   8.5333   8.5349   8.5349   8.6511  11.9640
    19.7310  20.9897  21.0712  21.0713

     occupation numbers 
     1.0000   1.0000   1.0000   1.0000   1.0000   1.0000   1.0000   1.0000
     1.0000   1.0000   1.0000   1.0000   1.0000   1.0000   1.0000   1.0000
     0.0000   0.0000   0.0000   0.0000

          k = 0.0000 0.3333 0.4444 (  3696 PWs)   bands (ev):

    -5.3234  -4.3431  -2.4724  -1.6255   3.0760   3.8436   4.4139   5.1392
     5.5864   6.5774   6.6966   7.5493   8.8001   8.9085   9.9864  11.2064
    20.6068  21.1456  21.2269  22.0396

     occupation numbers 
     1.0000   1.0000   1.0000   1.0000   1.0000   1.0000   1.0000   1.0000
     1.0000   1.0000   1.0000   1.0000   1.0000   1.0000   1.0000   1.0000
     0.0000   0.0000   0.0000   0.0000

          k = 0.0000 0.4444 0.4444 (  3674 PWs)   bands (ev):

    -4.5632  -3.6054  -3.6054  -2.6869   3.8081   4.6550   4.6550   4.9812
     5.5695   5.7678   5.7678   6.5917   9.7419  10.0690  10.0690  10.9078
    20.7887  21.6376  21.6376  21.7329

     occupation numbers 
     1.0000   1.0000   1.0000   1.0000   1.0000   1.0000   1.0000   1.0000
     1.0000   1.0000   1.0000   1.0000   1.0000   1.0000   1.0000   1.0000
     0.0000   0.0000   0.0000   0.0000

          k = 0.1111 0.1111 0.1111 (  3725 PWs)   bands (ev):

    -7.7840  -0.9569  -0.9569  -0.9569   2.4632   2.4632   2.4632   6.1550
     6.1550   6.1550   7.3353   7.3354   7.3354  11.3484  12.8068  12.8068
    18.2779  18.2779  18.2779  19.6562

     occupation numbers 
     1.0000   1.0000   1.0000   1.0000   1.0000   1.0000   1.0000   1.0000
     1.0000   1.0000   1.0000   1.0000   1.0000   1.0000   1.0000   1.0000
     0.0000   0.0000   0.0000   0.0000

          k = 0.1111 0.1111 0.2222 (  3705 PWs)   bands (ev):

    -7.4438  -2.5081  -0.7083  -0.7083   2.4584   2.4584   4.1474   5.3770
     5.3770   6.6666   7.2920   7.2920   7.6599  10.1859  11.8966  12.5691
    18.2439  18.9876  18.9876  19.4590

     occupation numbers 
     1.0000   1.0000   1.0000   1.0000   1.0000   1.0000   1.0000   1.0000
     1.0000   1.0000   1.0000   1.0000   1.0000   1.0000   1.0000   1.0000
     0.0000   0.0000   0.0000   0.0000

          k = 0.1111 0.1111 0.3333 (  3694 PWs)   bands (ev):

    -6.8794  -3.8963  -0.3461  -0.3461   2.2909   2.2909   4.8997   4.8997
     5.5906   6.9393   6.9394   7.6354   8.1927   8.9902  10.8367  11.7126
    18.3232  19.1473  20.3823  20.3823

     occupation numbers 
     1.0000   1.0000   1.0000   1.0000   1.0000   1.0000   1.0000   1.0000
     1.0000   1.0000   1.0000   1.0000   1.0000   1.0000   1.0000   1.0000
     0.0000   0.0000   0.0000   0.0000

          k = 0.1111 0.1111 0.4444 (  3695 PWs)   bands (ev):

    -6.0949  -5.0971  -0.0166  -0.0166   2.0061   2.0061   4.7955   4.7955
     6.6018   6.6018   6.7541   7.8462   8.9194   9.0043   9.8155  10.4527
    18.5227  18.8136  22.1341  22.1341

     occupation numbers 
     1.0000   1.0000   1.0000   1.0000   1.0000   1.0000   1.0000   1.0000
     1.0000   1.0000   1.0000   1.0000   1.0000   1.0000   1.0000   1.0000
     0.0000   0.0000   0.0000   0.0000

          k = 0.1111 0.2222 0.2222 (  3703 PWs)   bands (ev):

    -7.1051  -2.2174  -2.2174  -0.5246   2.1835   3.7493   3.7493   4.7904
     6.1776   6.1776   7.6658   7.6658   7.8822   8.9794  11.3383  12.4877
    18.9450  19.0791  19.0791  20.1550

     occupation numbers 
     1.0000   1.0000   1.0000   1.0000   1.0000   1.0000   1.0000   1.0000
     1.0000   1.0000   1.0000   1.0000   1.0000   1.0000   1.0000   1.0000
     0.0000   0.0000   0.0000   0.0000

          k = 0.1111 0.2222 0.3333 (  3695 PWs)   bands (ev):

    -6.5433  -3.5840  -1.7540  -0.3830   1.7805   3.0578   4.7409   4.7563
     5.8808   7.3614   7.5221   7.7799   8.0079   8.3824  10.3786  11.9531
    19.2524  19.7341  20.0996  20.5105

     occupation numbers 
     1.0000   1.0000   1.0000   1.0000   1.0000   1.0000   1.0000   1.0000
     1.0000   1.0000   1.0000   1.0000   1.0000   1.0000   1.0000   1.0000
     0.0000   0.0000   0.0000   0.0000

          k = 0.1111 0.2222 0.4444 (  3706 PWs)   bands (ev):

    -5.7632  -4.7727  -1.1694  -0.6083   1.7814   2.3100   5.0829   5.5242
     5.6635   6.6659   7.5655   7.8106   8.4249   9.3865   9.5750  10.9003
    19.5041  19.8064  21.1627  22.1285

     occupation numbers 
     1.0000   1.0000   1.0000   1.0000   1.0000   1.0000   1.0000   1.0000
     1.0000   1.0000   1.0000   1.0000   1.0000   1.0000   1.0000   1.0000
     0.0000   0.0000   0.0000   0.0000

          k = 0.1111 0.3333 0.3333 (  3702 PWs)   bands (ev):

    -5.9865  -3.0744  -3.0744  -0.8087   1.6445   3.7591   3.7591   5.0338
     6.5936   6.8409   6.8409   8.6321   8.6321   8.7348   9.5050  11.8459
    19.8218  20.7096  20.7096  21.0465

     occupation numbers 
     1.0000   1.0000   1.0000   1.0000   1.0000   1.0000   1.0000   1.0000
     1.0000   1.0000   1.0000   1.0000   1.0000   1.0000   1.0000   1.0000
     0.0000   0.0000   0.0000   0.0000

          k = 0.1111 0.3333 0.4444 (  3695 PWs)   bands (ev):

    -5.2149  -4.2385  -2.3902  -1.5855   2.0767   2.8316   4.5611   5.5082
     5.5485   6.1881   7.6934   8.5776   8.8848   8.9876   9.9807  11.1461
    20.6858  20.9502  21.1622  22.3213

     occupation numbers 
     1.0000   1.0000   1.0000   1.0000   1.0000   1.0000   1.0000   1.0000
     1.0000   1.0000   1.0000   1.0000   1.0000   1.0000   1.0000   1.0000
     0.0000   0.0000   0.0000   0.0000

          k = 0.1111 0.4444 0.4444 (  3677 PWs)   bands (ev):

    -4.4580  -3.5070  -3.5070  -2.6035   2.7047   3.5532   3.5532   4.4551
     6.1697   6.9067   6.9067   7.7160   9.7922  10.0971  10.0972  10.8955
    20.8661  21.6689  21.6689  21.7703

     occupation numbers 
     1.0000   1.0000   1.0000   1.0000   1.0000   1.0000   1.0000   1.0000
     1.0000   1.0000   1.0000   1.0000   1.0000   1.0000   1.0000   1.0000
     0.0000   0.0000   0.0000   0.0000

          k = 0.2222 0.2222 0.2222 (  3698 PWs)   bands (ev):

    -6.7679  -1.9480  -1.9480  -1.9480   2.9156   2.9156   2.9156   6.1105
     6.1105   6.1105   7.7041   8.1815   8.1815   8.1815  11.8247  11.8247
    19.1575  19.1575  19.1576  20.8998

     occupation numbers 
     1.0000   1.0000   1.0000   1.0000   1.0000   1.0000   1.0000   1.0000
     1.0000   1.0000   1.0000   1.0000   1.0000   1.0000   1.0000   1.0000
     0.0000   0.0000   0.0000   0.0000

          k = 0.2222 0.2222 0.3333 (  3696 PWs)   bands (ev):

    -6.2091  -3.2806  -1.5480  -1.5480   1.9780   1.9780   3.6008   6.2801
     6.2801   6.4752   7.7411   8.3345   8.3345   8.6686  10.9787  11.6051
    19.4795  19.9685  19.9685  20.6352

     occupation numbers 
     1.0000   1.0000   1.0000   1.0000   1.0000   1.0000   1.0000   1.0000
     1.0000   1.0000   1.0000   1.0000   1.0000   1.0000   1.0000   1.0000
     0.0000   0.0000   0.0000   0.0000

          k = 0.2222 0.2222 0.4444 (  3700 PWs)   bands (ev):

    -5.4343  -4.4527  -1.1715  -1.1715   1.2977   1.2977   4.4037   5.3640
     6.4672   6.4672   8.2725   8.2725   9.3237   9.3472  10.1127  10.7089
    19.8673  20.2702  21.3282  21.3282

     occupation numbers 
     1.0000   1.0000   1.0000   1.0000   1.0000   1.0000   1.0000   1.0000
     1.0000   1.0000   1.0000   1.0000   1.0000   1.0000   1.0000   1.0000
     0.0000   0.0000   0.0000   0.0000

          k = 0.2222 0.3333 0.3333 (  3683 PWs)   bands (ev):

    -5.6562  -2.7938  -2.7938  -1.3652   1.1106   2.4762   2.4762   5.2371
     6.6982   7.7989   7.7989   8.9409   8.9409   8.9806  10.5321  11.5120
    20.0827  20.3218  20.3218  21.2465

     occupation numbers 
     1.0000   1.0000   1.0000   1.0000   1.0000   1.0000   1.0000   1.0000
     1.0000   1.0000   1.0000   1.0000   1.0000   1.0000   1.0000   1.0000
     0.0000   0.0000   0.0000   0.0000

          k = 0.2222 0.3333 0.4444 (  3688 PWs)   bands (ev):

    -4.8917  -3.9288  -2.1726  -1.5742   0.9492   1.5273   3.2050   4.1343
     7.1518   7.5651   8.9206   9.1510   9.2243   9.7645   9.9448  10.9659
    20.7347  20.9102  21.1204  21.5442

     occupation numbers 
     1.0000   1.0000   1.0000   1.0000   1.0000   1.0000   1.0000   1.0000
     1.0000   1.0000   1.0000   1.0000   1.0000   1.0000   1.0000   1.0000
     0.0000   0.0000   0.0000   0.0000

          k = 0.2222 0.4444 0.4444 (  3691 PWs)   bands (ev):

    -4.1463  -3.2213  -3.2213  -2.3822   1.3544   2.1617   2.1617   3.0507
     7.7670   8.3723   8.3723   9.0987   9.9343  10.1706  10.1706  10.8503
    21.0820  21.6955  21.6955  21.8582

     occupation numbers 
     1.0000   1.0000   1.0000   1.0000   1.0000   1.0000   1.0000   1.0000
     1.0000   1.0000   1.0000   1.0000   1.0000   1.0000   1.0000   1.0000
     0.0000   0.0000   0.0000   0.0000

          k = 0.3333 0.3333 0.3333 (  3710 PWs)   bands (ev):

    -5.1110  -2.3731  -2.3731  -2.3730   1.3296   1.3296   1.3296   3.9740
     8.3541   8.3541   8.3541   9.3713   9.3713   9.3713  11.0195  11.0195
    20.4757  20.4757  20.4757  21.6440

     occupation numbers 
     1.0000   1.0000   1.0000   1.0000   1.0000   1.0000   1.0000   1.0000
     1.0000   1.0000   1.0000   1.0000   1.0000   1.0000   1.0000   1.0000
     0.0000   0.0000   0.0000   0.0000

          k = 0.3333 0.3333 0.4444 (  3691 PWs)   bands (ev):

    -4.3616  -3.4303  -1.9692  -1.9692   0.5509   0.5509   1.9686   2.8697
     8.6053   8.6054   9.6324   9.6324   9.7846   9.8762  10.4476  10.7514
    20.9289  21.2384  21.2384  21.3447

     occupation numbers 
     1.0000   1.0000   1.0000   1.0000   1.0000   1.0000   1.0000   1.0000
     1.0000   1.0000   1.0000   1.0000   1.0000   1.0000   1.0000   1.0000
     0.0000   0.0000   0.0000   0.0000

          k = 0.3333 0.4444 0.4444 (  3692 PWs)   bands (ev):

    -3.6442  -2.7908  -2.7908  -2.1722   0.3520   0.9568   0.9568   1.7867
     9.2091   9.5878   9.5878  10.1424  10.1557  10.2605  10.2605  10.7531
    21.3824  21.5898  21.5899  21.8243

     occupation numbers 
     1.0000   1.0000   1.0000   1.0000   1.0000   1.0000   1.0000   1.0000
     1.0000   1.0000   1.0000   1.0000   1.0000   1.0000   1.0000   1.0000
     0.0000   0.0000   0.0000   0.0000

          k = 0.4444 0.4444 0.4444 (  3698 PWs)   bands (ev):

    -2.9989  -2.3735  -2.3735  -2.3735   0.1444   0.1444   0.1444   0.7578
    10.2395  10.2395  10.2395  10.3766  10.3766  10.3766  10.5917  10.5917
    21.6647  21.6647  21.6649  21.8221

     occupation numbers 
     1.0000   1.0000   1.0000   1.0000   1.0000   1.0000   1.0000   1.0000
     1.0000   1.0000   1.0000   1.0000   1.0000   1.0000   1.0000   1.0000
     0.0000   0.0000   0.0000   0.0000

     the Fermi energy is    15.8508 ev

!    total energy              =     -99.35165621 Ry
     Harris-Foulkes estimate   =     -99.35165614 Ry
     estimated scf accuracy    <       0.00000010 Ry

     The total energy is the sum of the following terms:

     one-electron contribution =      32.71417653 Ry
     hartree contribution      =       7.76925104 Ry
     xc contribution           =     -37.51510165 Ry
     ewald contribution        =    -102.31998213 Ry
     smearing contrib. (-TS)   =      -0.00000000 Ry

     convergence has been achieved in   5 iterations

     Writing output data file c-9.save/

     init_run     :      1.04s CPU      1.08s WALL (       1 calls)
     electrons    :      9.42s CPU      9.63s WALL (       1 calls)

     Called by init_run:
     wfcinit      :      0.82s CPU      0.85s WALL (       1 calls)
     wfcinit:atom :      0.01s CPU      0.01s WALL (      35 calls)
     wfcinit:wfcr :      0.77s CPU      0.80s WALL (      35 calls)
     potinit      :      0.04s CPU      0.04s WALL (       1 calls)
     hinit0       :      0.10s CPU      0.10s WALL (       1 calls)

     Called by electrons:
     c_bands      :      8.11s CPU      8.28s WALL (       5 calls)
     sum_band     :      1.11s CPU      1.14s WALL (       5 calls)
     v_of_rho     :      0.10s CPU      0.11s WALL (       6 calls)
     v_h          :      0.01s CPU      0.01s WALL (       6 calls)
     v_xc         :      0.10s CPU      0.10s WALL (       6 calls)
     newd         :      0.11s CPU      0.11s WALL (       6 calls)
     mix_rho      :      0.01s CPU      0.01s WALL (       5 calls)

     Called by c_bands:
     init_us_2    :      0.09s CPU      0.10s WALL (     385 calls)
     cegterg      :      7.84s CPU      8.00s WALL (     175 calls)

     Called by sum_band:
     sum_band:bec :      0.00s CPU      0.00s WALL (     175 calls)
     addusdens    :      0.04s CPU      0.05s WALL (       5 calls)

     Called by *egterg:
     h_psi        :      5.30s CPU      5.47s WALL (     791 calls)
     s_psi        :      0.60s CPU      0.61s WALL (     791 calls)
     g_psi        :      0.03s CPU      0.03s WALL (     581 calls)
     cdiaghg      :      0.66s CPU      0.66s WALL (     756 calls)
     cegterg:over :      0.90s CPU      0.91s WALL (     581 calls)
     cegterg:upda :      0.35s CPU      0.35s WALL (     581 calls)
     cegterg:last :      0.16s CPU      0.17s WALL (     175 calls)

     Called by h_psi:
     h_psi:pot    :      5.28s CPU      5.45s WALL (     791 calls)
     h_psi:calbec :      0.89s CPU      0.92s WALL (     791 calls)
     vloc_psi     :      3.78s CPU      3.91s WALL (     791 calls)
     add_vuspsi   :      0.61s CPU      0.62s WALL (     791 calls)

     General routines
     calbec       :      1.19s CPU      1.23s WALL (     966 calls)
     fft          :      0.07s CPU      0.08s WALL (      76 calls)
     ffts         :      0.00s CPU      0.00s WALL (      11 calls)
     fftw         :      4.07s CPU      4.21s WALL (   24772 calls)
     interpolate  :      0.01s CPU      0.01s WALL (       6 calls)

     Parallel routines
     fft_scatt_xy :      0.31s CPU      0.32s WALL (   24859 calls)
     fft_scatt_yz :      2.05s CPU      2.13s WALL (   24859 calls)

     PWSCF        :     10.83s CPU     11.11s WALL


   This run was terminated on:  18:52:28  26May2022            

=------------------------------------------------------------------------------=
   JOB DONE.
=------------------------------------------------------------------------------=
