
     Program PWSCF v.6.4.1 starts on 17Mar2022 at 20:49:52 

     This program is part of the open-source Quantum ESPRESSO suite
     for quantum simulation of materials; please cite
         "P. Giannozzi et al., J. Phys.:Condens. Matter 21 395502 (2009);
         "P. Giannozzi et al., J. Phys.:Condens. Matter 29 465901 (2017);
          URL http://www.quantum-espresso.org", 
     in publications or presentations arising from this work. More details at
     http://www.quantum-espresso.org/quote

     Parallel version (MPI), running on     6 processors

     MPI processes distributed on     1 nodes
     R & G space division:  proc/nbgrp/npool/nimage =       6
     Reading input from cu-3.64915.in
Warning: card CU1   63.546    CU.PBE-DN-RRKJUS_PSL.1.0.0.UPF ignored
Warning: card CU2   63.546    CU.PBE-DN-RRKJUS_PSL.1.0.0.UPF ignored

     Current dimensions of program PWSCF are:
     Max number of different atomic species (ntypx) = 10
     Max number of k-points (npk) =  40000
     Max angular momentum in pseudopotentials (lmaxx) =  3
               file Cu.pbe-dn-rrkjus_psl.1.0.0.UPF: wavefunction(s)  3D renormalized
               file Cu.pbe-dn-rrkjus_psl.1.0.0.UPF: wavefunction(s)  3D renormalized

     Subspace diagonalization in iterative solution of the eigenvalue problem:
     a serial algorithm will be used

     Message from routine setup:
     DEPRECATED: symmetry with ibrav=0, use correct ibrav instead

     Parallelization info
     --------------------
     sticks:   dense  smooth     PW     G-vecs:    dense   smooth      PW
     Min         351     200     58                12203     5258     824
     Max         352     201     59                12205     5263     825
     Sum        2109    1201    349                73223    31559    4945



     bravais-lattice index     =            0
     lattice parameter (alat)  =       6.8959  a.u.
     unit-cell volume          =     327.9229 (a.u.)^3
     number of atoms/cell      =            4
     number of atomic types    =            2
     number of electrons       =        44.00
     number of Kohn-Sham states=           26
     kinetic-energy cutoff     =      80.0000  Ry
     charge density cutoff     =     560.0000  Ry
     convergence threshold     =      1.0E-06
     mixing beta               =       0.7000
     number of iterations used =            8  plain     mixing
     Exchange-correlation      = PBE ( 1  4  3  4 0 0)
     nstep                     =           50


     celldm(1)=   6.895894  celldm(2)=   0.000000  celldm(3)=   0.000000
     celldm(4)=   0.000000  celldm(5)=   0.000000  celldm(6)=   0.000000

     crystal axes: (cart. coord. in units of alat)
               a(1) = (   1.000000   0.000000   0.000000 )  
               a(2) = (   0.000000   1.000000   0.000000 )  
               a(3) = (   0.000000   0.000000   1.000000 )  

     reciprocal axes: (cart. coord. in units 2 pi/alat)
               b(1) = (  1.000000  0.000000  0.000000 )  
               b(2) = (  0.000000  1.000000  0.000000 )  
               b(3) = (  0.000000  0.000000  1.000000 )  


     PseudoPot. # 1 for Cu read from file:
     /home/cristian/Escritorio/Proyecto_Grafeno/pseudopotenciales/Cu.pbe-dn-rrkjus_psl.1.0.0.UPF
     MD5 check sum: ba3d6c84e19846e79d48cdc68ff7152b
     Pseudo is Ultrasoft + core correction, Zval = 11.0
     Generated using "atomic" code by A. Dal Corso v.6.3
     Using radial grid of 1199 points,  6 beta functions with: 
                l(1) =   0
                l(2) =   0
                l(3) =   1
                l(4) =   1
                l(5) =   2
                l(6) =   2
     Q(r) pseudized with 0 coefficients 


     PseudoPot. # 2 for Cu read from file:
     /home/cristian/Escritorio/Proyecto_Grafeno/pseudopotenciales/Cu.pbe-dn-rrkjus_psl.1.0.0.UPF
     MD5 check sum: ba3d6c84e19846e79d48cdc68ff7152b
     Pseudo is Ultrasoft + core correction, Zval = 11.0
     Generated using "atomic" code by A. Dal Corso v.6.3
     Using radial grid of 1199 points,  6 beta functions with: 
                l(1) =   0
                l(2) =   0
                l(3) =   1
                l(4) =   1
                l(5) =   2
                l(6) =   2
     Q(r) pseudized with 0 coefficients 


     atomic species   valence    mass     pseudopotential
        Cu1           11.00    63.54600     Cu( 1.00)
        Cu2           11.00    63.54600     Cu( 1.00)

     Starting magnetic structure 
     atomic species   magnetization
        Cu1          0.100
        Cu2         -0.100

      2 Sym. Ops. (no inversion) found



   Cartesian axes

     site n.     atom                  positions (alat units)
         1           Cu1 tau(   1) = (   0.0000000   0.0000000   0.0000000  )
         2           Cu2 tau(   2) = (   0.4999794   0.4999794   0.0000000  )
         3           Cu1 tau(   3) = (   0.0000000   0.4999794   0.4999794  )
         4           Cu2 tau(   4) = (   0.4999794   0.0000000   0.4999794  )

     number of k points=   144  Methfessel-Paxton smearing, width (Ry)=  0.0300

     Number of k-points >= 100: set verbosity='high' to print them.

     Dense  grid:    73223 G-vectors     FFT dimensions: (  54,  54,  54)

     Smooth grid:    31559 G-vectors     FFT dimensions: (  40,  40,  40)

     Estimated max dynamical RAM per process >     134.37 MB

     Estimated total dynamical RAM >     806.20 MB
     Generating pointlists ...
     new r_m :   0.2917 (alat units)  2.0113 (a.u.) for type    1
     new r_m :   0.2917 (alat units)  2.0113 (a.u.) for type    2

     Initial potential from superposition of free atoms

     starting charge   43.99908, renormalised to   44.00000
     Starting wfcs are   36 randomized atomic wfcs

     total cpu time spent up to now is       12.8 secs

     Self-consistent Calculation

     iteration #  1     ecut=    80.00 Ry     beta= 0.70
     Davidson diagonalization with overlap
     ethr =  1.00E-02,  avg # of iterations =  2.4

     Threshold (ethr) on eigenvalues was too large:
     Diagonalizing with lowered threshold

     Davidson diagonalization with overlap
     ethr =  6.04E-04,  avg # of iterations =  2.2

     total cpu time spent up to now is       51.0 secs

     total energy              =    -490.84217243 Ry
     Harris-Foulkes estimate   =    -490.98139690 Ry
     estimated scf accuracy    <       0.31431644 Ry

     total magnetization       =    -0.00 Bohr mag/cell
     absolute magnetization    =     0.74 Bohr mag/cell

     iteration #  2     ecut=    80.00 Ry     beta= 0.70
     Davidson diagonalization with overlap
     ethr =  7.14E-04,  avg # of iterations =  2.4

     total cpu time spent up to now is       76.6 secs

     total energy              =    -490.83512672 Ry
     Harris-Foulkes estimate   =    -491.16175855 Ry
     estimated scf accuracy    <       0.85070695 Ry

     total magnetization       =    -0.00 Bohr mag/cell
     absolute magnetization    =     0.17 Bohr mag/cell

     iteration #  3     ecut=    80.00 Ry     beta= 0.70
     Davidson diagonalization with overlap
     ethr =  7.14E-04,  avg # of iterations =  2.0

     total cpu time spent up to now is      101.6 secs

     total energy              =    -490.98640866 Ry
     Harris-Foulkes estimate   =    -490.98246018 Ry
     estimated scf accuracy    <       0.01515891 Ry

     total magnetization       =     0.00 Bohr mag/cell
     absolute magnetization    =     0.23 Bohr mag/cell

     iteration #  4     ecut=    80.00 Ry     beta= 0.70
     Davidson diagonalization with overlap
     ethr =  3.45E-05,  avg # of iterations =  2.1

     total cpu time spent up to now is      120.3 secs

     total energy              =    -490.98839096 Ry
     Harris-Foulkes estimate   =    -490.98837075 Ry
     estimated scf accuracy    <       0.00004093 Ry

     total magnetization       =     0.00 Bohr mag/cell
     absolute magnetization    =     0.02 Bohr mag/cell

     iteration #  5     ecut=    80.00 Ry     beta= 0.70
     Davidson diagonalization with overlap
     ethr =  9.30E-08,  avg # of iterations =  3.7

     total cpu time spent up to now is      152.6 secs

     total energy              =    -490.98843289 Ry
     Harris-Foulkes estimate   =    -490.98845269 Ry
     estimated scf accuracy    <       0.00006921 Ry

     total magnetization       =     0.00 Bohr mag/cell
     absolute magnetization    =     0.01 Bohr mag/cell

     iteration #  6     ecut=    80.00 Ry     beta= 0.70
     Davidson diagonalization with overlap
     ethr =  9.30E-08,  avg # of iterations =  2.0

     total cpu time spent up to now is      174.1 secs

     total energy              =    -490.98844611 Ry
     Harris-Foulkes estimate   =    -490.98844726 Ry
     estimated scf accuracy    <       0.00001477 Ry

     total magnetization       =    -0.00 Bohr mag/cell
     absolute magnetization    =     0.01 Bohr mag/cell

     iteration #  7     ecut=    80.00 Ry     beta= 0.70
     Davidson diagonalization with overlap
     ethr =  3.36E-08,  avg # of iterations =  1.5

     Magnetic moment per site:
     atom:    1    charge:    9.8451    magn:    0.0000    constr:    0.0000
     atom:    2    charge:    9.8451    magn:   -0.0000    constr:    0.0000
     atom:    3    charge:    9.8452    magn:    0.0000    constr:    0.0000
     atom:    4    charge:    9.8451    magn:   -0.0000    constr:    0.0000

     total cpu time spent up to now is      192.4 secs

     End of self-consistent calculation

     Number of k-points >= 100: set verbosity='high' to print the bands.

     the Fermi energy is    12.1506 ev

!    total energy              =    -490.98844807 Ry
     Harris-Foulkes estimate   =    -490.98844798 Ry
     estimated scf accuracy    <       0.00000006 Ry

     The total energy is the sum of the following terms:

     one-electron contribution =    -114.94438450 Ry
     hartree contribution      =     124.21122492 Ry
     xc contribution           =    -178.45898918 Ry
     ewald contribution        =    -321.79630382 Ry
     smearing contrib. (-TS)   =       0.00000451 Ry

     total magnetization       =     0.00 Bohr mag/cell
     absolute magnetization    =     0.00 Bohr mag/cell

     convergence has been achieved in   7 iterations

     Forces acting on atoms (cartesian axes, Ry/au):

     atom    1 type  1   force =    -0.00006550   -0.00003241   -0.00003241
     atom    2 type  2   force =     0.00006433    0.00003341   -0.00003281
     atom    3 type  1   force =    -0.00006317    0.00003181    0.00003181
     atom    4 type  2   force =     0.00006433   -0.00003281    0.00003341

     Total force =     0.000158     Total SCF correction =     0.000144
     SCF correction compared to forces is large: reduce conv_thr to get better values


     Computing stress (Cartesian axis) and pressure

          total   stress  (Ry/bohr**3)                   (kbar)     P=  -14.84
  -0.00010092   0.00000000   0.00000000        -14.85      0.00      0.00
   0.00000000  -0.00010084  -0.00000000          0.00    -14.83     -0.00
   0.00000000  -0.00000000  -0.00010084          0.00     -0.00    -14.83


     BFGS Geometry Optimization

     number of scf cycles    =   1
     number of bfgs steps    =   0

     enthalpy new            =    -490.9884480720 Ry

     new trust radius        =       0.0091377992 bohr
     new conv_thr            =       0.0000010000 Ry

     new unit-cell volume =    325.44844 a.u.^3 (    48.22648 Ang^3 )
     density =      8.75209 g/cm^3

CELL_PARAMETERS (angstrom)
   3.639943014   0.000000025   0.000000025
   0.000000025   3.639950723  -0.000000080
   0.000000025  -0.000000080   3.639950723

ATOMIC_POSITIONS (angstrom)
Cu1     -0.000034574  -0.000017108  -0.000017108
Cu2      1.819930667   1.819918199  -0.000017347
Cu1     -0.000033317   1.819917303   1.819917303
Cu2      1.819930667  -0.000017347   1.819918199



     Writing output data file cu-3.64915.save/
     NEW-OLD atomic charge density approx. for the potential
     extrapolated charge   43.66546, renormalised to   44.00000

     total cpu time spent up to now is      207.9 secs

     Self-consistent Calculation

     iteration #  1     ecut=    80.00 Ry     beta= 0.70
     Davidson diagonalization with overlap
     ethr =  1.00E-06,  avg # of iterations =  3.9

     total cpu time spent up to now is      247.5 secs

     total energy              =    -490.88801509 Ry
     Harris-Foulkes estimate   =    -492.10152454 Ry
     estimated scf accuracy    <       0.09193442 Ry

     total magnetization       =     0.00 Bohr mag/cell
     absolute magnetization    =     0.00 Bohr mag/cell

     iteration #  2     ecut=    80.00 Ry     beta= 0.70
     Davidson diagonalization with overlap
     ethr =  2.09E-04,  avg # of iterations =  3.0

     total cpu time spent up to now is      278.2 secs

     total energy              =    -490.91336686 Ry
     Harris-Foulkes estimate   =    -491.17342848 Ry
     estimated scf accuracy    <       0.94150954 Ry

     total magnetization       =    -0.00 Bohr mag/cell
     absolute magnetization    =     0.00 Bohr mag/cell

     iteration #  3     ecut=    80.00 Ry     beta= 0.70
     Davidson diagonalization with overlap
     ethr =  2.09E-04,  avg # of iterations =  2.6

     total cpu time spent up to now is      304.5 secs

     total energy              =    -490.99421041 Ry
     Harris-Foulkes estimate   =    -490.99890170 Ry
     estimated scf accuracy    <       0.05200540 Ry

     total magnetization       =    -0.00 Bohr mag/cell
     absolute magnetization    =     0.00 Bohr mag/cell

     iteration #  4     ecut=    80.00 Ry     beta= 0.70
     Davidson diagonalization with overlap
     ethr =  1.18E-04,  avg # of iterations =  1.0

     total cpu time spent up to now is      322.3 secs

     total energy              =    -490.99090870 Ry
     Harris-Foulkes estimate   =    -490.99477148 Ry
     estimated scf accuracy    <       0.03163532 Ry

     total magnetization       =     0.00 Bohr mag/cell
     absolute magnetization    =     0.00 Bohr mag/cell

     iteration #  5     ecut=    80.00 Ry     beta= 0.70
     Davidson diagonalization with overlap
     ethr =  7.19E-05,  avg # of iterations =  1.0

     total cpu time spent up to now is      340.0 secs

     total energy              =    -490.99014753 Ry
     Harris-Foulkes estimate   =    -490.99148678 Ry
     estimated scf accuracy    <       0.01433097 Ry

     total magnetization       =    -0.00 Bohr mag/cell
     absolute magnetization    =     0.00 Bohr mag/cell

     iteration #  6     ecut=    80.00 Ry     beta= 0.70
     Davidson diagonalization with overlap
     ethr =  3.26E-05,  avg # of iterations =  1.0

     total cpu time spent up to now is      357.8 secs

     total energy              =    -490.98970203 Ry
     Harris-Foulkes estimate   =    -490.99029350 Ry
     estimated scf accuracy    <       0.00843373 Ry

     total magnetization       =    -0.00 Bohr mag/cell
     absolute magnetization    =     0.00 Bohr mag/cell

     iteration #  7     ecut=    80.00 Ry     beta= 0.70
     Davidson diagonalization with overlap
     ethr =  1.92E-05,  avg # of iterations =  1.0

     total cpu time spent up to now is      375.5 secs

     total energy              =    -490.98913087 Ry
     Harris-Foulkes estimate   =    -490.98975998 Ry
     estimated scf accuracy    <       0.00567483 Ry

     total magnetization       =    -0.00 Bohr mag/cell
     absolute magnetization    =     0.00 Bohr mag/cell

     iteration #  8     ecut=    80.00 Ry     beta= 0.70
     Davidson diagonalization with overlap
     ethr =  1.29E-05,  avg # of iterations =  1.0

     total cpu time spent up to now is      393.3 secs

     total energy              =    -490.98875351 Ry
     Harris-Foulkes estimate   =    -490.98921134 Ry
     estimated scf accuracy    <       0.00294894 Ry

     total magnetization       =     0.00 Bohr mag/cell
     absolute magnetization    =     0.00 Bohr mag/cell

     iteration #  9     ecut=    80.00 Ry     beta= 0.70
     Davidson diagonalization with overlap
     ethr =  6.70E-06,  avg # of iterations =  1.1

     total cpu time spent up to now is      411.2 secs

     total energy              =    -490.98831614 Ry
     Harris-Foulkes estimate   =    -490.98883874 Ry
     estimated scf accuracy    <       0.00104410 Ry

     total magnetization       =     0.00 Bohr mag/cell
     absolute magnetization    =     0.00 Bohr mag/cell

     iteration # 10     ecut=    80.00 Ry     beta= 0.70
     Davidson diagonalization with overlap
     ethr =  2.37E-06,  avg # of iterations =  2.3

     total cpu time spent up to now is      436.5 secs

     total energy              =    -490.98860372 Ry
     Harris-Foulkes estimate   =    -490.98869343 Ry
     estimated scf accuracy    <       0.00025094 Ry

     total magnetization       =     0.00 Bohr mag/cell
     absolute magnetization    =     0.00 Bohr mag/cell

     iteration # 11     ecut=    80.00 Ry     beta= 0.70
     Davidson diagonalization with overlap
     ethr =  5.70E-07,  avg # of iterations =  2.0

     Magnetic moment per site:
     atom:    1    charge:    9.8400    magn:    0.0000    constr:    0.0000
     atom:    2    charge:    9.8400    magn:   -0.0000    constr:    0.0000
     atom:    3    charge:    9.8400    magn:    0.0000    constr:    0.0000
     atom:    4    charge:    9.8400    magn:   -0.0000    constr:    0.0000

     total cpu time spent up to now is      456.8 secs

     End of self-consistent calculation

     Number of k-points >= 100: set verbosity='high' to print the bands.

     the Fermi energy is    12.2801 ev

!    total energy              =    -490.98864201 Ry
     Harris-Foulkes estimate   =    -490.98864225 Ry
     estimated scf accuracy    <       0.00000034 Ry

     The total energy is the sum of the following terms:

     one-electron contribution =    -113.66053434 Ry
     hartree contribution      =     123.75551677 Ry
     xc contribution           =    -178.47382927 Ry
     ewald contribution        =    -322.60981056 Ry
     smearing contrib. (-TS)   =       0.00001540 Ry

     total magnetization       =     0.00 Bohr mag/cell
     absolute magnetization    =     0.00 Bohr mag/cell

     convergence has been achieved in  11 iterations

     Forces acting on atoms (cartesian axes, Ry/au):

     atom    1 type  1   force =     0.00000148   -0.00001417   -0.00001417
     atom    2 type  2   force =     0.00000071    0.00000590   -0.00000463
     atom    3 type  1   force =    -0.00000290    0.00001290    0.00001290
     atom    4 type  2   force =     0.00000071   -0.00000463    0.00000590

     Total force =     0.000029     Total SCF correction =     0.000018
     SCF correction compared to forces is large: reduce conv_thr to get better values


     Computing stress (Cartesian axis) and pressure

          total   stress  (Ry/bohr**3)                   (kbar)     P=    0.05
   0.00000037   0.00000000   0.00000000          0.05      0.00      0.00
   0.00000000   0.00000037   0.00000000          0.00      0.05      0.00
   0.00000000   0.00000000   0.00000037          0.00      0.00      0.05


     number of scf cycles    =   2
     number of bfgs steps    =   1

     enthalpy old            =    -490.9884480720 Ry
     enthalpy new            =    -490.9886420088 Ry

     CASE: enthalpy_new < enthalpy_old

     small trust_radius: resetting bfgs history

     new trust radius        =       0.0000335582 bohr
     new conv_thr            =       0.0000000100 Ry

     new unit-cell volume =    325.45752 a.u.^3 (    48.22783 Ang^3 )
     density =      8.75184 g/cm^3

CELL_PARAMETERS (angstrom)
   3.639976789   0.000000097   0.000000097
   0.000000097   3.639984577   0.000000227
   0.000000097   0.000000227   3.639984577

ATOMIC_POSITIONS (angstrom)
Cu1     -0.000033790  -0.000024604  -0.000024604
Cu2      1.819947965   1.819938284  -0.000019610
Cu1     -0.000034781   1.819941208   1.819941208
Cu2      1.819947965  -0.000019610   1.819938284



     Writing output data file cu-3.64915.save/
     NEW-OLD atomic charge density approx. for the potential
     extrapolated charge   44.00123, renormalised to   44.00000

     total cpu time spent up to now is      472.8 secs

     Self-consistent Calculation

     iteration #  1     ecut=    80.00 Ry     beta= 0.70
     Davidson diagonalization with overlap
     ethr =  1.00E-06,  avg # of iterations =  2.0

     Threshold (ethr) on eigenvalues was too large:
     Diagonalizing with lowered threshold

     Davidson diagonalization with overlap
     ethr =  2.02E-08,  avg # of iterations =  1.0

     total cpu time spent up to now is      515.1 secs

     total energy              =    -490.98863516 Ry
     Harris-Foulkes estimate   =    -490.98463133 Ry
     estimated scf accuracy    <       0.00000885 Ry

     total magnetization       =     0.00 Bohr mag/cell
     absolute magnetization    =     0.00 Bohr mag/cell

     iteration #  2     ecut=    80.00 Ry     beta= 0.70
     Davidson diagonalization with overlap
     ethr =  2.01E-08,  avg # of iterations =  3.0

     total cpu time spent up to now is      543.0 secs

     total energy              =    -490.98863528 Ry
     Harris-Foulkes estimate   =    -490.98865316 Ry
     estimated scf accuracy    <       0.00005451 Ry

     total magnetization       =     0.00 Bohr mag/cell
     absolute magnetization    =     0.00 Bohr mag/cell

     iteration #  3     ecut=    80.00 Ry     beta= 0.70
     Davidson diagonalization with overlap
     ethr =  2.01E-08,  avg # of iterations =  2.2

     total cpu time spent up to now is      568.7 secs

     total energy              =    -490.98864210 Ry
     Harris-Foulkes estimate   =    -490.98864222 Ry
     estimated scf accuracy    <       0.00000096 Ry

     total magnetization       =     0.00 Bohr mag/cell
     absolute magnetization    =     0.00 Bohr mag/cell

     iteration #  4     ecut=    80.00 Ry     beta= 0.70
     Davidson diagonalization with overlap
     ethr =  2.18E-09,  avg # of iterations =  1.7

     total cpu time spent up to now is      587.1 secs

     total energy              =    -490.98864198 Ry
     Harris-Foulkes estimate   =    -490.98864214 Ry
     estimated scf accuracy    <       0.00000044 Ry

     total magnetization       =     0.00 Bohr mag/cell
     absolute magnetization    =     0.00 Bohr mag/cell

     iteration #  5     ecut=    80.00 Ry     beta= 0.70
     Davidson diagonalization with overlap
     ethr =  1.01E-09,  avg # of iterations =  2.0

     Magnetic moment per site:
     atom:    1    charge:    9.8398    magn:   -0.0000    constr:    0.0000
     atom:    2    charge:    9.8398    magn:   -0.0000    constr:    0.0000
     atom:    3    charge:    9.8398    magn:    0.0000    constr:    0.0000
     atom:    4    charge:    9.8398    magn:   -0.0000    constr:    0.0000

     total cpu time spent up to now is      608.9 secs

     End of self-consistent calculation

     Number of k-points >= 100: set verbosity='high' to print the bands.

     the Fermi energy is    12.2802 ev

!    total energy              =    -490.98864205 Ry
     Harris-Foulkes estimate   =    -490.98864206 Ry
     estimated scf accuracy    <          2.6E-09 Ry

     The total energy is the sum of the following terms:

     one-electron contribution =    -113.65750093 Ry
     hartree contribution      =     123.74699427 Ry
     xc contribution           =    -178.47133844 Ry
     ewald contribution        =    -322.60681253 Ry
     smearing contrib. (-TS)   =       0.00001558 Ry

     total magnetization       =     0.00 Bohr mag/cell
     absolute magnetization    =     0.00 Bohr mag/cell

     convergence has been achieved in   5 iterations

     Forces acting on atoms (cartesian axes, Ry/au):

     atom    1 type  1   force =    -0.00000176   -0.00000582   -0.00000582
     atom    2 type  2   force =     0.00000165    0.00000674   -0.00000699
     atom    3 type  1   force =    -0.00000155    0.00000607    0.00000607
     atom    4 type  2   force =     0.00000165   -0.00000699    0.00000674

     Total force =     0.000018     Total SCF correction =     0.000006
     SCF correction compared to forces is large: reduce conv_thr to get better values


     Computing stress (Cartesian axis) and pressure

          total   stress  (Ry/bohr**3)                   (kbar)     P=   -6.92
  -0.00004700  -0.00000000  -0.00000000         -6.91     -0.00     -0.00
  -0.00000000  -0.00004701  -0.00000001         -0.00     -6.92     -0.00
  -0.00000000  -0.00000001  -0.00004701         -0.00     -0.00     -6.92


     number of scf cycles    =   3
     number of bfgs steps    =   2

     enthalpy old            =    -490.9886420088 Ry
     enthalpy new            =    -490.9886420542 Ry

     CASE: enthalpy_new < enthalpy_old

     Message from routine bfgs:
     history already reset at previous step: stopping
     small trust_radius: resetting bfgs history

     new trust radius        =       0.0001000000 bohr
     new conv_thr            =       0.0000000100 Ry

     new unit-cell volume =    325.43046 a.u.^3 (    48.22382 Ang^3 )
     density =      8.75257 g/cm^3

CELL_PARAMETERS (angstrom)
   3.639875930   0.000000094   0.000000094
   0.000000094   3.639883693   0.000000212
   0.000000094   0.000000212   3.639883693

ATOMIC_POSITIONS (angstrom)
Cu1     -0.000033811  -0.000024676  -0.000024676
Cu2      1.819897556   1.819887926  -0.000019706
Cu1     -0.000034802   1.819890836   1.819890836
Cu2      1.819897556  -0.000019706   1.819887926



     Writing output data file cu-3.64915.save/
     NEW-OLD atomic charge density approx. for the potential
     extrapolated charge   43.99634, renormalised to   44.00000

     total cpu time spent up to now is      624.9 secs

     Self-consistent Calculation

     iteration #  1     ecut=    80.00 Ry     beta= 0.70
     Davidson diagonalization with overlap
     ethr =  1.00E-06,  avg # of iterations =  2.0

     Threshold (ethr) on eigenvalues was too large:
     Diagonalizing with lowered threshold

     Davidson diagonalization with overlap
     ethr =  2.85E-08,  avg # of iterations =  1.0

     total cpu time spent up to now is      669.2 secs

     total energy              =    -490.98862980 Ry
     Harris-Foulkes estimate   =    -491.00061071 Ry
     estimated scf accuracy    <       0.00001256 Ry

     total magnetization       =     0.00 Bohr mag/cell
     absolute magnetization    =     0.00 Bohr mag/cell

     iteration #  2     ecut=    80.00 Ry     beta= 0.70
     Davidson diagonalization with overlap
     ethr =  2.85E-08,  avg # of iterations =  3.0

     total cpu time spent up to now is      698.3 secs

     total energy              =    -490.98863366 Ry
     Harris-Foulkes estimate   =    -490.98866739 Ry
     estimated scf accuracy    <       0.00011838 Ry

     total magnetization       =     0.00 Bohr mag/cell
     absolute magnetization    =     0.00 Bohr mag/cell

     iteration #  3     ecut=    80.00 Ry     beta= 0.70
     Davidson diagonalization with overlap
     ethr =  2.85E-08,  avg # of iterations =  2.4

     total cpu time spent up to now is      724.1 secs

     total energy              =    -490.98864431 Ry
     Harris-Foulkes estimate   =    -490.98864460 Ry
     estimated scf accuracy    <       0.00000686 Ry

     total magnetization       =     0.00 Bohr mag/cell
     absolute magnetization    =     0.00 Bohr mag/cell

     iteration #  4     ecut=    80.00 Ry     beta= 0.70
     Davidson diagonalization with overlap
     ethr =  1.56E-08,  avg # of iterations =  1.0

     total cpu time spent up to now is      742.0 secs

     total energy              =    -490.98864392 Ry
     Harris-Foulkes estimate   =    -490.98864435 Ry
     estimated scf accuracy    <       0.00000553 Ry

     total magnetization       =     0.00 Bohr mag/cell
     absolute magnetization    =     0.00 Bohr mag/cell

     iteration #  5     ecut=    80.00 Ry     beta= 0.70
     Davidson diagonalization with overlap
     ethr =  1.26E-08,  avg # of iterations =  1.0

     total cpu time spent up to now is      759.9 secs

     total energy              =    -490.98864380 Ry
     Harris-Foulkes estimate   =    -490.98864396 Ry
     estimated scf accuracy    <       0.00000357 Ry

     total magnetization       =     0.00 Bohr mag/cell
     absolute magnetization    =     0.00 Bohr mag/cell

     iteration #  6     ecut=    80.00 Ry     beta= 0.70
     Davidson diagonalization with overlap
     ethr =  8.11E-09,  avg # of iterations =  1.0

     total cpu time spent up to now is      777.8 secs

     total energy              =    -490.98864354 Ry
     Harris-Foulkes estimate   =    -490.98864381 Ry
     estimated scf accuracy    <       0.00000284 Ry

     total magnetization       =     0.00 Bohr mag/cell
     absolute magnetization    =     0.00 Bohr mag/cell

     iteration #  7     ecut=    80.00 Ry     beta= 0.70
     Davidson diagonalization with overlap
     ethr =  6.46E-09,  avg # of iterations =  1.0

     total cpu time spent up to now is      795.6 secs

     total energy              =    -490.98864328 Ry
     Harris-Foulkes estimate   =    -490.98864357 Ry
     estimated scf accuracy    <       0.00000165 Ry

     total magnetization       =     0.00 Bohr mag/cell
     absolute magnetization    =     0.00 Bohr mag/cell

     iteration #  8     ecut=    80.00 Ry     beta= 0.70
     Davidson diagonalization with overlap
     ethr =  3.76E-09,  avg # of iterations =  1.0

     total cpu time spent up to now is      813.5 secs

     total energy              =    -490.98864332 Ry
     Harris-Foulkes estimate   =    -490.98864334 Ry
     estimated scf accuracy    <       0.00000049 Ry

     total magnetization       =     0.00 Bohr mag/cell
     absolute magnetization    =     0.00 Bohr mag/cell

     iteration #  9     ecut=    80.00 Ry     beta= 0.70
     Davidson diagonalization with overlap
     ethr =  1.12E-09,  avg # of iterations =  1.0

     total cpu time spent up to now is      831.6 secs

     total energy              =    -490.98864319 Ry
     Harris-Foulkes estimate   =    -490.98864332 Ry
     estimated scf accuracy    <       0.00000041 Ry

     total magnetization       =     0.00 Bohr mag/cell
     absolute magnetization    =     0.00 Bohr mag/cell

     iteration # 10     ecut=    80.00 Ry     beta= 0.70
     Davidson diagonalization with overlap
     ethr =  9.39E-10,  avg # of iterations =  2.0

     total cpu time spent up to now is      851.7 secs

     total energy              =    -490.98864324 Ry
     Harris-Foulkes estimate   =    -490.98864324 Ry
     estimated scf accuracy    <       0.00000001 Ry

     total magnetization       =     0.00 Bohr mag/cell
     absolute magnetization    =     0.00 Bohr mag/cell

     iteration # 11     ecut=    80.00 Ry     beta= 0.70
     Davidson diagonalization with overlap
     ethr =  2.51E-11,  avg # of iterations =  2.6

     Magnetic moment per site:
     atom:    1    charge:    9.8398    magn:   -0.0000    constr:    0.0000
     atom:    2    charge:    9.8398    magn:    0.0000    constr:    0.0000
     atom:    3    charge:    9.8398    magn:   -0.0000    constr:    0.0000
     atom:    4    charge:    9.8398    magn:    0.0000    constr:    0.0000

     total cpu time spent up to now is      878.2 secs

     End of self-consistent calculation

     Number of k-points >= 100: set verbosity='high' to print the bands.

     the Fermi energy is    12.2816 ev

!    total energy              =    -490.98864324 Ry
     Harris-Foulkes estimate   =    -490.98864324 Ry
     estimated scf accuracy    <          2.2E-10 Ry

     The total energy is the sum of the following terms:

     one-electron contribution =    -113.64401004 Ry
     hartree contribution      =     123.74282517 Ry
     xc contribution           =    -178.47172076 Ry
     ewald contribution        =    -322.61575328 Ry
     smearing contrib. (-TS)   =       0.00001567 Ry

     total magnetization       =     0.00 Bohr mag/cell
     absolute magnetization    =     0.00 Bohr mag/cell

     convergence has been achieved in  11 iterations

     Forces acting on atoms (cartesian axes, Ry/au):

     atom    1 type  1   force =    -0.00000169   -0.00000717   -0.00000717
     atom    2 type  2   force =     0.00000155    0.00000804   -0.00000823
     atom    3 type  1   force =    -0.00000140    0.00000736    0.00000736
     atom    4 type  2   force =     0.00000155   -0.00000823    0.00000804

     Total force =     0.000022     Total SCF correction =     0.000000


     Computing stress (Cartesian axis) and pressure

          total   stress  (Ry/bohr**3)                   (kbar)     P=   -6.07
  -0.00004125  -0.00000000  -0.00000000         -6.07     -0.00     -0.00
  -0.00000000  -0.00004126  -0.00000001         -0.00     -6.07     -0.00
  -0.00000000  -0.00000001  -0.00004126         -0.00     -0.00     -6.07

     Message from routine bfgs:
     history already reset at previous step: stopping
Begin final coordinates
     new unit-cell volume =    325.43046 a.u.^3 (    48.22382 Ang^3 )
     density =      8.75257 g/cm^3

CELL_PARAMETERS (angstrom)
   3.639875930   0.000000094   0.000000094
   0.000000094   3.639883693   0.000000212
   0.000000094   0.000000212   3.639883693

ATOMIC_POSITIONS (angstrom)
Cu1     -0.000033811  -0.000024676  -0.000024676
Cu2      1.819897556   1.819887926  -0.000019706
Cu1     -0.000034802   1.819890836   1.819890836
Cu2      1.819897556  -0.000019706   1.819887926
End final coordinates



     Writing output data file cu-3.64915.save/

     lsda relaxation :  a final configuration with zero
                        absolute magnetization has been found

     the program is checking if it is really the minimum energy structure
     by performing a new scf iteration without any "electronic" history

     Initial potential from superposition of free atoms

     starting charge   43.99908, renormalised to   44.00000

     total cpu time spent up to now is      892.3 secs

     Self-consistent Calculation

     iteration #  1     ecut=    80.00 Ry     beta= 0.70
     Davidson diagonalization with overlap
     ethr =  1.00E-06,  avg # of iterations =  4.3

     total cpu time spent up to now is      936.9 secs

     total energy              =    -490.82183500 Ry
     Harris-Foulkes estimate   =    -490.98469988 Ry
     estimated scf accuracy    <       0.34261726 Ry

     total magnetization       =    -0.00 Bohr mag/cell
     absolute magnetization    =     0.76 Bohr mag/cell

     iteration #  2     ecut=    80.00 Ry     beta= 0.70
     Davidson diagonalization with overlap
     ethr =  7.79E-04,  avg # of iterations =  2.3

     total cpu time spent up to now is      962.6 secs

     total energy              =    -490.81887605 Ry
     Harris-Foulkes estimate   =    -491.19456047 Ry
     estimated scf accuracy    <       0.98815373 Ry

     total magnetization       =    -0.00 Bohr mag/cell
     absolute magnetization    =     0.17 Bohr mag/cell

     iteration #  3     ecut=    80.00 Ry     beta= 0.70
     Davidson diagonalization with overlap
     ethr =  7.79E-04,  avg # of iterations =  2.0

     total cpu time spent up to now is      987.9 secs

     total energy              =    -490.98697953 Ry
     Harris-Foulkes estimate   =    -490.98213734 Ry
     estimated scf accuracy    <       0.01362463 Ry

     total magnetization       =    -0.00 Bohr mag/cell
     absolute magnetization    =     0.23 Bohr mag/cell

     iteration #  4     ecut=    80.00 Ry     beta= 0.70
     Davidson diagonalization with overlap
     ethr =  3.10E-05,  avg # of iterations =  2.0

     total cpu time spent up to now is     1006.7 secs

     total energy              =    -490.98850013 Ry
     Harris-Foulkes estimate   =    -490.98865570 Ry
     estimated scf accuracy    <       0.00044440 Ry

     total magnetization       =    -0.00 Bohr mag/cell
     absolute magnetization    =     0.02 Bohr mag/cell

     iteration #  5     ecut=    80.00 Ry     beta= 0.70
     Davidson diagonalization with overlap
     ethr =  1.01E-06,  avg # of iterations =  2.9

     total cpu time spent up to now is     1033.4 secs

     total energy              =    -490.98863828 Ry
     Harris-Foulkes estimate   =    -490.98864192 Ry
     estimated scf accuracy    <       0.00001738 Ry

     total magnetization       =    -0.00 Bohr mag/cell
     absolute magnetization    =     0.01 Bohr mag/cell

     iteration #  6     ecut=    80.00 Ry     beta= 0.70
     Davidson diagonalization with overlap
     ethr =  3.95E-08,  avg # of iterations =  2.3

     total cpu time spent up to now is     1058.4 secs

     total energy              =    -490.98864255 Ry
     Harris-Foulkes estimate   =    -490.98864362 Ry
     estimated scf accuracy    <       0.00000554 Ry

     total magnetization       =     0.00 Bohr mag/cell
     absolute magnetization    =     0.00 Bohr mag/cell

     iteration #  7     ecut=    80.00 Ry     beta= 0.70
     Davidson diagonalization with overlap
     ethr =  1.26E-08,  avg # of iterations =  1.2

     total cpu time spent up to now is     1076.4 secs

     total energy              =    -490.98864302 Ry
     Harris-Foulkes estimate   =    -490.98864312 Ry
     estimated scf accuracy    <       0.00000066 Ry

     total magnetization       =    -0.00 Bohr mag/cell
     absolute magnetization    =     0.00 Bohr mag/cell

     iteration #  8     ecut=    80.00 Ry     beta= 0.70
     Davidson diagonalization with overlap
     ethr =  1.50E-09,  avg # of iterations =  2.7

     total cpu time spent up to now is     1102.0 secs

     total energy              =    -490.98864324 Ry
     Harris-Foulkes estimate   =    -490.98864324 Ry
     estimated scf accuracy    <       0.00000003 Ry

     total magnetization       =    -0.00 Bohr mag/cell
     absolute magnetization    =     0.00 Bohr mag/cell

     iteration #  9     ecut=    80.00 Ry     beta= 0.70
     Davidson diagonalization with overlap
     ethr =  6.23E-11,  avg # of iterations =  1.8

     Magnetic moment per site:
     atom:    1    charge:    9.8398    magn:    0.0000    constr:    0.0000
     atom:    2    charge:    9.8398    magn:   -0.0000    constr:    0.0000
     atom:    3    charge:    9.8398    magn:    0.0000    constr:    0.0000
     atom:    4    charge:    9.8398    magn:   -0.0000    constr:    0.0000

     total cpu time spent up to now is     1120.5 secs

     End of self-consistent calculation

     Number of k-points >= 100: set verbosity='high' to print the bands.

     the Fermi energy is    12.2815 ev

!    total energy              =    -490.98864323 Ry
     Harris-Foulkes estimate   =    -490.98864324 Ry
     estimated scf accuracy    <          9.1E-09 Ry

     The total energy is the sum of the following terms:

     one-electron contribution =    -113.64494764 Ry
     hartree contribution      =     123.74408040 Ry
     xc contribution           =    -178.47203835 Ry
     ewald contribution        =    -322.61575328 Ry
     smearing contrib. (-TS)   =       0.00001563 Ry

     total magnetization       =    -0.00 Bohr mag/cell
     absolute magnetization    =     0.00 Bohr mag/cell

     convergence has been achieved in   9 iterations

     Forces acting on atoms (cartesian axes, Ry/au):

     atom    1 type  1   force =    -0.00000172   -0.00000682   -0.00000682
     atom    2 type  2   force =     0.00000154    0.00000813   -0.00000843
     atom    3 type  1   force =    -0.00000137    0.00000712    0.00000712
     atom    4 type  2   force =     0.00000154   -0.00000843    0.00000813

     Total force =     0.000022     Total SCF correction =     0.000002
     SCF correction compared to forces is large: reduce conv_thr to get better values


     Computing stress (Cartesian axis) and pressure

          total   stress  (Ry/bohr**3)                   (kbar)     P=   -5.11
  -0.00003473  -0.00000000  -0.00000000         -5.11     -0.00     -0.00
  -0.00000000  -0.00003475  -0.00000001         -0.00     -5.11     -0.00
  -0.00000000  -0.00000001  -0.00003475         -0.00     -0.00     -5.11

     Message from routine bfgs:
     history already reset at previous step: stopping

     bfgs converged in   4 scf cycles and   3 bfgs steps
     (criteria: energy <  1.0E-05 Ry, force <  1.0E-04Ry/Bohr, cell <  5.0E-01kbar)

     End of BFGS Geometry Optimization

     Final enthalpy =    -490.9886432340 Ry
Begin final coordinates
     new unit-cell volume =    325.43046 a.u.^3 (    48.22382 Ang^3 )
     density =      8.75257 g/cm^3

CELL_PARAMETERS (angstrom)
   3.639875930   0.000000094   0.000000094
   0.000000094   3.639883693   0.000000212
   0.000000094   0.000000212   3.639883693

ATOMIC_POSITIONS (angstrom)
Cu1     -0.000033811  -0.000024676  -0.000024676
Cu2      1.819897556   1.819887926  -0.000019706
Cu1     -0.000034802   1.819890836   1.819890836
Cu2      1.819897556  -0.000019706   1.819887926
End final coordinates



     Writing output data file cu-3.64915.save/

     A final scf calculation at the relaxed structure.
     The G-vectors are recalculated for the final unit cell
     Results may differ from those at the preceding step.

     Parallelization info
     --------------------
     sticks:   dense  smooth     PW     G-vecs:    dense   smooth      PW
     Min         348     200     58                12120     5238     824
     Max         349     201     59                12125     5243     825
     Sum        2093    1201    349                72743    31439    4945



     bravais-lattice index     =            0
     lattice parameter (alat)  =       6.8959  a.u.
     unit-cell volume          =     325.4305 (a.u.)^3
     number of atoms/cell      =            4
     number of atomic types    =            2
     number of electrons       =        44.00
     number of Kohn-Sham states=           26
     kinetic-energy cutoff     =      80.0000  Ry
     charge density cutoff     =     560.0000  Ry
     convergence threshold     =      1.0E-08
     mixing beta               =       0.7000
     number of iterations used =            8  plain     mixing
     Exchange-correlation      = PBE ( 1  4  3  4 0 0)

     celldm(1)=   6.895894  celldm(2)=   0.000000  celldm(3)=   0.000000
     celldm(4)=   0.000000  celldm(5)=   0.000000  celldm(6)=   0.000000

     crystal axes: (cart. coord. in units of alat)
               a(1) = (   0.997459   0.000000   0.000000 )  
               a(2) = (   0.000000   0.997461   0.000000 )  
               a(3) = (   0.000000   0.000000   0.997461 )  

     reciprocal axes: (cart. coord. in units 2 pi/alat)
               b(1) = (  1.002548 -0.000000 -0.000000 )  
               b(2) = ( -0.000000  1.002546 -0.000000 )  
               b(3) = ( -0.000000 -0.000000  1.002546 )  


     PseudoPot. # 1 for Cu read from file:
     /home/cristian/Escritorio/Proyecto_Grafeno/pseudopotenciales/Cu.pbe-dn-rrkjus_psl.1.0.0.UPF
     MD5 check sum: ba3d6c84e19846e79d48cdc68ff7152b
     Pseudo is Ultrasoft + core correction, Zval = 11.0
     Generated using "atomic" code by A. Dal Corso v.6.3
     Using radial grid of 1199 points,  6 beta functions with: 
                l(1) =   0
                l(2) =   0
                l(3) =   1
                l(4) =   1
                l(5) =   2
                l(6) =   2
     Q(r) pseudized with 0 coefficients 


     PseudoPot. # 2 for Cu read from file:
     /home/cristian/Escritorio/Proyecto_Grafeno/pseudopotenciales/Cu.pbe-dn-rrkjus_psl.1.0.0.UPF
     MD5 check sum: ba3d6c84e19846e79d48cdc68ff7152b
     Pseudo is Ultrasoft + core correction, Zval = 11.0
     Generated using "atomic" code by A. Dal Corso v.6.3
     Using radial grid of 1199 points,  6 beta functions with: 
                l(1) =   0
                l(2) =   0
                l(3) =   1
                l(4) =   1
                l(5) =   2
                l(6) =   2
     Q(r) pseudized with 0 coefficients 


     atomic species   valence    mass     pseudopotential
        Cu1           11.00    63.54600     Cu( 1.00)
        Cu2           11.00    63.54600     Cu( 1.00)

     Starting magnetic structure 
     atomic species   magnetization
        Cu1          0.000
        Cu2         -0.000

      2 Sym. Ops. (no inversion) found



   Cartesian axes

     site n.     atom                  positions (alat units)
         1           Cu1 tau(   1) = (  -0.0000093  -0.0000068  -0.0000068  )
         2           Cu2 tau(   2) = (   0.4987182   0.4987156  -0.0000054  )
         3           Cu1 tau(   3) = (  -0.0000095   0.4987164   0.4987164  )
         4           Cu2 tau(   4) = (   0.4987182  -0.0000054   0.4987156  )

     number of k points=   144  Methfessel-Paxton smearing, width (Ry)=  0.0300

     Number of k-points >= 100: set verbosity='high' to print them.

     Dense  grid:    72743 G-vectors     FFT dimensions: (  54,  54,  54)

     Smooth grid:    31439 G-vectors     FFT dimensions: (  40,  40,  40)

     Estimated max dynamical RAM per process >     133.67 MB

     Estimated total dynamical RAM >     802.00 MB
     Generating pointlists ...

     Initial potential from superposition of free atoms

     starting charge   43.99908, renormalised to   44.00000
     Starting wfcs are   36 randomized atomic wfcs

     total cpu time spent up to now is     1145.2 secs

     Self-consistent Calculation

     iteration #  1     ecut=    80.00 Ry     beta= 0.70
     Davidson diagonalization with overlap
     ethr =  1.00E-06,  avg # of iterations =  8.7

     total cpu time spent up to now is     1198.9 secs

     total energy              =    -490.84768892 Ry
     Harris-Foulkes estimate   =    -491.03414595 Ry
     estimated scf accuracy    <       0.23789317 Ry

     total magnetization       =    -0.00 Bohr mag/cell
     absolute magnetization    =     0.00 Bohr mag/cell

     iteration #  2     ecut=    80.00 Ry     beta= 0.70
     Davidson diagonalization with overlap
     ethr =  5.41E-04,  avg # of iterations =  2.9

     total cpu time spent up to now is     1225.6 secs

     total energy              =    -490.84880474 Ry
     Harris-Foulkes estimate   =    -491.18726784 Ry
     estimated scf accuracy    <       0.88705888 Ry

     total magnetization       =    -0.00 Bohr mag/cell
     absolute magnetization    =     0.00 Bohr mag/cell

     iteration #  3     ecut=    80.00 Ry     beta= 0.70
     Davidson diagonalization with overlap
     ethr =  5.41E-04,  avg # of iterations =  2.1

     total cpu time spent up to now is     1251.0 secs

     total energy              =    -490.98825887 Ry
     Harris-Foulkes estimate   =    -490.98832729 Ry
     estimated scf accuracy    <       0.00027696 Ry

     total magnetization       =    -0.00 Bohr mag/cell
     absolute magnetization    =     0.00 Bohr mag/cell

     iteration #  4     ecut=    80.00 Ry     beta= 0.70
     Davidson diagonalization with overlap
     ethr =  6.29E-07,  avg # of iterations =  3.6

     total cpu time spent up to now is     1281.5 secs

     total energy              =    -490.98860688 Ry
     Harris-Foulkes estimate   =    -490.98862939 Ry
     estimated scf accuracy    <       0.00007344 Ry

     total magnetization       =    -0.00 Bohr mag/cell
     absolute magnetization    =     0.00 Bohr mag/cell

     iteration #  5     ecut=    80.00 Ry     beta= 0.70
     Davidson diagonalization with overlap
     ethr =  1.67E-07,  avg # of iterations =  2.0

     total cpu time spent up to now is     1302.5 secs

     total energy              =    -490.98861907 Ry
     Harris-Foulkes estimate   =    -490.98861929 Ry
     estimated scf accuracy    <       0.00000062 Ry

     total magnetization       =    -0.00 Bohr mag/cell
     absolute magnetization    =     0.00 Bohr mag/cell

     iteration #  6     ecut=    80.00 Ry     beta= 0.70
     Davidson diagonalization with overlap
     ethr =  1.41E-09,  avg # of iterations =  3.0

     total cpu time spent up to now is     1330.6 secs

     total energy              =    -490.98861906 Ry
     Harris-Foulkes estimate   =    -490.98861979 Ry
     estimated scf accuracy    <       0.00000319 Ry

     total magnetization       =     0.00 Bohr mag/cell
     absolute magnetization    =     0.00 Bohr mag/cell

     iteration #  7     ecut=    80.00 Ry     beta= 0.70
     Davidson diagonalization with overlap
     ethr =  1.41E-09,  avg # of iterations =  2.0

     Magnetic moment per site:
     atom:    1    charge:    9.8529    magn:   -0.0000    constr:    0.0000
     atom:    2    charge:    9.8529    magn:   -0.0000    constr:    0.0000
     atom:    3    charge:    9.8529    magn:    0.0000    constr:    0.0000
     atom:    4    charge:    9.8529    magn:   -0.0000    constr:    0.0000

     total cpu time spent up to now is     1354.8 secs

     End of self-consistent calculation

     Number of k-points >= 100: set verbosity='high' to print the bands.

     the Fermi energy is    12.2816 ev

!    total energy              =    -490.98861941 Ry
     Harris-Foulkes estimate   =    -490.98861941 Ry
     estimated scf accuracy    <          1.2E-09 Ry

     The total energy is the sum of the following terms:

     one-electron contribution =    -113.64365955 Ry
     hartree contribution      =     123.74239963 Ry
     xc contribution           =    -178.47162187 Ry
     ewald contribution        =    -322.61575328 Ry
     smearing contrib. (-TS)   =       0.00001566 Ry

     total magnetization       =     0.00 Bohr mag/cell
     absolute magnetization    =     0.00 Bohr mag/cell

     convergence has been achieved in   7 iterations

     Forces acting on atoms (cartesian axes, Ry/au):

     atom    1 type  1   force =    -0.00000309   -0.00001076   -0.00001076
     atom    2 type  2   force =     0.00000209    0.00001235   -0.00001235
     atom    3 type  1   force =    -0.00000109    0.00001075    0.00001075
     atom    4 type  2   force =     0.00000209   -0.00001235    0.00001235

     Total force =     0.000033     Total SCF correction =     0.000018
     SCF correction compared to forces is large: reduce conv_thr to get better values


     Computing stress (Cartesian axis) and pressure

          total   stress  (Ry/bohr**3)                   (kbar)     P=   -6.47
  -0.00004397  -0.00000000  -0.00000000         -6.47     -0.00     -0.00
  -0.00000000  -0.00004399  -0.00000001         -0.00     -6.47     -0.00
  -0.00000000  -0.00000001  -0.00004399         -0.00     -0.00     -6.47


     Writing output data file cu-3.64915.save/

     init_run     :     22.63s CPU     23.10s WALL (       2 calls)
     electrons    :   1224.90s CPU   1255.80s WALL (       6 calls)
     update_pot   :      7.77s CPU      7.77s WALL (       3 calls)
     forces       :     31.12s CPU     31.28s WALL (       6 calls)
     stress       :     46.51s CPU     46.58s WALL (       6 calls)

     Called by init_run:
     wfcinit      :     17.82s CPU     18.24s WALL (       2 calls)
     potinit      :      1.98s CPU      1.99s WALL (       3 calls)
     hinit0       :      3.12s CPU      3.12s WALL (       2 calls)

     Called by electrons:
     c_bands      :   1078.47s CPU   1104.37s WALL (      53 calls)
     sum_band     :    136.97s CPU    141.91s WALL (      53 calls)
     v_of_rho     :      2.55s CPU      2.59s WALL (      56 calls)
     newd         :      7.44s CPU      7.48s WALL (      56 calls)
     mix_rho      :      0.31s CPU      0.31s WALL (      53 calls)

     Called by c_bands:
     init_us_2    :     12.97s CPU     13.11s WALL (   34560 calls)
     cegterg      :   1020.05s CPU   1045.63s WALL (   15264 calls)

     Called by sum_band:
     sum_band:bec :      0.80s CPU      0.82s WALL (   15264 calls)
     addusdens    :     10.02s CPU     10.04s WALL (      53 calls)

     Called by *egterg:
     h_psi        :    592.71s CPU    617.47s WALL (   49063 calls)
     s_psi        :     80.57s CPU     80.84s WALL (   49063 calls)
     g_psi        :      3.72s CPU      3.73s WALL (   33223 calls)
     cdiaghg      :     62.81s CPU     63.07s WALL (   46471 calls)

     Called by h_psi:
     h_psi:pot    :    590.72s CPU    615.46s WALL (   49063 calls)
     h_psi:calbec :    113.74s CPU    118.56s WALL (   49063 calls)
     vloc_psi     :    394.98s CPU    414.04s WALL (   49063 calls)
     add_vuspsi   :     81.82s CPU     82.71s WALL (   49063 calls)

     General routines
     calbec       :    183.81s CPU    190.61s WALL (   72967 calls)
     fft          :      2.14s CPU      2.19s WALL (    1635 calls)
     ffts         :      0.07s CPU      0.07s WALL (     218 calls)
     fftw         :    428.96s CPU    449.03s WALL ( 2500786 calls)
     interpolate  :      0.14s CPU      0.15s WALL (     112 calls)

     Parallel routines
     fft_scatt_xy :     34.45s CPU     36.10s WALL ( 2502639 calls)
     fft_scatt_yz :    208.68s CPU    218.12s WALL ( 2502639 calls)

     PWSCF        :  22m16.19s CPU  22m48.13s WALL


   This run was terminated on:  21:12:41  17Mar2022            

=------------------------------------------------------------------------------=
   JOB DONE.
=------------------------------------------------------------------------------=
