
     Program PWSCF v.6.4.1 starts on  8Jul2022 at  1:53:55 

     This program is part of the open-source Quantum ESPRESSO suite
     for quantum simulation of materials; please cite
         "P. Giannozzi et al., J. Phys.:Condens. Matter 21 395502 (2009);
         "P. Giannozzi et al., J. Phys.:Condens. Matter 29 465901 (2017);
          URL http://www.quantum-espresso.org", 
     in publications or presentations arising from this work. More details at
     http://www.quantum-espresso.org/quote

     Parallel version (MPI), running on     5 processors

     MPI processes distributed on     1 nodes
     R & G space division:  proc/nbgrp/npool/nimage =       5
     Reading input from distance-3.11403.in

     Current dimensions of program PWSCF are:
     Max number of different atomic species (ntypx) = 10
     Max number of k-points (npk) =  40000
     Max angular momentum in pseudopotentials (lmaxx) =  3

     IMPORTANT: XC functional enforced from input :
     Exchange-correlation      = RVV10 ( 1  4 13  4 3 0)
     Any further DFT definition will be discarded
     Please, verify this is what you really want

               file H.pbe-rrkjus.UPF: wavefunction(s)  1S renormalized

     Subspace diagonalization in iterative solution of the eigenvalue problem:
     a serial algorithm will be used


     Parallelization info
     --------------------
     sticks:   dense  smooth     PW     G-vecs:    dense   smooth      PW
     Min        3662    2095    542               487826   210779   27834
     Max        3663    2096    543               487829   210784   27841
     Sum       18313   10477   2713              2439139  1053907  139193



     bravais-lattice index     =            4
     lattice parameter (alat)  =      23.2937  a.u.
     unit-cell volume          =   13319.7822 (a.u.)^3
     number of atoms/cell      =           52
     number of atomic types    =            2
     number of electrons       =       202.00
     number of Kohn-Sham states=          121
     kinetic-energy cutoff     =      70.0000  Ry
     charge density cutoff     =     490.0000  Ry
     convergence threshold     =      1.0E-06
     mixing beta               =       0.3000
     number of iterations used =            8  plain     mixing
     Exchange-correlation      = RVV10 ( 1  4 13  4 3 0)
     nstep                     =           50


     celldm(1)=  23.293684  celldm(2)=   0.000000  celldm(3)=   1.216892
     celldm(4)=   0.000000  celldm(5)=   0.000000  celldm(6)=   0.000000

     crystal axes: (cart. coord. in units of alat)
               a(1) = (   1.000000   0.000000   0.000000 )  
               a(2) = (  -0.500000   0.866025   0.000000 )  
               a(3) = (   0.000000   0.000000   1.216892 )  

     reciprocal axes: (cart. coord. in units 2 pi/alat)
               b(1) = (  1.000000  0.577350 -0.000000 )  
               b(2) = (  0.000000  1.154701  0.000000 )  
               b(3) = (  0.000000 -0.000000  0.821766 )  


     PseudoPot. # 1 for H  read from file:
     /home/cristian/Escritorio/Proyecto_Grafeno/pseudopotenciales/H.pbe-rrkjus.UPF
     MD5 check sum: 7cc9d459525c9a0585f487a71c3c9563
     Pseudo is Ultrasoft, Zval =  1.0
     Generated by new atomic code, or converted to UPF format
     Using radial grid of 1061 points,  2 beta functions with: 
                l(1) =   0
                l(2) =   0
     Q(r) pseudized with 0 coefficients 


     PseudoPot. # 2 for C  read from file:
     /home/cristian/Escritorio/Proyecto_Grafeno/pseudopotenciales/C.pbe-n-rrkjus_psl.1.0.0.UPF
     MD5 check sum: 1fdd950c42eb37d8afe3dd2f8d12311e
     Pseudo is Ultrasoft + core correction, Zval =  4.0
     Generated using "atomic" code by A. Dal Corso v.6.3MaX
     Using radial grid of 1073 points,  4 beta functions with: 
                l(1) =   0
                l(2) =   0
                l(3) =   1
                l(4) =   1
     Q(r) pseudized with 0 coefficients 


     vdW kernel table read from file rVV10_kernel_table
     MD5 check sum: b8e2538accc0c0b3206b45ba4daaba6c

     atomic species   valence    mass     pseudopotential
        H              1.00     1.00794     H ( 1.00)
        C              4.00    12.01070     C ( 1.00)

     No symmetry found


                                    s                        frac. trans.

      isym =  1     identity                                     

 cryst.   s( 1) = (     1          0          0      )
                  (     0          1          0      )
                  (     0          0          1      )

 cart.    s( 1) = (  1.0000000  0.0000000  0.0000000 )
                  (  0.0000000  1.0000000  0.0000000 )
                  (  0.0000000  0.0000000  1.0000000 )


     point group C_1 (1)    
     there are  1 classes
     the character table:

       E    
A      1.00

     the symmetry operations in each class and the name of the first element:

     E        1
          identity                                               

   Cartesian axes

     site n.     atom                  positions (alat units)
         1           H   tau(   1) = (   0.2194937   0.4907477   0.2526292  )
         2           H   tau(   2) = (   0.2805063   0.4907477   0.2526292  )
         3           C   tau(   3) = (   0.0000000   0.0000000   0.0000000  )
         4           C   tau(   4) = (   0.0000000   0.1154701   0.0000000  )
         5           C   tau(   5) = (  -0.1000000   0.1732051   0.0000000  )
         6           C   tau(   6) = (  -0.1000000   0.2886751   0.0000000  )
         7           C   tau(   7) = (  -0.2000000   0.3464102   0.0000000  )
         8           C   tau(   8) = (  -0.2000000   0.4618802   0.0000000  )
         9           C   tau(   9) = (  -0.3000000   0.5196152   0.0000000  )
        10           C   tau(  10) = (  -0.3000000   0.6350853   0.0000000  )
        11           C   tau(  11) = (  -0.4000000   0.6928203   0.0000000  )
        12           C   tau(  12) = (  -0.4000000   0.8082904   0.0000000  )
        13           C   tau(  13) = (   0.2000000   0.0000000   0.0000000  )
        14           C   tau(  14) = (   0.2000000   0.1154701   0.0000000  )
        15           C   tau(  15) = (   0.1000000   0.1732051   0.0000000  )
        16           C   tau(  16) = (   0.1000000   0.2886751   0.0000000  )
        17           C   tau(  17) = (   0.0000000   0.3464102   0.0000000  )
        18           C   tau(  18) = (   0.0000000   0.4618802   0.0000000  )
        19           C   tau(  19) = (  -0.1000000   0.5196152   0.0000000  )
        20           C   tau(  20) = (  -0.1000000   0.6350853   0.0000000  )
        21           C   tau(  21) = (  -0.2000000   0.6928203   0.0000000  )
        22           C   tau(  22) = (  -0.2000000   0.8082904   0.0000000  )
        23           C   tau(  23) = (   0.4000000   0.0000000   0.0000000  )
        24           C   tau(  24) = (   0.4000000   0.1154701   0.0000000  )
        25           C   tau(  25) = (   0.3000000   0.1732051   0.0000000  )
        26           C   tau(  26) = (   0.3000000   0.2886751   0.0000000  )
        27           C   tau(  27) = (   0.2000000   0.3464102   0.0000000  )
        28           C   tau(  28) = (   0.2000000   0.4618802   0.0000000  )
        29           C   tau(  29) = (   0.1000000   0.5196152   0.0000000  )
        30           C   tau(  30) = (   0.1000000   0.6350853   0.0000000  )
        31           C   tau(  31) = (   0.0000000   0.6928203   0.0000000  )
        32           C   tau(  32) = (   0.0000000   0.8082904   0.0000000  )
        33           C   tau(  33) = (   0.6000000   0.0000000   0.0000000  )
        34           C   tau(  34) = (   0.6000000   0.1154701   0.0000000  )
        35           C   tau(  35) = (   0.5000000   0.1732051   0.0000000  )
        36           C   tau(  36) = (   0.5000000   0.2886751   0.0000000  )
        37           C   tau(  37) = (   0.4000000   0.3464102   0.0000000  )
        38           C   tau(  38) = (   0.4000000   0.4618802   0.0000000  )
        39           C   tau(  39) = (   0.3000000   0.5196152   0.0000000  )
        40           C   tau(  40) = (   0.3000000   0.6350853   0.0000000  )
        41           C   tau(  41) = (   0.2000000   0.6928203   0.0000000  )
        42           C   tau(  42) = (   0.2000000   0.8082904   0.0000000  )
        43           C   tau(  43) = (   0.8000000   0.0000000   0.0000000  )
        44           C   tau(  44) = (   0.8000000   0.1154701   0.0000000  )
        45           C   tau(  45) = (   0.7000000   0.1732051   0.0000000  )
        46           C   tau(  46) = (   0.7000000   0.2886751   0.0000000  )
        47           C   tau(  47) = (   0.6000000   0.3464102   0.0000000  )
        48           C   tau(  48) = (   0.6000000   0.4618802   0.0000000  )
        49           C   tau(  49) = (   0.5000000   0.5196152   0.0000000  )
        50           C   tau(  50) = (   0.5000000   0.6350853   0.0000000  )
        51           C   tau(  51) = (   0.4000000   0.6928203   0.0000000  )
        52           C   tau(  52) = (   0.4000000   0.8082904   0.0000000  )

   Crystallographic axes

     site n.     atom                  positions (cryst. coord.)
         1           H   tau(   1) = (  0.5028270  0.5666667  0.2076020  )
         2           H   tau(   2) = (  0.5638397  0.5666667  0.2076020  )
         3           C   tau(   3) = (  0.0000000  0.0000000  0.0000000  )
         4           C   tau(   4) = (  0.0666667  0.1333333  0.0000000  )
         5           C   tau(   5) = (  0.0000000  0.2000000  0.0000000  )
         6           C   tau(   6) = (  0.0666667  0.3333333  0.0000000  )
         7           C   tau(   7) = (  0.0000000  0.4000000  0.0000000  )
         8           C   tau(   8) = (  0.0666667  0.5333333  0.0000000  )
         9           C   tau(   9) = (  0.0000000  0.6000000  0.0000000  )
        10           C   tau(  10) = (  0.0666667  0.7333333  0.0000000  )
        11           C   tau(  11) = (  0.0000000  0.8000000  0.0000000  )
        12           C   tau(  12) = (  0.0666667  0.9333333  0.0000000  )
        13           C   tau(  13) = (  0.2000000  0.0000000  0.0000000  )
        14           C   tau(  14) = (  0.2666667  0.1333333  0.0000000  )
        15           C   tau(  15) = (  0.2000000  0.2000000  0.0000000  )
        16           C   tau(  16) = (  0.2666667  0.3333333  0.0000000  )
        17           C   tau(  17) = (  0.2000000  0.4000000  0.0000000  )
        18           C   tau(  18) = (  0.2666667  0.5333333  0.0000000  )
        19           C   tau(  19) = (  0.2000000  0.6000000  0.0000000  )
        20           C   tau(  20) = (  0.2666667  0.7333333  0.0000000  )
        21           C   tau(  21) = (  0.2000000  0.8000000  0.0000000  )
        22           C   tau(  22) = (  0.2666667  0.9333333  0.0000000  )
        23           C   tau(  23) = (  0.4000000  0.0000000  0.0000000  )
        24           C   tau(  24) = (  0.4666667  0.1333333  0.0000000  )
        25           C   tau(  25) = (  0.4000000  0.2000000  0.0000000  )
        26           C   tau(  26) = (  0.4666667  0.3333333  0.0000000  )
        27           C   tau(  27) = (  0.4000000  0.4000000  0.0000000  )
        28           C   tau(  28) = (  0.4666667  0.5333333  0.0000000  )
        29           C   tau(  29) = (  0.4000000  0.6000000  0.0000000  )
        30           C   tau(  30) = (  0.4666667  0.7333333  0.0000000  )
        31           C   tau(  31) = (  0.4000000  0.8000000  0.0000000  )
        32           C   tau(  32) = (  0.4666667  0.9333333  0.0000000  )
        33           C   tau(  33) = (  0.6000000  0.0000000  0.0000000  )
        34           C   tau(  34) = (  0.6666667  0.1333333  0.0000000  )
        35           C   tau(  35) = (  0.6000000  0.2000000  0.0000000  )
        36           C   tau(  36) = (  0.6666667  0.3333333  0.0000000  )
        37           C   tau(  37) = (  0.6000000  0.4000000  0.0000000  )
        38           C   tau(  38) = (  0.6666667  0.5333333  0.0000000  )
        39           C   tau(  39) = (  0.6000000  0.6000000  0.0000000  )
        40           C   tau(  40) = (  0.6666667  0.7333333  0.0000000  )
        41           C   tau(  41) = (  0.6000000  0.8000000  0.0000000  )
        42           C   tau(  42) = (  0.6666667  0.9333333  0.0000000  )
        43           C   tau(  43) = (  0.8000000  0.0000000  0.0000000  )
        44           C   tau(  44) = (  0.8666667  0.1333333  0.0000000  )
        45           C   tau(  45) = (  0.8000000  0.2000000  0.0000000  )
        46           C   tau(  46) = (  0.8666667  0.3333333  0.0000000  )
        47           C   tau(  47) = (  0.8000000  0.4000000  0.0000000  )
        48           C   tau(  48) = (  0.8666667  0.5333333  0.0000000  )
        49           C   tau(  49) = (  0.8000000  0.6000000  0.0000000  )
        50           C   tau(  50) = (  0.8666667  0.7333333  0.0000000  )
        51           C   tau(  51) = (  0.8000000  0.8000000  0.0000000  )
        52           C   tau(  52) = (  0.8666667  0.9333333  0.0000000  )

     number of k points=     4  Marzari-Vanderbilt smearing, width (Ry)=  0.0010
                       cart. coord. in units 2pi/alat
        k(    1) = (   0.0000000   0.0000000   0.0000000), wk =   0.5000000
        k(    2) = (   0.0000000  -0.5773503   0.0000000), wk =   0.5000000
        k(    3) = (   0.5000000  -0.2886751   0.0000000), wk =   0.5000000
        k(    4) = (  -0.5000000  -0.2886751   0.0000000), wk =   0.5000000

                       cryst. coord.
        k(    1) = (   0.0000000   0.0000000   0.0000000), wk =   0.5000000
        k(    2) = (   0.0000000  -0.5000000   0.0000000), wk =   0.5000000
        k(    3) = (   0.5000000  -0.5000000   0.0000000), wk =   0.5000000
        k(    4) = (  -0.5000000   0.0000000   0.0000000), wk =   0.5000000

     Dense  grid:  2439139 G-vectors     FFT dimensions: ( 180, 180, 200)

     Smooth grid:  1053907 G-vectors     FFT dimensions: ( 125, 125, 160)

     Dynamical RAM for                 wfc:      48.64 MB

     Dynamical RAM for     wfc (w. buffer):     243.21 MB

     Dynamical RAM for           str. fact:      14.89 MB

     Dynamical RAM for           local pot:       0.00 MB

     Dynamical RAM for          nlocal pot:     162.41 MB

     Dynamical RAM for                qrad:       3.76 MB

     Dynamical RAM for          rho,v,vnew:      51.99 MB

     Dynamical RAM for               rhoin:      17.33 MB

     Dynamical RAM for            rho*nmix:     119.10 MB

     Dynamical RAM for           G-vectors:      29.52 MB

     Dynamical RAM for          h,s,v(r/c):      10.72 MB

     Dynamical RAM for          <psi|beta>:       0.75 MB

     Dynamical RAM for                 psi:     194.57 MB

     Dynamical RAM for                hpsi:     194.57 MB

     Dynamical RAM for                spsi:     194.57 MB

     Dynamical RAM for      wfcinit/wfcrot:     163.35 MB

     Dynamical RAM for           addusdens:     692.26 MB

     Dynamical RAM for          addusforce:    1470.16 MB

     Estimated static dynamical RAM per process >     713.99 MB

     Estimated max dynamical RAM per process >       2.13 GB

     Estimated total dynamical RAM >      10.66 GB

     Check: negative core charge=   -0.000001

     Initial potential from superposition of free atoms

     starting charge  201.80551, renormalised to  202.00000

     negative rho (up, down):  1.032E-03 0.000E+00


---------------------------------------------------------------------------------
Carrying out rVV10 run using the following parameters:
Nqs =      20    Nr_points =    1024   r_max =   100.000
b_value =  6.30000    beta =  0.00901
     q_mesh =  0.00010000  0.00030000  0.00058939  0.00100810
               0.00161396  0.00249058  0.00375900  0.00559430
               0.00824984  0.01209221  0.01765183  0.02569619
               0.03733578  0.05417739  0.07854596  0.11380545
               0.16482331  0.23864234  0.34545298  0.50000000

Gradients computed in Reciprocal space

---------------------------------------------------------------------------------


     Starting wfcs are  202 randomized atomic wfcs

     total cpu time spent up to now is      150.3 secs

     Self-consistent Calculation

     iteration #  1     ecut=    70.00 Ry     beta= 0.30
     Davidson diagonalization with overlap
     ethr =  1.00E-02,  avg # of iterations =  2.0

     negative rho (up, down):  1.028E-03 0.000E+00

     total cpu time spent up to now is      431.8 secs

     total energy              =    -626.31090337 Ry
     Harris-Foulkes estimate   =    -628.26418199 Ry
     estimated scf accuracy    <       5.86340899 Ry

     iteration #  2     ecut=    70.00 Ry     beta= 0.30
     Davidson diagonalization with overlap
     ethr =  2.90E-03,  avg # of iterations =  2.0

     negative rho (up, down):  1.206E-03 0.000E+00

     total cpu time spent up to now is      622.4 secs

     total energy              =    -625.35826313 Ry
     Harris-Foulkes estimate   =    -626.49477487 Ry
     estimated scf accuracy    <       2.00941071 Ry

     iteration #  3     ecut=    70.00 Ry     beta= 0.30
     Davidson diagonalization with overlap
     ethr =  9.95E-04,  avg # of iterations = 13.2

     negative rho (up, down):  1.253E-03 0.000E+00

     total cpu time spent up to now is      890.2 secs

     total energy              =    -625.65897995 Ry
     Harris-Foulkes estimate   =    -625.66825215 Ry
     estimated scf accuracy    <       0.06011868 Ry

     iteration #  4     ecut=    70.00 Ry     beta= 0.30
     Davidson diagonalization with overlap
     ethr =  2.98E-05,  avg # of iterations = 13.5

     negative rho (up, down):  1.375E-03 0.000E+00

     total cpu time spent up to now is     1137.9 secs

     total energy              =    -625.66027755 Ry
     Harris-Foulkes estimate   =    -625.66405841 Ry
     estimated scf accuracy    <       0.02349655 Ry

     iteration #  5     ecut=    70.00 Ry     beta= 0.30
     Davidson diagonalization with overlap
     ethr =  1.16E-05,  avg # of iterations = 10.2

     negative rho (up, down):  1.565E-03 0.000E+00

     total cpu time spent up to now is     1375.0 secs

     total energy              =    -625.66186318 Ry
     Harris-Foulkes estimate   =    -625.66242297 Ry
     estimated scf accuracy    <       0.00225804 Ry

     iteration #  6     ecut=    70.00 Ry     beta= 0.30
     Davidson diagonalization with overlap
     ethr =  1.12E-06,  avg # of iterations =  6.0

     negative rho (up, down):  1.649E-03 0.000E+00

     total cpu time spent up to now is     1647.4 secs

     total energy              =    -625.66209182 Ry
     Harris-Foulkes estimate   =    -625.66233909 Ry
     estimated scf accuracy    <       0.00049357 Ry

     iteration #  7     ecut=    70.00 Ry     beta= 0.30
     Davidson diagonalization with overlap
     ethr =  2.44E-07,  avg # of iterations =  3.0

     negative rho (up, down):  1.815E-03 0.000E+00

     total cpu time spent up to now is     1866.1 secs

     total energy              =    -625.66213643 Ry
     Harris-Foulkes estimate   =    -625.66216583 Ry
     estimated scf accuracy    <       0.00003715 Ry

     iteration #  8     ecut=    70.00 Ry     beta= 0.30
     Davidson diagonalization with overlap
     ethr =  1.84E-08,  avg # of iterations =  9.5

     negative rho (up, down):  1.861E-03 0.000E+00

     total cpu time spent up to now is     2096.3 secs

     total energy              =    -625.66213711 Ry
     Harris-Foulkes estimate   =    -625.66214148 Ry
     estimated scf accuracy    <       0.00000219 Ry

     iteration #  9     ecut=    70.00 Ry     beta= 0.30
     Davidson diagonalization with overlap
     ethr =  1.08E-09,  avg # of iterations =  2.2

     negative rho (up, down):  1.883E-03 0.000E+00

     total cpu time spent up to now is     2307.9 secs

     End of self-consistent calculation

          k = 0.0000 0.0000 0.0000 (131685 PWs)   bands (ev):

   -21.1853 -20.2496 -20.2495 -20.2493 -20.2491 -20.2479 -20.2461 -18.4139
   -18.4139 -18.4134 -18.4133 -18.4125 -18.4119 -17.5211 -17.5211 -17.5207
   -17.5207 -17.5199 -17.5195 -15.3768 -15.3765 -15.3760 -15.3758 -15.3753
   -15.3746 -14.3685 -14.3683 -14.3680 -14.3676 -14.3674 -14.3671 -13.0275
   -13.0274 -13.0272 -13.0268 -13.0268 -13.0266 -10.6670 -10.6669 -10.6665
   -10.6665 -10.6661 -10.6659 -10.5448 -10.5447 -10.5444 -10.5442 -10.5436
   -10.5434  -9.3260  -9.1720  -9.1718  -9.1716  -9.1715  -9.1710  -9.1708
    -8.3167  -8.2027  -8.2013  -8.2010  -8.2006  -8.1995  -7.9249  -7.9248
    -7.9243  -7.9238  -7.9232  -7.9231  -7.8726  -7.8723  -7.8720  -7.8717
    -7.8715  -7.8712  -7.8214  -6.2778  -6.2778  -6.2775  -6.2771  -6.2766
    -6.2763  -6.0711  -6.0699  -6.0696  -6.0692  -6.0687  -6.0553  -5.1727
    -5.1719  -5.1716  -5.1712  -5.1707  -5.1641  -4.8057  -4.8057  -3.1866
    -3.1862  -3.1860  -3.1858  -3.1856  -3.1831  -0.3927  -0.3915  -0.3912
    -0.3905  -0.3902  -0.3901   1.3518   1.4598   1.4631   1.4650   1.4653
     1.4656   1.4659   2.2374   2.2537   2.4839   2.5900   2.5921   2.5979
     2.6468

     occupation numbers 
     1.0000   1.0000   1.0000   1.0000   1.0000   1.0000   1.0000   1.0000
     1.0000   1.0000   1.0000   1.0000   1.0000   1.0000   1.0000   1.0000
     1.0000   1.0000   1.0000   1.0000   1.0000   1.0000   1.0000   1.0000
     1.0000   1.0000   1.0000   1.0000   1.0000   1.0000   1.0000   1.0000
     1.0000   1.0000   1.0000   1.0000   1.0000   1.0000   1.0000   1.0000
     1.0000   1.0000   1.0000   1.0000   1.0000   1.0000   1.0000   1.0000
     1.0000   1.0000   1.0000   1.0000   1.0000   1.0000   1.0000   1.0000
     1.0000   1.0000   1.0000   1.0000   1.0000   1.0000   1.0000   1.0000
     1.0000   1.0000   1.0000   1.0000   1.0000   1.0000   1.0000   1.0000
     1.0000   1.0000   1.0000   1.0000   1.0000   1.0000   1.0000   1.0000
     1.0000   1.0000   1.0000   1.0000   1.0000   1.0000   1.0000   1.0000
     1.0000   1.0000   1.0000   1.0000   1.0000   1.0000   1.0000   1.0000
     1.0000   1.0000   1.0000   1.0000   1.0000   0.0000   0.0000   0.0000
     0.0000   0.0000   0.0000   0.0000   0.0000   0.0000   0.0000   0.0000
     0.0000   0.0000   0.0000   0.0000   0.0000   0.0000   0.0000   0.0000
     0.0000

          k = 0.0000-0.5774 0.0000 (131762 PWs)   bands (ev):

   -20.9504 -20.9499 -20.4825 -20.4811 -19.5543 -19.5542 -19.5532 -19.5525
   -19.0938 -19.0936 -18.1875 -18.1875 -18.1872 -18.1868 -16.8708 -16.8707
   -16.8695 -16.8692 -16.4649 -16.4648 -16.4640 -16.4640 -15.9802 -15.2533
   -15.2532 -14.9130 -14.0487 -14.0486 -14.0479 -14.0478 -13.5771 -13.5769
   -12.6436 -12.6436 -12.6425 -12.6421 -11.8465 -11.8464 -11.6872 -11.6872
   -11.6870 -11.6869 -10.4678 -10.4678 -10.2393 -10.2393 -10.2391 -10.2380
    -9.1960  -9.1959  -9.1959  -9.1956  -9.0540  -9.0360  -8.8242  -8.8241
    -8.8228  -8.8227  -8.5037  -8.4780  -8.3490  -8.3488  -8.3483  -8.3481
    -8.1560  -7.9443  -7.4366  -7.4363  -7.4358  -7.4356  -7.3848  -7.3838
    -7.3826  -7.3422  -7.2590  -7.2585  -7.0521  -7.0512  -6.8578  -6.8471
    -6.2051  -6.2041  -5.8386  -5.8365  -5.8365  -5.8300  -5.7124  -5.7119
    -5.2725  -5.2719  -4.3967  -4.3958  -4.3951  -4.3916  -4.1924  -4.1920
    -4.1913  -4.1893  -4.0443  -2.7101  -2.7096  -0.6739  -0.6730  -0.0218
     0.3619   0.3645   0.3646   0.3654   1.0124   1.0130   1.0132   1.0140
     1.6151   1.7018   2.0776   2.3328   2.5314   2.6152   2.6251   2.6320
     2.6463

     occupation numbers 
     1.0000   1.0000   1.0000   1.0000   1.0000   1.0000   1.0000   1.0000
     1.0000   1.0000   1.0000   1.0000   1.0000   1.0000   1.0000   1.0000
     1.0000   1.0000   1.0000   1.0000   1.0000   1.0000   1.0000   1.0000
     1.0000   1.0000   1.0000   1.0000   1.0000   1.0000   1.0000   1.0000
     1.0000   1.0000   1.0000   1.0000   1.0000   1.0000   1.0000   1.0000
     1.0000   1.0000   1.0000   1.0000   1.0000   1.0000   1.0000   1.0000
     1.0000   1.0000   1.0000   1.0000   1.0000   1.0000   1.0000   1.0000
     1.0000   1.0000   1.0000   1.0000   1.0000   1.0000   1.0000   1.0000
     1.0000   1.0000   1.0000   1.0000   1.0000   1.0000   1.0000   1.0000
     1.0000   1.0000   1.0000   1.0000   1.0000   1.0000   1.0000   1.0000
     1.0000   1.0000   1.0000   1.0000   1.0000   1.0000   1.0000   1.0000
     1.0000   1.0000   1.0000   1.0000   1.0000   1.0000   1.0000   1.0000
     1.0000   1.0000   1.0000   1.0000   1.0000   0.0000   0.0000   0.0000
     0.0000   0.0000   0.0000   0.0000   0.0000   0.0000   0.0000   0.0000
     0.0000   0.0000   0.0000   0.0000   0.0000   0.0000   0.0000   0.0000
     0.0000

          k = 0.5000-0.2887 0.0000 (131762 PWs)   bands (ev):

   -20.9511 -20.9493 -20.4820 -20.4816 -19.5541 -19.5541 -19.5534 -19.5526
   -19.0940 -19.0934 -18.1882 -18.1881 -18.1864 -18.1863 -16.8704 -16.8702
   -16.8701 -16.8694 -16.4649 -16.4647 -16.4642 -16.4640 -15.9801 -15.2533
   -15.2532 -14.9130 -14.0488 -14.0486 -14.0478 -14.0476 -13.5770 -13.5769
   -12.6434 -12.6430 -12.6430 -12.6425 -11.8465 -11.8464 -11.6875 -11.6875
   -11.6866 -11.6866 -10.4678 -10.4678 -10.2399 -10.2398 -10.2384 -10.2378
    -9.1961  -9.1959  -9.1959  -9.1955  -9.0529  -9.0371  -8.8242  -8.8237
    -8.8232  -8.8228  -8.5051  -8.4770  -8.3493  -8.3491  -8.3480  -8.3479
    -8.1560  -7.9434  -7.4364  -7.4361  -7.4360  -7.4358  -7.3846  -7.3836
    -7.3830  -7.3424  -7.2593  -7.2582  -7.0518  -7.0514  -6.8586  -6.8473
    -6.2048  -6.2044  -5.8375  -5.8375  -5.8366  -5.8292  -5.7129  -5.7114
    -5.2730  -5.2714  -4.3968  -4.3957  -4.3951  -4.3921  -4.1926  -4.1919
    -4.1913  -4.1892  -4.0444  -2.7103  -2.7093  -0.6733  -0.6732  -0.0229
     0.3640   0.3645   0.3646   0.3653   1.0106   1.0129   1.0132   1.0138
     1.5841   1.7061   2.1746   2.3305   2.4660   2.6174   2.6298   2.6322
     2.6479

     occupation numbers 
     1.0000   1.0000   1.0000   1.0000   1.0000   1.0000   1.0000   1.0000
     1.0000   1.0000   1.0000   1.0000   1.0000   1.0000   1.0000   1.0000
     1.0000   1.0000   1.0000   1.0000   1.0000   1.0000   1.0000   1.0000
     1.0000   1.0000   1.0000   1.0000   1.0000   1.0000   1.0000   1.0000
     1.0000   1.0000   1.0000   1.0000   1.0000   1.0000   1.0000   1.0000
     1.0000   1.0000   1.0000   1.0000   1.0000   1.0000   1.0000   1.0000
     1.0000   1.0000   1.0000   1.0000   1.0000   1.0000   1.0000   1.0000
     1.0000   1.0000   1.0000   1.0000   1.0000   1.0000   1.0000   1.0000
     1.0000   1.0000   1.0000   1.0000   1.0000   1.0000   1.0000   1.0000
     1.0000   1.0000   1.0000   1.0000   1.0000   1.0000   1.0000   1.0000
     1.0000   1.0000   1.0000   1.0000   1.0000   1.0000   1.0000   1.0000
     1.0000   1.0000   1.0000   1.0000   1.0000   1.0000   1.0000   1.0000
     1.0000   1.0000   1.0000   1.0000   1.0000   0.0000   0.0000   0.0000
     0.0000   0.0000   0.0000   0.0000   0.0000   0.0000   0.0000   0.0000
     0.0000   0.0000   0.0000   0.0000   0.0000   0.0000   0.0000   0.0000
     0.0000

          k =-0.5000-0.2887 0.0000 (131762 PWs)   bands (ev):

   -20.9509 -20.9494 -20.4822 -20.4814 -19.5541 -19.5539 -19.5536 -19.5525
   -19.0938 -19.0936 -18.1881 -18.1880 -18.1867 -18.1862 -16.8706 -16.8703
   -16.8699 -16.8694 -16.4649 -16.4646 -16.4645 -16.4639 -15.9802 -15.2534
   -15.2531 -14.9130 -14.0488 -14.0483 -14.0482 -14.0476 -13.5770 -13.5769
   -12.6435 -12.6433 -12.6429 -12.6422 -11.8465 -11.8464 -11.6875 -11.6873
   -11.6868 -11.6867 -10.4679 -10.4677 -10.2397 -10.2396 -10.2387 -10.2377
    -9.1960  -9.1959  -9.1958  -9.1957  -9.0530  -9.0370  -8.8242  -8.8237
    -8.8233  -8.8226  -8.5051  -8.4772  -8.3493  -8.3487  -8.3486  -8.3477
    -8.1560  -7.9430  -7.4365  -7.4362  -7.4360  -7.4356  -7.3844  -7.3836
    -7.3833  -7.3423  -7.2591  -7.2585  -7.0519  -7.0513  -6.8582  -6.8485
    -6.2050  -6.2042  -5.8376  -5.8373  -5.8370  -5.8279  -5.7128  -5.7115
    -5.2729  -5.2716  -4.3962  -4.3957  -4.3953  -4.3937  -4.1922  -4.1916
    -4.1916  -4.1882  -4.0454  -2.7101  -2.7089  -0.6738  -0.6734  -0.0209
     0.3612   0.3641   0.3645   0.3653   1.0129   1.0130   1.0136   1.0136
     1.5842   1.7060   2.1735   2.3306   2.4652   2.6277   2.6294   2.6370
     2.9335

     occupation numbers 
     1.0000   1.0000   1.0000   1.0000   1.0000   1.0000   1.0000   1.0000
     1.0000   1.0000   1.0000   1.0000   1.0000   1.0000   1.0000   1.0000
     1.0000   1.0000   1.0000   1.0000   1.0000   1.0000   1.0000   1.0000
     1.0000   1.0000   1.0000   1.0000   1.0000   1.0000   1.0000   1.0000
     1.0000   1.0000   1.0000   1.0000   1.0000   1.0000   1.0000   1.0000
     1.0000   1.0000   1.0000   1.0000   1.0000   1.0000   1.0000   1.0000
     1.0000   1.0000   1.0000   1.0000   1.0000   1.0000   1.0000   1.0000
     1.0000   1.0000   1.0000   1.0000   1.0000   1.0000   1.0000   1.0000
     1.0000   1.0000   1.0000   1.0000   1.0000   1.0000   1.0000   1.0000
     1.0000   1.0000   1.0000   1.0000   1.0000   1.0000   1.0000   1.0000
     1.0000   1.0000   1.0000   1.0000   1.0000   1.0000   1.0000   1.0000
     1.0000   1.0000   1.0000   1.0000   1.0000   1.0000   1.0000   1.0000
     1.0000   1.0000   1.0000   1.0000   1.0000   0.0000   0.0000   0.0000
     0.0000   0.0000   0.0000   0.0000   0.0000   0.0000   0.0000   0.0000
     0.0000   0.0000   0.0000   0.0000   0.0000   0.0000   0.0000   0.0000
     0.0000

     the Fermi energy is    -1.5718 ev

!    total energy              =    -625.66213773 Ry
     Harris-Foulkes estimate   =    -625.66213746 Ry
     estimated scf accuracy    <       0.00000035 Ry

     The total energy is the sum of the following terms:

     one-electron contribution =   -3934.68294604 Ry
     hartree contribution      =    2004.28262062 Ry
     xc contribution           =    -235.30010520 Ry
     ewald contribution        =    1540.03829288 Ry
     smearing contrib. (-TS)   =       0.00000000 Ry

     convergence has been achieved in   9 iterations

     negative rho (up, down):  1.883E-03 0.000E+00

     Forces acting on atoms (cartesian axes, Ry/au):

     atom    1 type  1   force =     0.00570031   -0.00004581   -0.00006567
     atom    2 type  1   force =    -0.00570048    0.00004587   -0.00006562
     atom    3 type  2   force =    -0.00001843   -0.00000415    0.00000993
     atom    4 type  2   force =     0.00001802    0.00000360    0.00001005
     atom    5 type  2   force =    -0.00000565    0.00000277    0.00001071
     atom    6 type  2   force =    -0.00001913   -0.00000777    0.00000836
     atom    7 type  2   force =     0.00000643   -0.00000589    0.00000970
     atom    8 type  2   force =    -0.00000594   -0.00000557    0.00001094
     atom    9 type  2   force =     0.00000559    0.00000574    0.00001099
     atom   10 type  2   force =    -0.00000671    0.00000593    0.00000967
     atom   11 type  2   force =     0.00001866    0.00000760    0.00000852
     atom   12 type  2   force =     0.00000511   -0.00000358    0.00001066
     atom   13 type  2   force =     0.00000399    0.00000787    0.00000838
     atom   14 type  2   force =     0.00001222    0.00001552    0.00000122
     atom   15 type  2   force =    -0.00001063    0.00000813    0.00002020
     atom   16 type  2   force =     0.00006810   -0.00000214    0.00008148
     atom   17 type  2   force =     0.00000594   -0.00001906    0.00003192
     atom   18 type  2   force =    -0.00007894   -0.00004405    0.00010753
     atom   19 type  2   force =    -0.00001896   -0.00001470    0.00001488
     atom   20 type  2   force =    -0.00000475    0.00001731   -0.00000516
     atom   21 type  2   force =     0.00000470    0.00000684    0.00001227
     atom   22 type  2   force =    -0.00000339    0.00000410    0.00001017
     atom   23 type  2   force =     0.00000524   -0.00000032    0.00001199
     atom   24 type  2   force =    -0.00001586    0.00000918    0.00000790
     atom   25 type  2   force =     0.00000467    0.00003369    0.00001046
     atom   26 type  2   force =    -0.00006319    0.00002315    0.00022539
     atom   27 type  2   force =     0.00000414    0.00047592    0.00007042
     atom   28 type  2   force =     0.00034754    0.00009099   -0.00104418
     atom   29 type  2   force =     0.00049538   -0.00028062    0.00017881
     atom   30 type  2   force =     0.00004350    0.00010888    0.00025709
     atom   31 type  2   force =     0.00001858    0.00001097    0.00000688
     atom   32 type  2   force =     0.00000304    0.00000877    0.00000818
     atom   33 type  2   force =     0.00001582   -0.00000844    0.00000769
     atom   34 type  2   force =    -0.00000556   -0.00000019    0.00001217
     atom   35 type  2   force =    -0.00000300   -0.00000881    0.00000824
     atom   36 type  2   force =    -0.00001850   -0.00001093    0.00000693
     atom   37 type  2   force =    -0.00004317   -0.00010833    0.00025700
     atom   38 type  2   force =    -0.00049515    0.00028064    0.00017869
     atom   39 type  2   force =    -0.00034721   -0.00009077   -0.00104411
     atom   40 type  2   force =    -0.00000376   -0.00047618    0.00007016
     atom   41 type  2   force =     0.00006294   -0.00002300    0.00022535
     atom   42 type  2   force =    -0.00000481   -0.00003403    0.00001047
     atom   43 type  2   force =    -0.00001174   -0.00001535    0.00000131
     atom   44 type  2   force =    -0.00000408   -0.00000792    0.00000834
     atom   45 type  2   force =     0.00000341   -0.00000401    0.00001026
     atom   46 type  2   force =    -0.00000489   -0.00000651    0.00001231
     atom   47 type  2   force =     0.00000489   -0.00001702   -0.00000499
     atom   48 type  2   force =     0.00001873    0.00001496    0.00001508
     atom   49 type  2   force =     0.00007926    0.00004418    0.00010773
     atom   50 type  2   force =    -0.00000552    0.00001923    0.00003183
     atom   51 type  2   force =    -0.00006792    0.00000210    0.00008124
     atom   52 type  2   force =     0.00001118   -0.00000877    0.00002023
     The non-local contrib.  to forces
     atom    1 type  1   force =     0.13177498    0.00000174    0.00001631
     atom    2 type  1   force =    -0.13177499   -0.00000173    0.00001631
     atom    3 type  2   force =     0.00003997    0.00000974    0.00000182
     atom    4 type  2   force =    -0.00004036   -0.00000945    0.00000125
     atom    5 type  2   force =    -0.00001026    0.00005943    0.00001088
     atom    6 type  2   force =    -0.00003887    0.00004492    0.00004228
     atom    7 type  2   force =    -0.00000438    0.00004175    0.00004987
     atom    8 type  2   force =     0.00001366    0.00003449    0.00006415
     atom    9 type  2   force =    -0.00001098   -0.00003409    0.00006411
     atom   10 type  2   force =     0.00000586   -0.00004037    0.00004981
     atom   11 type  2   force =     0.00003982   -0.00004518    0.00004279
     atom   12 type  2   force =     0.00000959   -0.00005978    0.00001088
     atom   13 type  2   force =     0.00000326   -0.00006737   -0.00000257
     atom   14 type  2   force =    -0.00001673   -0.00006358   -0.00006529
     atom   15 type  2   force =    -0.00006472   -0.00006021   -0.00002315
     atom   16 type  2   force =    -0.00032642   -0.00012108    0.00011189
     atom   17 type  2   force =    -0.00011583    0.00011173    0.00016078
     atom   18 type  2   force =    -0.00020635   -0.00001797    0.00043472
     atom   19 type  2   force =    -0.00000090   -0.00000812    0.00012659
     atom   20 type  2   force =    -0.00000111   -0.00005962    0.00005952
     atom   21 type  2   force =     0.00002231   -0.00006459    0.00003496
     atom   22 type  2   force =     0.00000461   -0.00005987    0.00001090
     atom   23 type  2   force =     0.00000069   -0.00004049    0.00000643
     atom   24 type  2   force =     0.00006032   -0.00003987   -0.00002536
     atom   25 type  2   force =     0.00004256   -0.00012147   -0.00007892
     atom   26 type  2   force =     0.00029918   -0.00018958    0.00006955
     atom   27 type  2   force =    -0.00019207   -0.00058589   -0.00037543
     atom   28 type  2   force =    -0.00091530   -0.00022933   -0.00272303
     atom   29 type  2   force =    -0.00068279    0.00019406    0.00040866
     atom   30 type  2   force =    -0.00025764    0.00008545    0.00043146
     atom   31 type  2   force =    -0.00008581   -0.00004545    0.00005662
     atom   32 type  2   force =    -0.00002973   -0.00005653   -0.00001122
     atom   33 type  2   force =    -0.00006156    0.00003864   -0.00002563
     atom   34 type  2   force =    -0.00000047    0.00003791    0.00000621
     atom   35 type  2   force =     0.00003001    0.00005443   -0.00001116
     atom   36 type  2   force =     0.00008527    0.00004451    0.00005664
     atom   37 type  2   force =     0.00025693   -0.00008601    0.00043098
     atom   38 type  2   force =     0.00068224   -0.00019298    0.00040890
     atom   39 type  2   force =     0.00091320    0.00023020   -0.00272247
     atom   40 type  2   force =     0.00019057    0.00058636   -0.00037649
     atom   41 type  2   force =    -0.00030060    0.00018892    0.00007023
     atom   42 type  2   force =    -0.00004338    0.00012035   -0.00007944
     atom   43 type  2   force =     0.00001669    0.00006380   -0.00006535
     atom   44 type  2   force =    -0.00000242    0.00006659   -0.00000249
     atom   45 type  2   force =    -0.00000434    0.00005937    0.00001140
     atom   46 type  2   force =    -0.00002023    0.00006521    0.00003514
     atom   47 type  2   force =     0.00000209    0.00005943    0.00005991
     atom   48 type  2   force =     0.00000129    0.00000896    0.00012701
     atom   49 type  2   force =     0.00020615    0.00001850    0.00043408
     atom   50 type  2   force =     0.00011582   -0.00011058    0.00016137
     atom   51 type  2   force =     0.00032528    0.00012112    0.00011217
     atom   52 type  2   force =     0.00006420    0.00005967   -0.00002310
     The ionic contribution  to forces
     atom    1 type  1   force =    -0.98894309    0.00046017    3.12834808
     atom    2 type  1   force =     0.98894309   -0.00046017    3.12834808
     atom    3 type  2   force =     0.01550455    0.01972450   -0.06795277
     atom    4 type  2   force =    -0.01550455   -0.01972450   -0.06795277
     atom    5 type  2   force =    -0.02196247   -0.01103337   -0.06334693
     atom    6 type  2   force =    -0.04776738   -0.02846900   -0.07563446
     atom    7 type  2   force =    -0.02013446   -0.01452354   -0.06391676
     atom    8 type  2   force =    -0.02496418   -0.00400284   -0.06898861
     atom    9 type  2   force =     0.02496418    0.00400284   -0.06898861
     atom   10 type  2   force =     0.02013446    0.01452354   -0.06391676
     atom   11 type  2   force =     0.04776738    0.02846900   -0.07563446
     atom   12 type  2   force =     0.02196247    0.01103337   -0.06334693
     atom   13 type  2   force =     0.00315048   -0.01980505   -0.05979737
     atom   14 type  2   force =    -0.00673354   -0.06492261   -0.08247325
     atom   15 type  2   force =    -0.03118090   -0.06935845   -0.09380614
     atom   16 type  2   force =    -0.07471866   -0.10314881   -0.15879933
     atom   17 type  2   force =    -0.09531037   -0.05654733   -0.13025317
     atom   18 type  2   force =    -0.12687499   -0.01529588   -0.16166476
     atom   19 type  2   force =    -0.07651092    0.00732926   -0.09573175
     atom   20 type  2   force =    -0.06035859    0.02760120   -0.08401792
     atom   21 type  2   force =    -0.01618868    0.01363645   -0.06037819
     atom   22 type  2   force =    -0.00753171   -0.00365973   -0.05702499
     atom   23 type  2   force =    -0.00981515   -0.00517953   -0.06226016
     atom   24 type  2   force =     0.01557115   -0.04677147   -0.07605937
     atom   25 type  2   force =     0.01331087   -0.09214845   -0.10741211
     atom   26 type  2   force =     0.03356985   -0.14046066   -0.20242355
     atom   27 type  2   force =    -0.04797712   -0.14373005   -0.27589133
     atom   28 type  2   force =    -0.07322815   -0.04425367   -0.40907385
     atom   29 type  2   force =    -0.14697680    0.02937041   -0.28110469
     atom   30 type  2   force =    -0.10259608    0.10169950   -0.20495320
     atom   31 type  2   force =    -0.07288710    0.05930773   -0.10900749
     atom   32 type  2   force =    -0.03231156    0.03775637   -0.07637592
     atom   33 type  2   force =    -0.01557115    0.04677147   -0.07605937
     atom   34 type  2   force =     0.00981515    0.00517953   -0.06226016
     atom   35 type  2   force =     0.03231156   -0.03775637   -0.07637592
     atom   36 type  2   force =     0.07288710   -0.05930773   -0.10900749
     atom   37 type  2   force =     0.10259608   -0.10169950   -0.20495320
     atom   38 type  2   force =     0.14697680   -0.02937041   -0.28110469
     atom   39 type  2   force =     0.07322815    0.04425366   -0.40907385
     atom   40 type  2   force =     0.04797712    0.14373005   -0.27589133
     atom   41 type  2   force =    -0.03356985    0.14046066   -0.20242355
     atom   42 type  2   force =    -0.01331087    0.09214845   -0.10741211
     atom   43 type  2   force =     0.00673354    0.06492261   -0.08247325
     atom   44 type  2   force =    -0.00315048    0.01980505   -0.05979737
     atom   45 type  2   force =     0.00753171    0.00365973   -0.05702499
     atom   46 type  2   force =     0.01618868   -0.01363645   -0.06037819
     atom   47 type  2   force =     0.06035859   -0.02760120   -0.08401792
     atom   48 type  2   force =     0.07651092   -0.00732926   -0.09573175
     atom   49 type  2   force =     0.12687499    0.01529588   -0.16166476
     atom   50 type  2   force =     0.09531037    0.05654733   -0.13025317
     atom   51 type  2   force =     0.07471866    0.10314881   -0.15879933
     atom   52 type  2   force =     0.03118090    0.06935845   -0.09380614
     The local contribution  to forces
     atom    1 type  1   force =     0.86286095   -0.00050979   -3.12839475
     atom    2 type  1   force =    -0.86286195    0.00051016   -3.12839457
     atom    3 type  2   force =    -0.01557283   -0.01972732    0.06797018
     atom    4 type  2   force =     0.01557139    0.01972941    0.06797136
     atom    5 type  2   force =     0.02197944    0.01097272    0.06336616
     atom    6 type  2   force =     0.04777916    0.02840127    0.07559226
     atom    7 type  2   force =     0.02015783    0.01447839    0.06389574
     atom    8 type  2   force =     0.02495106    0.00397529    0.06894647
     atom    9 type  2   force =    -0.02493916   -0.00397083    0.06894673
     atom   10 type  2   force =    -0.02014821   -0.01447569    0.06389632
     atom   11 type  2   force =    -0.04777517   -0.02839660    0.07559201
     atom   12 type  2   force =    -0.02197823   -0.01097092    0.06336599
     atom   13 type  2   force =    -0.00315829    0.01988241    0.05983195
     atom   14 type  2   force =     0.00675757    0.06499102    0.08251671
     atom   15 type  2   force =     0.03120182    0.06939864    0.09380468
     atom   16 type  2   force =     0.07504321    0.10314815    0.15862880
     atom   17 type  2   force =     0.09535867    0.05636946    0.13002831
     atom   18 type  2   force =     0.12687717    0.01527352    0.16120467
     atom   19 type  2   force =     0.07646323   -0.00734447    0.09557890
     atom   20 type  2   force =     0.06035355   -0.02751626    0.08393352
     atom   21 type  2   force =     0.01617395   -0.01356589    0.06037943
     atom   22 type  2   force =     0.00752524    0.00372770    0.05705562
     atom   23 type  2   force =     0.00982008    0.00521631    0.06228737
     atom   24 type  2   force =    -0.01566711    0.04680911    0.07608531
     atom   25 type  2   force =    -0.01334457    0.09223883    0.10742748
     atom   26 type  2   force =    -0.03390602    0.14048183    0.20239024
     atom   27 type  2   force =     0.04808173    0.14458877    0.27606676
     atom   28 type  2   force =     0.07435536    0.04450608    0.41035671
     atom   29 type  2   force =     0.14793655   -0.02981388    0.28062024
     atom   30 type  2   force =     0.10274852   -0.10155696    0.20459750
     atom   31 type  2   force =     0.07294705   -0.05921448    0.10888773
     atom   32 type  2   force =     0.03233321   -0.03770532    0.07638883
     atom   33 type  2   force =     0.01566594   -0.04681739    0.07608590
     atom   34 type  2   force =    -0.00981951   -0.00522585    0.06228743
     atom   35 type  2   force =    -0.03233242    0.03769624    0.07638827
     atom   36 type  2   force =    -0.07294688    0.05921041    0.10888758
     atom   37 type  2   force =    -0.10275464    0.10155893    0.20459789
     atom   38 type  2   force =    -0.14794497    0.02981651    0.28061970
     atom   39 type  2   force =    -0.07436551   -0.04450199    0.41035643
     atom   40 type  2   force =    -0.04809125   -0.14458509    0.27606776
     atom   41 type  2   force =     0.03389685   -0.14048257    0.20238971
     atom   42 type  2   force =     0.01333866   -0.09224411    0.10742872
     atom   43 type  2   force =    -0.00675954   -0.06499132    0.08251670
     atom   44 type  2   force =     0.00316148   -0.01988232    0.05983142
     atom   45 type  2   force =    -0.00751889   -0.00373238    0.05705469
     atom   46 type  2   force =    -0.01616500    0.01356429    0.06037902
     atom   47 type  2   force =    -0.06034644    0.02751552    0.08393316
     atom   48 type  2   force =    -0.07645679    0.00734795    0.09557892
     atom   49 type  2   force =    -0.12687706   -0.01526895    0.16120607
     atom   50 type  2   force =    -0.09535864   -0.05636250    0.13002691
     atom   51 type  2   force =    -0.07504835   -0.10314279    0.15862742
     atom   52 type  2   force =    -0.03120253   -0.06939666    0.09380408
     The core correction contribution to forces
     atom    1 type  1   force =     0.00000000    0.00000000    0.00000000
     atom    2 type  1   force =     0.00000000    0.00000000    0.00000000
     atom    3 type  2   force =    -0.00000158   -0.00000104   -0.00000018
     atom    4 type  2   force =     0.00000159    0.00000103   -0.00000015
     atom    5 type  2   force =     0.00000035   -0.00000057   -0.00000157
     atom    6 type  2   force =     0.00000308    0.00000053    0.00000060
     atom    7 type  2   force =     0.00000080   -0.00000085   -0.00000209
     atom    8 type  2   force =     0.00000066   -0.00000032   -0.00000138
     atom    9 type  2   force =    -0.00000070    0.00000033   -0.00000138
     atom   10 type  2   force =    -0.00000081    0.00000082   -0.00000209
     atom   11 type  2   force =    -0.00000310   -0.00000052    0.00000057
     atom   12 type  2   force =    -0.00000033    0.00000060   -0.00000157
     atom   13 type  2   force =    -0.00000028    0.00000188   -0.00000067
     atom   14 type  2   force =     0.00000063    0.00000166    0.00000151
     atom   15 type  2   force =     0.00000148    0.00000358    0.00000263
     atom   16 type  2   force =     0.00000810    0.00000338   -0.00000114
     atom   17 type  2   force =     0.00000337   -0.00000126    0.00000007
     atom   18 type  2   force =     0.00000530    0.00000143   -0.00000748
     atom   19 type  2   force =     0.00000228   -0.00000101   -0.00000021
     atom   20 type  2   force =     0.00000040    0.00000117   -0.00000125
     atom   21 type  2   force =     0.00000005    0.00000048   -0.00000090
     atom   22 type  2   force =    -0.00000079    0.00000071   -0.00000331
     atom   23 type  2   force =    -0.00000028    0.00000081   -0.00000096
     atom   24 type  2   force =    -0.00000184    0.00000184    0.00000047
     atom   25 type  2   force =    -0.00000048    0.00000547    0.00000565
     atom   26 type  2   force =    -0.00000593    0.00000498   -0.00000032
     atom   27 type  2   force =     0.00000295    0.00001215    0.00001315
     atom   28 type  2   force =     0.00001794    0.00000513    0.00005920
     atom   29 type  2   force =     0.00001367   -0.00000505   -0.00000117
     atom   30 type  2   force =     0.00000571   -0.00000257   -0.00000751
     atom   31 type  2   force =     0.00000443   -0.00000036    0.00000304
     atom   32 type  2   force =     0.00000072    0.00000018    0.00000050
     atom   33 type  2   force =     0.00000188   -0.00000182    0.00000048
     atom   34 type  2   force =     0.00000026   -0.00000077   -0.00000095
     atom   35 type  2   force =    -0.00000073   -0.00000014    0.00000049
     atom   36 type  2   force =    -0.00000442    0.00000038    0.00000304
     atom   37 type  2   force =    -0.00000571    0.00000259   -0.00000748
     atom   38 type  2   force =    -0.00001369    0.00000502   -0.00000119
     atom   39 type  2   force =    -0.00001791   -0.00000513    0.00005918
     atom   40 type  2   force =    -0.00000294   -0.00001215    0.00001317
     atom   41 type  2   force =     0.00000595   -0.00000497   -0.00000034
     atom   42 type  2   force =     0.00000050   -0.00000546    0.00000567
     atom   43 type  2   force =    -0.00000063   -0.00000168    0.00000150
     atom   44 type  2   force =     0.00000028   -0.00000186   -0.00000066
     atom   45 type  2   force =     0.00000080   -0.00000072   -0.00000331
     atom   46 type  2   force =    -0.00000007   -0.00000050   -0.00000091
     atom   47 type  2   force =    -0.00000040   -0.00000116   -0.00000127
     atom   48 type  2   force =    -0.00000228    0.00000100   -0.00000022
     atom   49 type  2   force =    -0.00000529   -0.00000144   -0.00000746
     atom   50 type  2   force =    -0.00000338    0.00000124    0.00000004
     atom   51 type  2   force =    -0.00000810   -0.00000337   -0.00000116
     atom   52 type  2   force =    -0.00000147   -0.00000356    0.00000262
     The Hubbard contrib.    to forces
     atom    1 type  1   force =     0.00000000    0.00000000    0.00000000
     atom    2 type  1   force =     0.00000000    0.00000000    0.00000000
     atom    3 type  2   force =     0.00000000    0.00000000    0.00000000
     atom    4 type  2   force =     0.00000000    0.00000000    0.00000000
     atom    5 type  2   force =     0.00000000    0.00000000    0.00000000
     atom    6 type  2   force =     0.00000000    0.00000000    0.00000000
     atom    7 type  2   force =     0.00000000    0.00000000    0.00000000
     atom    8 type  2   force =     0.00000000    0.00000000    0.00000000
     atom    9 type  2   force =     0.00000000    0.00000000    0.00000000
     atom   10 type  2   force =     0.00000000    0.00000000    0.00000000
     atom   11 type  2   force =     0.00000000    0.00000000    0.00000000
     atom   12 type  2   force =     0.00000000    0.00000000    0.00000000
     atom   13 type  2   force =     0.00000000    0.00000000    0.00000000
     atom   14 type  2   force =     0.00000000    0.00000000    0.00000000
     atom   15 type  2   force =     0.00000000    0.00000000    0.00000000
     atom   16 type  2   force =     0.00000000    0.00000000    0.00000000
     atom   17 type  2   force =     0.00000000    0.00000000    0.00000000
     atom   18 type  2   force =     0.00000000    0.00000000    0.00000000
     atom   19 type  2   force =     0.00000000    0.00000000    0.00000000
     atom   20 type  2   force =     0.00000000    0.00000000    0.00000000
     atom   21 type  2   force =     0.00000000    0.00000000    0.00000000
     atom   22 type  2   force =     0.00000000    0.00000000    0.00000000
     atom   23 type  2   force =     0.00000000    0.00000000    0.00000000
     atom   24 type  2   force =     0.00000000    0.00000000    0.00000000
     atom   25 type  2   force =     0.00000000    0.00000000    0.00000000
     atom   26 type  2   force =     0.00000000    0.00000000    0.00000000
     atom   27 type  2   force =     0.00000000    0.00000000    0.00000000
     atom   28 type  2   force =     0.00000000    0.00000000    0.00000000
     atom   29 type  2   force =     0.00000000    0.00000000    0.00000000
     atom   30 type  2   force =     0.00000000    0.00000000    0.00000000
     atom   31 type  2   force =     0.00000000    0.00000000    0.00000000
     atom   32 type  2   force =     0.00000000    0.00000000    0.00000000
     atom   33 type  2   force =     0.00000000    0.00000000    0.00000000
     atom   34 type  2   force =     0.00000000    0.00000000    0.00000000
     atom   35 type  2   force =     0.00000000    0.00000000    0.00000000
     atom   36 type  2   force =     0.00000000    0.00000000    0.00000000
     atom   37 type  2   force =     0.00000000    0.00000000    0.00000000
     atom   38 type  2   force =     0.00000000    0.00000000    0.00000000
     atom   39 type  2   force =     0.00000000    0.00000000    0.00000000
     atom   40 type  2   force =     0.00000000    0.00000000    0.00000000
     atom   41 type  2   force =     0.00000000    0.00000000    0.00000000
     atom   42 type  2   force =     0.00000000    0.00000000    0.00000000
     atom   43 type  2   force =     0.00000000    0.00000000    0.00000000
     atom   44 type  2   force =     0.00000000    0.00000000    0.00000000
     atom   45 type  2   force =     0.00000000    0.00000000    0.00000000
     atom   46 type  2   force =     0.00000000    0.00000000    0.00000000
     atom   47 type  2   force =     0.00000000    0.00000000    0.00000000
     atom   48 type  2   force =     0.00000000    0.00000000    0.00000000
     atom   49 type  2   force =     0.00000000    0.00000000    0.00000000
     atom   50 type  2   force =     0.00000000    0.00000000    0.00000000
     atom   51 type  2   force =     0.00000000    0.00000000    0.00000000
     atom   52 type  2   force =     0.00000000    0.00000000    0.00000000
     The SCF correction term to forces
     atom    1 type  1   force =     0.00000745    0.00000209   -0.00003420
     atom    2 type  1   force =    -0.00000665   -0.00000237   -0.00003433
     atom    3 type  2   force =     0.00001143   -0.00001002   -0.00000800
     atom    4 type  2   force =    -0.00001007    0.00000712   -0.00000852
     atom    5 type  2   force =    -0.00001273    0.00000458   -0.00001672
     atom    6 type  2   force =     0.00000485    0.00001453    0.00000879
     atom    7 type  2   force =    -0.00001338   -0.00000163   -0.00001594
     atom    8 type  2   force =    -0.00000716   -0.00001217   -0.00000857
     atom    9 type  2   force =    -0.00000778    0.00000751   -0.00000875
     atom   10 type  2   force =     0.00000197   -0.00000236   -0.00001650
     atom   11 type  2   force =    -0.00001029   -0.00001909    0.00000873
     atom   12 type  2   force =     0.00001157   -0.00000683   -0.00001659
     atom   13 type  2   force =     0.00000879   -0.00000399   -0.00002184
     atom   14 type  2   force =     0.00000426    0.00000904    0.00002265
     atom   15 type  2   force =     0.00003167    0.00002457    0.00004332
     atom   16 type  2   force =     0.00006185    0.00011623    0.00014238
     atom   17 type  2   force =     0.00007008    0.00004836    0.00009705
     atom   18 type  2   force =     0.00011990   -0.00000514    0.00014150
     atom   19 type  2   force =     0.00002733    0.00000965    0.00004247
     atom   20 type  2   force =     0.00000097   -0.00000917    0.00002211
     atom   21 type  2   force =    -0.00000295    0.00000040   -0.00002191
     atom   22 type  2   force =    -0.00000076   -0.00000470   -0.00002692
     atom   23 type  2   force =    -0.00000012    0.00000260   -0.00001957
     atom   24 type  2   force =     0.00002159    0.00000959    0.00000797
     atom   25 type  2   force =    -0.00000373    0.00005932    0.00006947
     atom   26 type  2   force =    -0.00002029    0.00018658    0.00019059
     atom   27 type  2   force =     0.00008863    0.00019096    0.00025839
     atom   28 type  2   force =     0.00011768    0.00006279    0.00033790
     atom   29 type  2   force =     0.00020473   -0.00002615    0.00025688
     atom   30 type  2   force =     0.00014296   -0.00011654    0.00018995
     atom   31 type  2   force =     0.00004000   -0.00003645    0.00006809
     atom   32 type  2   force =     0.00001037    0.00001408    0.00000710
     atom   33 type  2   force =    -0.00001931    0.00000067    0.00000743
     atom   34 type  2   force =    -0.00000101    0.00000899   -0.00001924
     atom   35 type  2   force =    -0.00001144   -0.00000296    0.00000766
     atom   36 type  2   force =    -0.00003958    0.00004152    0.00006827
     atom   37 type  2   force =    -0.00013585    0.00011567    0.00018993
     atom   38 type  2   force =    -0.00019555    0.00002250    0.00025709
     atom   39 type  2   force =    -0.00010516   -0.00006751    0.00033773
     atom   40 type  2   force =    -0.00007728   -0.00019534    0.00025816
     atom   41 type  2   force =     0.00003057   -0.00018502    0.00019042
     atom   42 type  2   force =     0.00001026   -0.00005325    0.00006875
     atom   43 type  2   force =    -0.00000182   -0.00000876    0.00002284
     atom   44 type  2   force =    -0.00001296    0.00000462   -0.00002143
     atom   45 type  2   force =    -0.00000590    0.00000999   -0.00002640
     atom   46 type  2   force =    -0.00000829    0.00000097   -0.00002163
     atom   47 type  2   force =    -0.00000898    0.00001041    0.00002224
     atom   48 type  2   force =    -0.00003444   -0.00001369    0.00004224
     atom   49 type  2   force =    -0.00011956    0.00000020    0.00014091
     atom   50 type  2   force =    -0.00006972   -0.00005625    0.00009779
     atom   51 type  2   force =    -0.00005544   -0.00012166    0.00014326
     atom   52 type  2   force =    -0.00002994   -0.00002666    0.00004389

     Total force =     0.008304     Total SCF correction =     0.001103
     SCF correction compared to forces is large: reduce conv_thr to get better values

     BFGS Geometry Optimization

     number of scf cycles    =   1
     number of bfgs steps    =   0

     energy   new            =    -625.6621377335 Ry

     new trust radius        =       0.0057010468 bohr
     new conv_thr            =       0.0000010000 Ry


ATOMIC_POSITIONS (angstrom)
H        2.708602154   6.049171138   3.113995247
H        3.454641130   6.049219652   3.113995275
C       -0.000009755  -0.000002198   0.000005253
C        0.000009533   1.423341991   0.000005318
C       -1.232651665   2.135011598   0.000005665
C       -1.232658798   3.558346112   0.000004423
C       -2.465293945   4.270017147   0.000005134
C       -2.465300491   5.693357408   0.000005791
C       -3.697943068   6.405033436   0.000005817
C       -3.697949577   7.828373624   0.000005116
C       -4.930584827   8.540044554   0.000004511
C       -4.930591998   9.963378729   0.000005640
C        2.465299461   0.000004167   0.000004436
C        2.465303815   1.423348304   0.000000644
C        1.232643047   2.135014433   0.000010691
C        1.232684712   3.558349088   0.000043117
C        0.000003145   4.270010179   0.000016890
C       -0.000041773   5.693337043   0.000056904
C       -1.232658706   6.405022620   0.000007873
C       -1.232651190   7.828379646  -0.000002728
C       -2.465294861   8.540044151   0.000006493
C       -2.465299144   9.963382792   0.000005384
C        4.930597472  -0.000000168   0.000006343
C        4.930586306   1.423344949   0.000004181
C        3.697948498   2.135027959   0.000005533
C        3.697912585   3.558362473   0.000119271
C        2.465299539   4.270272110   0.000037266
C        2.465481258   5.693408505  -0.000552556
C        1.232910818   6.404881902   0.000094622
C        1.232671693   7.828428103   0.000136047
C        0.000009834   8.540046339   0.000003640
C        0.000001608   9.963385263   0.000004331
C        7.395900421  -0.000004465   0.000004067
C        7.395889109   1.423339987   0.000006441
C        6.163241789   2.135005473   0.000004358
C        6.163233586   3.558344437   0.000003666
C        4.930571857   4.269962939   0.000135999
C        4.930332676   5.693508862   0.000094561
C        3.697762291   6.404982364  -0.000552517
C        3.697944036   7.828118504   0.000037125
C        2.465330656   8.540028359   0.000119251
C        2.465294804   9.963362612   0.000005543
C        9.861183185  -0.000008125   0.000000693
C        9.861187243   1.423335896   0.000004415
C        8.628542529   2.135008010   0.000005431
C        8.628538139   3.558346778   0.000006514
C        7.395894639   4.270011260  -0.000002643
C        7.395901961   5.693368271   0.000007982
C        6.163285316   6.405053779   0.000057006
C        6.163240454   7.828380665   0.000016843
C        4.930558758   8.540041646   0.000042990
C        4.930600617   9.963375978   0.000010705



     Writing output data file distance-3.11403.save/
     NEW-OLD atomic charge density approx. for the potential

     Check: negative core charge=   -0.000001

     negative rho (up, down):  1.908E-03 0.000E+00

     total cpu time spent up to now is     2428.0 secs

     Self-consistent Calculation

     iteration #  1     ecut=    70.00 Ry     beta= 0.30
     Davidson diagonalization with overlap
     ethr =  1.00E-06,  avg # of iterations =  2.0

     Threshold (ethr) on eigenvalues was too large:
     Diagonalizing with lowered threshold

     Davidson diagonalization with overlap
     ethr =  1.05E-08,  avg # of iterations =  1.8

     negative rho (up, down):  1.898E-03 0.000E+00

     total cpu time spent up to now is     2855.9 secs

     total energy              =    -625.66215949 Ry
     Harris-Foulkes estimate   =    -625.66216481 Ry
     estimated scf accuracy    <       0.00002158 Ry

     iteration #  2     ecut=    70.00 Ry     beta= 0.30
     Davidson diagonalization with overlap
     ethr =  1.07E-08,  avg # of iterations =  2.0

     negative rho (up, down):  1.889E-03 0.000E+00

     total cpu time spent up to now is     3048.7 secs

     total energy              =    -625.66215760 Ry
     Harris-Foulkes estimate   =    -625.66216012 Ry
     estimated scf accuracy    <       0.00000744 Ry

     iteration #  3     ecut=    70.00 Ry     beta= 0.30
     Davidson diagonalization with overlap
     ethr =  3.69E-09,  avg # of iterations =  2.0

     negative rho (up, down):  1.884E-03 0.000E+00

     total cpu time spent up to now is     3242.2 secs

     End of self-consistent calculation

          k = 0.0000 0.0000 0.0000 (131685 PWs)   bands (ev):

   -21.1853 -20.2494 -20.2493 -20.2490 -20.2488 -20.2479 -20.2473 -18.4138
   -18.4137 -18.4132 -18.4131 -18.4127 -18.4126 -17.5209 -17.5209 -17.5206
   -17.5205 -17.5203 -17.5202 -15.3765 -15.3763 -15.3760 -15.3757 -15.3757
   -15.3753 -14.3683 -14.3681 -14.3680 -14.3679 -14.3675 -14.3675 -13.0273
   -13.0273 -13.0271 -13.0271 -13.0270 -13.0269 -10.6668 -10.6667 -10.6666
   -10.6665 -10.6664 -10.6663 -10.5449 -10.5447 -10.5443 -10.5441 -10.5439
   -10.5438  -9.3261  -9.1718  -9.1718  -9.1716  -9.1715  -9.1714  -9.1712
    -8.3255  -8.2024  -8.2009  -8.2006  -8.2003  -8.1993  -7.9247  -7.9246
    -7.9242  -7.9242  -7.9236  -7.9236  -7.8728  -7.8727  -7.8722  -7.8720
    -7.8717  -7.8712  -7.8468  -6.2779  -6.2779  -6.2772  -6.2770  -6.2770
    -6.2770  -6.0708  -6.0697  -6.0695  -6.0689  -6.0686  -6.0562  -5.1725
    -5.1716  -5.1713  -5.1709  -5.1706  -5.1647  -4.8060  -4.8057  -3.1867
    -3.1862  -3.1858  -3.1856  -3.1855  -3.1834  -0.3928  -0.3912  -0.3911
    -0.3905  -0.3903  -0.3900   1.3533   1.4598   1.4635   1.4649   1.4656
     1.4658   1.4660   2.2475   2.2564   2.4858   2.5917   2.5937   2.5994
     2.6517

     occupation numbers 
     1.0000   1.0000   1.0000   1.0000   1.0000   1.0000   1.0000   1.0000
     1.0000   1.0000   1.0000   1.0000   1.0000   1.0000   1.0000   1.0000
     1.0000   1.0000   1.0000   1.0000   1.0000   1.0000   1.0000   1.0000
     1.0000   1.0000   1.0000   1.0000   1.0000   1.0000   1.0000   1.0000
     1.0000   1.0000   1.0000   1.0000   1.0000   1.0000   1.0000   1.0000
     1.0000   1.0000   1.0000   1.0000   1.0000   1.0000   1.0000   1.0000
     1.0000   1.0000   1.0000   1.0000   1.0000   1.0000   1.0000   1.0000
     1.0000   1.0000   1.0000   1.0000   1.0000   1.0000   1.0000   1.0000
     1.0000   1.0000   1.0000   1.0000   1.0000   1.0000   1.0000   1.0000
     1.0000   1.0000   1.0000   1.0000   1.0000   1.0000   1.0000   1.0000
     1.0000   1.0000   1.0000   1.0000   1.0000   1.0000   1.0000   1.0000
     1.0000   1.0000   1.0000   1.0000   1.0000   1.0000   1.0000   1.0000
     1.0000   1.0000   1.0000   1.0000   1.0000   0.0000   0.0000   0.0000
     0.0000   0.0000   0.0000   0.0000   0.0000   0.0000   0.0000   0.0000
     0.0000   0.0000   0.0000   0.0000   0.0000   0.0000   0.0000   0.0000
     0.0000

          k = 0.0000-0.5774 0.0000 (131762 PWs)   bands (ev):

   -20.9502 -20.9501 -20.4823 -20.4814 -19.5541 -19.5540 -19.5531 -19.5531
   -19.0938 -19.0937 -18.1875 -18.1873 -18.1872 -18.1871 -16.8706 -16.8704
   -16.8697 -16.8696 -16.4648 -16.4648 -16.4642 -16.4642 -15.9802 -15.2534
   -15.2532 -14.9130 -14.0485 -14.0485 -14.0482 -14.0480 -13.5771 -13.5769
   -12.6434 -12.6434 -12.6427 -12.6427 -11.8466 -11.8465 -11.6873 -11.6872
   -11.6871 -11.6871 -10.4680 -10.4678 -10.2397 -10.2392 -10.2388 -10.2385
    -9.1964  -9.1960  -9.1958  -9.1956  -9.0546  -9.0357  -8.8242  -8.8240
    -8.8231  -8.8230  -8.5054  -8.4777  -8.3489  -8.3489  -8.3486  -8.3484
    -8.1562  -7.9737  -7.4364  -7.4364  -7.4361  -7.4359  -7.3845  -7.3836
    -7.3825  -7.3447  -7.2589  -7.2589  -7.0523  -7.0512  -6.8576  -6.8476
    -6.2050  -6.2045  -5.8386  -5.8362  -5.8362  -5.8304  -5.7125  -5.7122
    -5.2724  -5.2724  -4.3965  -4.3955  -4.3950  -4.3919  -4.1922  -4.1917
    -4.1913  -4.1895  -4.0443  -2.7102  -2.7094  -0.6739  -0.6728  -0.0217
     0.3618   0.3646   0.3649   0.3655   1.0124   1.0130   1.0134   1.0140
     1.6167   1.7031   2.0845   2.3343   2.5340   2.6165   2.6256   2.6320
     2.6476

     occupation numbers 
     1.0000   1.0000   1.0000   1.0000   1.0000   1.0000   1.0000   1.0000
     1.0000   1.0000   1.0000   1.0000   1.0000   1.0000   1.0000   1.0000
     1.0000   1.0000   1.0000   1.0000   1.0000   1.0000   1.0000   1.0000
     1.0000   1.0000   1.0000   1.0000   1.0000   1.0000   1.0000   1.0000
     1.0000   1.0000   1.0000   1.0000   1.0000   1.0000   1.0000   1.0000
     1.0000   1.0000   1.0000   1.0000   1.0000   1.0000   1.0000   1.0000
     1.0000   1.0000   1.0000   1.0000   1.0000   1.0000   1.0000   1.0000
     1.0000   1.0000   1.0000   1.0000   1.0000   1.0000   1.0000   1.0000
     1.0000   1.0000   1.0000   1.0000   1.0000   1.0000   1.0000   1.0000
     1.0000   1.0000   1.0000   1.0000   1.0000   1.0000   1.0000   1.0000
     1.0000   1.0000   1.0000   1.0000   1.0000   1.0000   1.0000   1.0000
     1.0000   1.0000   1.0000   1.0000   1.0000   1.0000   1.0000   1.0000
     1.0000   1.0000   1.0000   1.0000   1.0000   0.0000   0.0000   0.0000
     0.0000   0.0000   0.0000   0.0000   0.0000   0.0000   0.0000   0.0000
     0.0000   0.0000   0.0000   0.0000   0.0000   0.0000   0.0000   0.0000
     0.0000

          k = 0.5000-0.2887 0.0000 (131762 PWs)   bands (ev):

   -20.9508 -20.9496 -20.4819 -20.4817 -19.5540 -19.5537 -19.5534 -19.5532
   -19.0938 -19.0937 -18.1879 -18.1879 -18.1867 -18.1867 -16.8703 -16.8702
   -16.8701 -16.8697 -16.4647 -16.4646 -16.4645 -16.4643 -15.9802 -15.2534
   -15.2533 -14.9131 -14.0486 -14.0484 -14.0481 -14.0480 -13.5770 -13.5769
   -12.6433 -12.6432 -12.6429 -12.6429 -11.8466 -11.8466 -11.6874 -11.6874
   -11.6869 -11.6868 -10.4681 -10.4678 -10.2395 -10.2395 -10.2388 -10.2382
    -9.1963  -9.1960  -9.1959  -9.1956  -9.0536  -9.0367  -8.8240  -8.8237
    -8.8236  -8.8231  -8.5066  -8.4768  -8.3492  -8.3491  -8.3484  -8.3482
    -8.1561  -7.9729  -7.4366  -7.4364  -7.4360  -7.4359  -7.3842  -7.3834
    -7.3828  -7.3449  -7.2588  -7.2588  -7.0519  -7.0514  -6.8583  -6.8478
    -6.2049  -6.2049  -5.8372  -5.8371  -5.8367  -5.8295  -5.7131  -5.7117
    -5.2727  -5.2719  -4.3965  -4.3954  -4.3950  -4.3923  -4.1926  -4.1917
    -4.1910  -4.1894  -4.0443  -2.7104  -2.7092  -0.6733  -0.6731  -0.0229
     0.3639   0.3646   0.3648   0.3656   1.0106   1.0128   1.0134   1.0139
     1.5869   1.7073   2.1782   2.3319   2.4711   2.6186   2.6300   2.6323
     2.6491

     occupation numbers 
     1.0000   1.0000   1.0000   1.0000   1.0000   1.0000   1.0000   1.0000
     1.0000   1.0000   1.0000   1.0000   1.0000   1.0000   1.0000   1.0000
     1.0000   1.0000   1.0000   1.0000   1.0000   1.0000   1.0000   1.0000
     1.0000   1.0000   1.0000   1.0000   1.0000   1.0000   1.0000   1.0000
     1.0000   1.0000   1.0000   1.0000   1.0000   1.0000   1.0000   1.0000
     1.0000   1.0000   1.0000   1.0000   1.0000   1.0000   1.0000   1.0000
     1.0000   1.0000   1.0000   1.0000   1.0000   1.0000   1.0000   1.0000
     1.0000   1.0000   1.0000   1.0000   1.0000   1.0000   1.0000   1.0000
     1.0000   1.0000   1.0000   1.0000   1.0000   1.0000   1.0000   1.0000
     1.0000   1.0000   1.0000   1.0000   1.0000   1.0000   1.0000   1.0000
     1.0000   1.0000   1.0000   1.0000   1.0000   1.0000   1.0000   1.0000
     1.0000   1.0000   1.0000   1.0000   1.0000   1.0000   1.0000   1.0000
     1.0000   1.0000   1.0000   1.0000   1.0000   0.0000   0.0000   0.0000
     0.0000   0.0000   0.0000   0.0000   0.0000   0.0000   0.0000   0.0000
     0.0000   0.0000   0.0000   0.0000   0.0000   0.0000   0.0000   0.0000
     0.0000

          k =-0.5000-0.2887 0.0000 (131762 PWs)   bands (ev):

   -20.9507 -20.9497 -20.4820 -20.4817 -19.5538 -19.5538 -19.5536 -19.5531
   -19.0939 -19.0936 -18.1878 -18.1877 -18.1869 -18.1867 -16.8704 -16.8701
   -16.8700 -16.8697 -16.4648 -16.4646 -16.4645 -16.4641 -15.9802 -15.2534
   -15.2533 -14.9130 -14.0486 -14.0484 -14.0482 -14.0481 -13.5772 -13.5769
   -12.6432 -12.6432 -12.6430 -12.6426 -11.8465 -11.8465 -11.6874 -11.6874
   -11.6870 -11.6869 -10.4680 -10.4677 -10.2396 -10.2395 -10.2392 -10.2382
    -9.1963  -9.1961  -9.1959  -9.1955  -9.0537  -9.0366  -8.8242  -8.8236
    -8.8235  -8.8229  -8.5068  -8.4769  -8.3491  -8.3487  -8.3486  -8.3483
    -8.1562  -7.9724  -7.4364  -7.4363  -7.4362  -7.4360  -7.3841  -7.3833
    -7.3831  -7.3448  -7.2591  -7.2589  -7.0521  -7.0516  -6.8580  -6.8489
    -6.2050  -6.2044  -5.8373  -5.8368  -5.8368  -5.8287  -5.7127  -5.7117
    -5.2729  -5.2721  -4.3963  -4.3955  -4.3951  -4.3937  -4.1920  -4.1914
    -4.1913  -4.1886  -4.0454  -2.7099  -2.7088  -0.6738  -0.6734  -0.0207
     0.3608   0.3641   0.3649   0.3656   1.0132   1.0132   1.0135   1.0136
     1.5869   1.7073   2.1772   2.3321   2.4701   2.6288   2.6299   2.6387
     2.9383

     occupation numbers 
     1.0000   1.0000   1.0000   1.0000   1.0000   1.0000   1.0000   1.0000
     1.0000   1.0000   1.0000   1.0000   1.0000   1.0000   1.0000   1.0000
     1.0000   1.0000   1.0000   1.0000   1.0000   1.0000   1.0000   1.0000
     1.0000   1.0000   1.0000   1.0000   1.0000   1.0000   1.0000   1.0000
     1.0000   1.0000   1.0000   1.0000   1.0000   1.0000   1.0000   1.0000
     1.0000   1.0000   1.0000   1.0000   1.0000   1.0000   1.0000   1.0000
     1.0000   1.0000   1.0000   1.0000   1.0000   1.0000   1.0000   1.0000
     1.0000   1.0000   1.0000   1.0000   1.0000   1.0000   1.0000   1.0000
     1.0000   1.0000   1.0000   1.0000   1.0000   1.0000   1.0000   1.0000
     1.0000   1.0000   1.0000   1.0000   1.0000   1.0000   1.0000   1.0000
     1.0000   1.0000   1.0000   1.0000   1.0000   1.0000   1.0000   1.0000
     1.0000   1.0000   1.0000   1.0000   1.0000   1.0000   1.0000   1.0000
     1.0000   1.0000   1.0000   1.0000   1.0000   0.0000   0.0000   0.0000
     0.0000   0.0000   0.0000   0.0000   0.0000   0.0000   0.0000   0.0000
     0.0000   0.0000   0.0000   0.0000   0.0000   0.0000   0.0000   0.0000
     0.0000

     the Fermi energy is    -1.5678 ev

!    total energy              =    -625.66215838 Ry
     Harris-Foulkes estimate   =    -625.66215821 Ry
     estimated scf accuracy    <       0.00000048 Ry

     The total energy is the sum of the following terms:

     one-electron contribution =   -3934.70289913 Ry
     hartree contribution      =    2004.29543761 Ry
     xc contribution           =    -235.30468267 Ry
     ewald contribution        =    1540.04998580 Ry
     smearing contrib. (-TS)   =       0.00000000 Ry

     convergence has been achieved in   3 iterations

     negative rho (up, down):  1.884E-03 0.000E+00

     Forces acting on atoms (cartesian axes, Ry/au):

     atom    1 type  1   force =    -0.00250497   -0.00004876   -0.00007173
     atom    2 type  1   force =     0.00250546    0.00004875   -0.00007182
     atom    3 type  2   force =     0.00002900   -0.00000650    0.00000310
     atom    4 type  2   force =    -0.00002863    0.00000685    0.00000307
     atom    5 type  2   force =     0.00000124   -0.00001217    0.00000197
     atom    6 type  2   force =     0.00000246   -0.00001723    0.00000002
     atom    7 type  2   force =    -0.00001197    0.00000133    0.00000241
     atom    8 type  2   force =    -0.00001193   -0.00001642    0.00000012
     atom    9 type  2   force =     0.00001244    0.00001676    0.00000021
     atom   10 type  2   force =     0.00001246   -0.00000102    0.00000239
     atom   11 type  2   force =    -0.00000176    0.00001749    0.00000004
     atom   12 type  2   force =    -0.00000078    0.00001346    0.00000200
     atom   13 type  2   force =     0.00000093    0.00001640   -0.00000200
     atom   14 type  2   force =    -0.00000046   -0.00000014   -0.00000390
     atom   15 type  2   force =     0.00006591    0.00001833    0.00003358
     atom   16 type  2   force =     0.00006250    0.00017923    0.00009538
     atom   17 type  2   force =    -0.00001980   -0.00004785    0.00003250
     atom   18 type  2   force =     0.00025495   -0.00000305    0.00012317
     atom   19 type  2   force =     0.00000845    0.00003615    0.00003119
     atom   20 type  2   force =     0.00000859   -0.00000778   -0.00000886
     atom   21 type  2   force =    -0.00000027    0.00000379   -0.00000112
     atom   22 type  2   force =     0.00000700    0.00000659    0.00000362
     atom   23 type  2   force =    -0.00000805    0.00000992   -0.00000177
     atom   24 type  2   force =     0.00001117    0.00000762    0.00000367
     atom   25 type  2   force =    -0.00005361    0.00002516    0.00004199
     atom   26 type  2   force =    -0.00007323    0.00009221    0.00021399
     atom   27 type  2   force =     0.00007775   -0.00011497   -0.00001982
     atom   28 type  2   force =    -0.00010982   -0.00002975   -0.00082033
     atom   29 type  2   force =    -0.00008221    0.00012138    0.00005639
     atom   30 type  2   force =     0.00011301   -0.00019205    0.00024249
     atom   31 type  2   force =     0.00000415   -0.00001378    0.00004229
     atom   32 type  2   force =     0.00001168    0.00002083    0.00000186
     atom   33 type  2   force =    -0.00001128   -0.00000919    0.00000375
     atom   34 type  2   force =     0.00000865   -0.00000953   -0.00000181
     atom   35 type  2   force =    -0.00001190   -0.00002086    0.00000188
     atom   36 type  2   force =    -0.00000420    0.00001407    0.00004230
     atom   37 type  2   force =    -0.00011358    0.00019193    0.00024206
     atom   38 type  2   force =     0.00008314   -0.00012131    0.00005631
     atom   39 type  2   force =     0.00011046    0.00002917   -0.00081964
     atom   40 type  2   force =    -0.00007846    0.00011596   -0.00001967
     atom   41 type  2   force =     0.00007328   -0.00009252    0.00021360
     atom   42 type  2   force =     0.00005378   -0.00002423    0.00004172
     atom   43 type  2   force =    -0.00000020   -0.00000054   -0.00000392
     atom   44 type  2   force =    -0.00000125   -0.00001673   -0.00000199
     atom   45 type  2   force =    -0.00000754   -0.00000687    0.00000368
     atom   46 type  2   force =     0.00000061   -0.00000438   -0.00000110
     atom   47 type  2   force =    -0.00000906    0.00000766   -0.00000891
     atom   48 type  2   force =    -0.00000819   -0.00003616    0.00003136
     atom   49 type  2   force =    -0.00025564    0.00000235    0.00012272
     atom   50 type  2   force =     0.00001927    0.00004778    0.00003265
     atom   51 type  2   force =    -0.00006263   -0.00017962    0.00009551
     atom   52 type  2   force =    -0.00006692   -0.00001776    0.00003343
     The non-local contrib.  to forces
     atom    1 type  1   force =     0.13386354    0.00001046    0.00001555
     atom    2 type  1   force =    -0.13386349   -0.00001046    0.00001554
     atom    3 type  2   force =     0.00005101   -0.00000532   -0.00000195
     atom    4 type  2   force =    -0.00005046    0.00000477   -0.00000190
     atom    5 type  2   force =     0.00000653    0.00003696    0.00001259
     atom    6 type  2   force =    -0.00001457    0.00004749    0.00003826
     atom    7 type  2   force =    -0.00002518    0.00005830    0.00005112
     atom    8 type  2   force =     0.00002511    0.00003498    0.00005593
     atom    9 type  2   force =    -0.00002879   -0.00003630    0.00005575
     atom   10 type  2   force =     0.00002279   -0.00005955    0.00005122
     atom   11 type  2   force =     0.00001346   -0.00004823    0.00003814
     atom   12 type  2   force =    -0.00000614   -0.00003716    0.00001252
     atom   13 type  2   force =     0.00000596   -0.00005635   -0.00000211
     atom   14 type  2   force =    -0.00003106   -0.00005143   -0.00006424
     atom   15 type  2   force =     0.00000013    0.00002780   -0.00001121
     atom   16 type  2   force =    -0.00026966    0.00009038    0.00014563
     atom   17 type  2   force =    -0.00011239    0.00009485    0.00017280
     atom   18 type  2   force =     0.00015710    0.00005473    0.00047479
     atom   19 type  2   force =     0.00009839   -0.00000020    0.00014099
     atom   20 type  2   force =     0.00004543   -0.00009874    0.00005790
     atom   21 type  2   force =     0.00002275   -0.00007353    0.00003179
     atom   22 type  2   force =     0.00002307   -0.00005702    0.00001292
     atom   23 type  2   force =    -0.00000602   -0.00002255    0.00000212
     atom   24 type  2   force =     0.00006286   -0.00001505   -0.00003080
     atom   25 type  2   force =     0.00000408   -0.00006956   -0.00004137
     atom   26 type  2   force =     0.00026742   -0.00011334    0.00007215
     atom   27 type  2   force =    -0.00010710   -0.00110600   -0.00053331
     atom   28 type  2   force =    -0.00129957   -0.00033134   -0.00247821
     atom   29 type  2   force =    -0.00121186    0.00057473    0.00021909
     atom   30 type  2   force =    -0.00020406   -0.00022396    0.00043358
     atom   31 type  2   force =    -0.00003082   -0.00010413    0.00009991
     atom   32 type  2   force =    -0.00001779   -0.00007015   -0.00002049
     atom   33 type  2   force =    -0.00006201    0.00001632   -0.00003052
     atom   34 type  2   force =     0.00000552    0.00002578    0.00000203
     atom   35 type  2   force =     0.00001746    0.00007330   -0.00002047
     atom   36 type  2   force =     0.00003021    0.00010607    0.00009976
     atom   37 type  2   force =     0.00020504    0.00022378    0.00043346
     atom   38 type  2   force =     0.00121692   -0.00057734    0.00021936
     atom   39 type  2   force =     0.00130594    0.00032825   -0.00247875
     atom   40 type  2   force =     0.00010979    0.00110494   -0.00053310
     atom   41 type  2   force =    -0.00026346    0.00011341    0.00007212
     atom   42 type  2   force =    -0.00000248    0.00007231   -0.00004135
[...]
     atom   29 type  2   force =     0.15100699   -0.03064296    0.27704570
     atom   30 type  2   force =     0.10463076   -0.10162394    0.20106496
     atom   31 type  2   force =     0.07275306   -0.05884564    0.10938660
     atom   32 type  2   force =     0.03244463   -0.03750603    0.07661779
     atom   33 type  2   force =     0.01545931   -0.04678199    0.07630422
     atom   34 type  2   force =    -0.00979721   -0.00525446    0.06233135
     atom   35 type  2   force =    -0.03244391    0.03750214    0.07661785
     atom   36 type  2   force =    -0.07275171    0.05884702    0.10938612
     atom   37 type  2   force =    -0.10463077    0.10162840    0.20106911
     atom   38 type  2   force =    -0.15100544    0.03064477    0.27704731
     atom   39 type  2   force =    -0.07586926   -0.04516804    0.42454471
     atom   40 type  2   force =    -0.04904920   -0.14688100    0.27402810
     atom   41 type  2   force =     0.03392553   -0.14196407    0.19925782
     atom   42 type  2   force =     0.01366211   -0.09225831    0.10782227
     atom   43 type  2   force =    -0.00681979   -0.06514143    0.08285499
     atom   44 type  2   force =     0.00312194   -0.01991429    0.05987357
     atom   45 type  2   force =    -0.00750658   -0.00377467    0.05703531
     atom   46 type  2   force =    -0.01611752    0.01349987    0.06036028
     atom   47 type  2   force =    -0.06009183    0.02737995    0.08439019
     atom   48 type  2   force =    -0.07591878    0.00714626    0.09566026
     atom   49 type  2   force =    -0.12730360   -0.01411598    0.15961195
     atom   50 type  2   force =    -0.09584108   -0.05659389    0.12997513
     atom   51 type  2   force =    -0.07498444   -0.10399607    0.15730226
     atom   52 type  2   force =    -0.03156846   -0.06910317    0.09374388
     The core correction contribution to forces
     atom    1 type  1   force =     0.00000000    0.00000000    0.00000000
     atom    2 type  1   force =     0.00000000    0.00000000    0.00000000
     atom    3 type  2   force =    -0.00000103   -0.00000080   -0.00000043
     atom    4 type  2   force =     0.00000104    0.00000079   -0.00000044
     atom    5 type  2   force =     0.00000030   -0.00000018   -0.00000169
     atom    6 type  2   force =     0.00000258    0.00000015    0.00000063
     atom    7 type  2   force =     0.00000082   -0.00000092   -0.00000221
     atom    8 type  2   force =     0.00000004   -0.00000055   -0.00000132
     atom    9 type  2   force =    -0.00000004    0.00000056   -0.00000132
     atom   10 type  2   force =    -0.00000083    0.00000092   -0.00000221
     atom   11 type  2   force =    -0.00000258   -0.00000015    0.00000064
     atom   12 type  2   force =    -0.00000030    0.00000018   -0.00000169
     atom   13 type  2   force =    -0.00000042    0.00000223   -0.00000082
     atom   14 type  2   force =     0.00000083    0.00000192    0.00000143
     atom   15 type  2   force =     0.00000172    0.00000194    0.00000196
     atom   16 type  2   force =     0.00000829    0.00000409   -0.00000176
     atom   17 type  2   force =     0.00000275   -0.00000200   -0.00000039
     atom   18 type  2   force =     0.00000415   -0.00000068   -0.00000842
     atom   19 type  2   force =    -0.00000019    0.00000006   -0.00000105
     atom   20 type  2   force =     0.00000006    0.00000138   -0.00000113
     atom   21 type  2   force =     0.00000036    0.00000032   -0.00000099
     atom   22 type  2   force =    -0.00000081    0.00000066   -0.00000380
     atom   23 type  2   force =    -0.00000015    0.00000074   -0.00000096
     atom   24 type  2   force =    -0.00000129    0.00000141    0.00000054
     atom   25 type  2   force =    -0.00000103    0.00000478    0.00000455
     atom   26 type  2   force =    -0.00000689    0.00000572   -0.00000036
     atom   27 type  2   force =     0.00000360    0.00002082    0.00001728
     atom   28 type  2   force =     0.00002359    0.00000673    0.00005255
     atom   29 type  2   force =     0.00002322   -0.00001013    0.00000397
     atom   30 type  2   force =     0.00000732   -0.00000062   -0.00000780
     atom   31 type  2   force =     0.00000258    0.00000097    0.00000166
     atom   32 type  2   force =     0.00000083    0.00000071    0.00000065
     atom   33 type  2   force =     0.00000129   -0.00000141    0.00000054
     atom   34 type  2   force =     0.00000016   -0.00000074   -0.00000096
     atom   35 type  2   force =    -0.00000083   -0.00000071    0.00000065
     atom   36 type  2   force =    -0.00000257   -0.00000096    0.00000167
     atom   37 type  2   force =    -0.00000731    0.00000064   -0.00000780
     atom   38 type  2   force =    -0.00002318    0.00001012    0.00000397
     atom   39 type  2   force =    -0.00002356   -0.00000675    0.00005256
     atom   40 type  2   force =    -0.00000359   -0.00002081    0.00001727
     atom   41 type  2   force =     0.00000690   -0.00000574   -0.00000036
     atom   42 type  2   force =     0.00000103   -0.00000476    0.00000455
     atom   43 type  2   force =    -0.00000082   -0.00000193    0.00000143
     atom   44 type  2   force =     0.00000041   -0.00000224   -0.00000082
     atom   45 type  2   force =     0.00000079   -0.00000066   -0.00000380
     atom   46 type  2   force =    -0.00000037   -0.00000033   -0.00000099
     atom   47 type  2   force =    -0.00000008   -0.00000138   -0.00000114
     atom   48 type  2   force =     0.00000020   -0.00000006   -0.00000105
     atom   49 type  2   force =    -0.00000417    0.00000066   -0.00000842
     atom   50 type  2   force =    -0.00000274    0.00000201   -0.00000038
     atom   51 type  2   force =    -0.00000828   -0.00000411   -0.00000176
     atom   52 type  2   force =    -0.00000172   -0.00000194    0.00000196
     The Hubbard contrib.    to forces
     atom    1 type  1   force =     0.00000000    0.00000000    0.00000000
     atom    2 type  1   force =     0.00000000    0.00000000    0.00000000
     atom    3 type  2   force =     0.00000000    0.00000000    0.00000000
     atom    4 type  2   force =     0.00000000    0.00000000    0.00000000
     atom    5 type  2   force =     0.00000000    0.00000000    0.00000000
     atom    6 type  2   force =     0.00000000    0.00000000    0.00000000
     atom    7 type  2   force =     0.00000000    0.00000000    0.00000000
     atom    8 type  2   force =     0.00000000    0.00000000    0.00000000
     atom    9 type  2   force =     0.00000000    0.00000000    0.00000000
     atom   10 type  2   force =     0.00000000    0.00000000    0.00000000
     atom   11 type  2   force =     0.00000000    0.00000000    0.00000000
     atom   12 type  2   force =     0.00000000    0.00000000    0.00000000
     atom   13 type  2   force =     0.00000000    0.00000000    0.00000000
     atom   14 type  2   force =     0.00000000    0.00000000    0.00000000
     atom   15 type  2   force =     0.00000000    0.00000000    0.00000000
     atom   16 type  2   force =     0.00000000    0.00000000    0.00000000
     atom   17 type  2   force =     0.00000000    0.00000000    0.00000000
     atom   18 type  2   force =     0.00000000    0.00000000    0.00000000
     atom   19 type  2   force =     0.00000000    0.00000000    0.00000000
     atom   20 type  2   force =     0.00000000    0.00000000    0.00000000
     atom   21 type  2   force =     0.00000000    0.00000000    0.00000000
     atom   22 type  2   force =     0.00000000    0.00000000    0.00000000
     atom   23 type  2   force =     0.00000000    0.00000000    0.00000000
     atom   24 type  2   force =     0.00000000    0.00000000    0.00000000
     atom   25 type  2   force =     0.00000000    0.00000000    0.00000000
     atom   26 type  2   force =     0.00000000    0.00000000    0.00000000
     atom   27 type  2   force =     0.00000000    0.00000000    0.00000000
     atom   28 type  2   force =     0.00000000    0.00000000    0.00000000
     atom   29 type  2   force =     0.00000000    0.00000000    0.00000000
     atom   30 type  2   force =     0.00000000    0.00000000    0.00000000
     atom   31 type  2   force =     0.00000000    0.00000000    0.00000000
     atom   32 type  2   force =     0.00000000    0.00000000    0.00000000
     atom   33 type  2   force =     0.00000000    0.00000000    0.00000000
     atom   34 type  2   force =     0.00000000    0.00000000    0.00000000
     atom   35 type  2   force =     0.00000000    0.00000000    0.00000000
     atom   36 type  2   force =     0.00000000    0.00000000    0.00000000
     atom   37 type  2   force =     0.00000000    0.00000000    0.00000000
     atom   38 type  2   force =     0.00000000    0.00000000    0.00000000
     atom   39 type  2   force =     0.00000000    0.00000000    0.00000000
     atom   40 type  2   force =     0.00000000    0.00000000    0.00000000
     atom   41 type  2   force =     0.00000000    0.00000000    0.00000000
     atom   42 type  2   force =     0.00000000    0.00000000    0.00000000
     atom   43 type  2   force =     0.00000000    0.00000000    0.00000000
     atom   44 type  2   force =     0.00000000    0.00000000    0.00000000
     atom   45 type  2   force =     0.00000000    0.00000000    0.00000000
     atom   46 type  2   force =     0.00000000    0.00000000    0.00000000
     atom   47 type  2   force =     0.00000000    0.00000000    0.00000000
     atom   48 type  2   force =     0.00000000    0.00000000    0.00000000
     atom   49 type  2   force =     0.00000000    0.00000000    0.00000000
     atom   50 type  2   force =     0.00000000    0.00000000    0.00000000
     atom   51 type  2   force =     0.00000000    0.00000000    0.00000000
     atom   52 type  2   force =     0.00000000    0.00000000    0.00000000
     The SCF correction term to forces
     atom    1 type  1   force =     0.00000566    0.00000034   -0.00000145
     atom    2 type  1   force =    -0.00000544   -0.00000043   -0.00000149
     atom    3 type  2   force =     0.00000013   -0.00000414    0.00000474
     atom    4 type  2   force =     0.00000004    0.00000345    0.00000475
     atom    5 type  2   force =     0.00000491    0.00000169    0.00000372
     atom    6 type  2   force =     0.00001544    0.00000898    0.00000522
     atom    7 type  2   force =     0.00000062    0.00000657    0.00000400
     atom    8 type  2   force =    -0.00000067    0.00000048    0.00000526
     atom    9 type  2   force =    -0.00000305   -0.00000261    0.00000521
     atom   10 type  2   force =    -0.00000320   -0.00000699    0.00000395
     atom   11 type  2   force =    -0.00001727   -0.00001020    0.00000517
     atom   12 type  2   force =    -0.00000559   -0.00000220    0.00000369
     atom   13 type  2   force =    -0.00000211    0.00001096    0.00000332
     atom   14 type  2   force =     0.00000328    0.00001717    0.00000593
     atom   15 type  2   force =     0.00001705    0.00001363    0.00000604
     atom   16 type  2   force =     0.00001804    0.00003053    0.00000351
     atom   17 type  2   force =     0.00002459    0.00001244    0.00000720
     atom   18 type  2   force =     0.00003489    0.00000064    0.00000625
     atom   19 type  2   force =     0.00001472    0.00000755    0.00000785
     atom   20 type  2   force =     0.00001178   -0.00000782    0.00000709
     atom   21 type  2   force =     0.00000803   -0.00000857    0.00000369
     atom   22 type  2   force =     0.00000465    0.00000188    0.00000304
     atom   23 type  2   force =     0.00000734    0.00000381    0.00000431
     atom   24 type  2   force =     0.00000248    0.00001099    0.00000630
     atom   25 type  2   force =    -0.00000747    0.00002400    0.00000877
     atom   26 type  2   force =    -0.00000990    0.00003345    0.00000638
     atom   27 type  2   force =     0.00001457    0.00002073   -0.00000823
     atom   28 type  2   force =     0.00000750    0.00000373   -0.00002338
     atom   29 type  2   force =     0.00002631   -0.00000110   -0.00000553
     atom   30 type  2   force =     0.00002544   -0.00002733    0.00000819
     atom   31 type  2   force =     0.00001286   -0.00001659    0.00001046
     atom   32 type  2   force =     0.00000727   -0.00000128    0.00000670
     atom   33 type  2   force =    -0.00000256   -0.00000779    0.00000635
     atom   34 type  2   force =    -0.00000772   -0.00000103    0.00000431
     atom   35 type  2   force =    -0.00000798    0.00000468    0.00000663
     atom   36 type  2   force =    -0.00001320    0.00001848    0.00001046
     atom   37 type  2   force =    -0.00002324    0.00002691    0.00000832
     atom   38 type  2   force =    -0.00002372   -0.00000036   -0.00000547
     atom   39 type  2   force =    -0.00000426   -0.00000498   -0.00002340
     atom   40 type  2   force =    -0.00001141   -0.00002229   -0.00000827
     atom   41 type  2   force =     0.00001264   -0.00003349    0.00000627
     atom   42 type  2   force =     0.00000941   -0.00002205    0.00000877
     atom   43 type  2   force =    -0.00000245   -0.00001635    0.00000597
     atom   44 type  2   force =     0.00000147   -0.00001065    0.00000335
     atom   45 type  2   force =    -0.00000594   -0.00000079    0.00000306
     atom   46 type  2   force =    -0.00001056    0.00000933    0.00000369
     atom   47 type  2   force =    -0.00001468    0.00000875    0.00000706
     atom   48 type  2   force =    -0.00001741   -0.00000905    0.00000783
     atom   49 type  2   force =    -0.00003439   -0.00000258    0.00000632
     atom   50 type  2   force =    -0.00002463   -0.00001428    0.00000717
     atom   51 type  2   force =    -0.00001596   -0.00003186    0.00000349
     atom   52 type  2   force =    -0.00001622   -0.00001426    0.00000604

     Total force =     0.001197     Total SCF correction =     0.000155
     SCF correction compared to forces is large: reduce conv_thr to get better values

     bfgs converged in   3 scf cycles and   2 bfgs steps
     (criteria: energy <  1.0E-04 Ry, force <  1.0E-03 Ry/Bohr)

     End of BFGS Geometry Optimization

     Final energy   =    -625.6621643812 Ry
Begin final coordinates

ATOMIC_POSITIONS (angstrom)
H        2.707742471   6.049151832   3.113966873
H        3.455500996   6.049238953   3.113966870
C        0.000000979  -0.000004740   0.000006596
C       -0.000001066   1.423344656   0.000006651
C       -1.232651287   2.135007013   0.000006589
C       -1.232658175   3.558339428   0.000004566
C       -2.465298396   4.270017557   0.000006211
C       -2.465305129   5.693351067   0.000006015
C       -3.697938241   6.405039907   0.000006076
C       -3.697944948   7.828373334   0.000006185
C       -4.930585189   8.540051335   0.000004666
C       -4.930592209   9.963383790   0.000006575
C        2.465299881   0.000010536   0.000003814
C        2.465303840   1.423348504  -0.000000821
C        1.232667953   2.135021542   0.000023800
C        1.232709613   3.558417255   0.000080746
C       -0.000004290   4.269991658   0.000029783
C        0.000053945   5.693335162   0.000105536
C       -1.232655803   6.405036136   0.000019985
C       -1.232648000   7.828376967  -0.000006183
C       -2.465294887   8.540045706   0.000006269
C       -2.465296537   9.963385366   0.000006930
C        4.930594494   0.000003600   0.000005866
C        4.930590296   1.423348001   0.000005705
C        3.697928177   2.135038088   0.000021682
C        3.697883684   3.558397942   0.000204396
C        2.465329191   4.270236169   0.000030879
C        2.465445170   5.693398675  -0.000881841
C        1.232887662   6.404923486   0.000119013
C        1.232715411   7.828356811   0.000232537
C        0.000011720   8.540041276   0.000019846
C        0.000006103   9.963393335   0.000005173
C        7.395896387  -0.000008101   0.000005621
C        7.395892311   1.423336359   0.000005950
C        6.163237212   2.134997392   0.000005206
C        6.163231685   3.558349612   0.000019875
C        4.930527930   4.270034197   0.000232323
C        4.930356187   5.693467304   0.000118918
C        3.697798626   6.404991975  -0.000881539
C        3.697914118   7.828154817   0.000030789
C        2.465359575   8.539992775   0.000204226
C        2.465315188   9.963352835   0.000021591
C        9.861182918  -0.000008582  -0.000000778
C        9.861186702   1.423329398   0.000003796
C        8.628539714   2.135005329   0.000007000
C        8.628538292   3.558345005   0.000006298
C        7.395891270   4.270013896  -0.000006117
C        7.395899150   5.693354755   0.000020165
C        6.163189340   6.405055397   0.000105472
C        6.163247694   7.828399163   0.000029790
C        4.930533812   8.539973333   0.000080666
C        4.930575337   9.963369074   0.000023759
End final coordinates



     Writing output data file distance-3.11403.save/

     init_run     :    148.46s CPU    149.87s WALL (       1 calls)
     electrons    :   3935.26s CPU   3970.12s WALL (       3 calls)
     update_pot   :     51.25s CPU     52.33s WALL (       2 calls)
     forces       :    261.16s CPU    265.04s WALL (       3 calls)

     Called by init_run:
     wfcinit      :    116.90s CPU    117.50s WALL (       1 calls)
     wfcinit:atom :      0.16s CPU      0.24s WALL (       4 calls)
     wfcinit:wfcr :    115.59s CPU    116.01s WALL (       4 calls)
     potinit      :     16.10s CPU     16.60s WALL (       1 calls)
     hinit0       :      9.97s CPU     10.00s WALL (       1 calls)

     Called by electrons:
     c_bands      :   3185.07s CPU   3201.73s WALL (      18 calls)
     sum_band     :    516.20s CPU    522.48s WALL (      18 calls)
     v_of_rho     :    182.86s CPU    192.22s WALL (      19 calls)
     v_h          :      1.87s CPU      1.98s WALL (      19 calls)
     v_xc         :    209.39s CPU    220.25s WALL (      22 calls)
     newd         :     87.01s CPU     91.42s WALL (      19 calls)
     mix_rho      :      3.43s CPU      3.53s WALL (      18 calls)

     Called by c_bands:
     init_us_2    :     10.71s CPU     10.75s WALL (     160 calls)
     cegterg      :   3160.24s CPU   3176.82s WALL (      72 calls)

     Called by sum_band:
     sum_band:bec :      0.05s CPU      0.05s WALL (      72 calls)
     addusdens    :    127.71s CPU    131.97s WALL (      18 calls)

     Called by *egterg:
     h_psi        :   1760.85s CPU   1772.78s WALL (     398 calls)
     s_psi        :    555.08s CPU    555.28s WALL (     398 calls)
     g_psi        :      2.25s CPU      2.25s WALL (     322 calls)
     cdiaghg      :     25.48s CPU     25.49s WALL (     378 calls)
     cegterg:over :    379.34s CPU    379.45s WALL (     322 calls)
     cegterg:upda :    227.97s CPU    229.18s WALL (     322 calls)
     cegterg:last :    154.63s CPU    154.66s WALL (      72 calls)

     Called by h_psi:
     h_psi:pot    :   1758.85s CPU   1768.77s WALL (     398 calls)
     h_psi:calbec :    556.62s CPU    556.80s WALL (     398 calls)
     vloc_psi     :    645.19s CPU    654.84s WALL (     398 calls)
     add_vuspsi   :    557.03s CPU    557.13s WALL (     398 calls)

     General routines
     calbec       :    934.15s CPU    934.41s WALL (     518 calls)
     fft          :    112.78s CPU    116.66s WALL (    1378 calls)
     ffts         :      1.08s CPU      1.12s WALL (      37 calls)
     fftw         :    681.24s CPU    691.31s WALL (   51014 calls)
     interpolate  :      2.37s CPU      2.44s WALL (      19 calls)

     Parallel routines
     fft_scatt_xy :    176.30s CPU    177.10s WALL (   52429 calls)
     fft_scatt_yz :    221.62s CPU    231.58s WALL (   52429 calls)

     PWSCF        :      1h13m CPU      1h14m WALL


   This run was terminated on:   3: 8: 4   8Jul2022            

=------------------------------------------------------------------------------=
   JOB DONE.
=------------------------------------------------------------------------------=
