
     Program PWSCF v.6.4.1 starts on  9Mar2022 at 23: 6:26 

     This program is part of the open-source Quantum ESPRESSO suite
     for quantum simulation of materials; please cite
         "P. Giannozzi et al., J. Phys.:Condens. Matter 21 395502 (2009);
         "P. Giannozzi et al., J. Phys.:Condens. Matter 29 465901 (2017);
          URL http://www.quantum-espresso.org", 
     in publications or presentations arising from this work. More details at
     http://www.quantum-espresso.org/quote

     Parallel version (MPI), running on     6 processors

     MPI processes distributed on     1 nodes
     R & G space division:  proc/nbgrp/npool/nimage =       6
     Reading input from degauss-0.01.in

     Current dimensions of program PWSCF are:
     Max number of different atomic species (ntypx) = 10
     Max number of k-points (npk) =  40000
     Max angular momentum in pseudopotentials (lmaxx) =  3
               file Cr.pbe-spn-rrkjus_psl.1.0.0.UPF: wavefunction(s)  3P renormalized
               file Cr.pbe-spn-rrkjus_psl.1.0.0.UPF: wavefunction(s)  3P renormalized

     Subspace diagonalization in iterative solution of the eigenvalue problem:
     a serial algorithm will be used

     Message from routine setup:
     DEPRECATED: symmetry with ibrav=0, use correct ibrav instead

     Parallelization info
     --------------------
     sticks:   dense  smooth     PW     G-vecs:    dense   smooth      PW
     Min         320     129     38                10576     2689     433
     Max         321     131     40                10577     2690     434
     Sum        1925     777    233                63461    16135    2601



     bravais-lattice index     =            0
     lattice parameter (alat)  =       5.4991  a.u.
     unit-cell volume          =     166.2936 (a.u.)^3
     number of atoms/cell      =            2
     number of atomic types    =            2
     number of electrons       =        28.00
     number of Kohn-Sham states=           18
     kinetic-energy cutoff     =      80.0000  Ry
     charge density cutoff     =     800.0000  Ry
     convergence threshold     =      1.0E-06
     mixing beta               =       0.7000
     number of iterations used =            8  plain     mixing
     Exchange-correlation      = PBE ( 1  4  3  4 0 0)

     celldm(1)=   5.499103  celldm(2)=   0.000000  celldm(3)=   0.000000
     celldm(4)=   0.000000  celldm(5)=   0.000000  celldm(6)=   0.000000

     crystal axes: (cart. coord. in units of alat)
               a(1) = (   1.000000   0.000000   0.000000 )  
               a(2) = (   0.000000   1.000000   0.000000 )  
               a(3) = (   0.000000   0.000000   1.000000 )  

     reciprocal axes: (cart. coord. in units 2 pi/alat)
               b(1) = (  1.000000  0.000000  0.000000 )  
               b(2) = (  0.000000  1.000000  0.000000 )  
               b(3) = (  0.000000  0.000000  1.000000 )  


     PseudoPot. # 1 for Cr read from file:
     /home/cristian/Escritorio/Proyecto_Grafeno/pseudopotenciales/Cr.pbe-spn-rrkjus_psl.1.0.0.UPF
     MD5 check sum: 793d051e4f89dd1e3290b85340a92c0a
     Pseudo is Ultrasoft + core correction, Zval = 14.0
     Generated using "atomic" code by A. Dal Corso v.6.2.2
     Using radial grid of 1183 points,  6 beta functions with: 
                l(1) =   0
                l(2) =   0
                l(3) =   1
                l(4) =   1
                l(5) =   2
                l(6) =   2
     Q(r) pseudized with 0 coefficients 


     PseudoPot. # 2 for Cr read from file:
     /home/cristian/Escritorio/Proyecto_Grafeno/pseudopotenciales/Cr.pbe-spn-rrkjus_psl.1.0.0.UPF
     MD5 check sum: 793d051e4f89dd1e3290b85340a92c0a
     Pseudo is Ultrasoft + core correction, Zval = 14.0
     Generated using "atomic" code by A. Dal Corso v.6.2.2
     Using radial grid of 1183 points,  6 beta functions with: 
                l(1) =   0
                l(2) =   0
                l(3) =   1
                l(4) =   1
                l(5) =   2
                l(6) =   2
     Q(r) pseudized with 0 coefficients 


     atomic species   valence    mass     pseudopotential
        Cr1           14.00    51.99610     Cr( 1.00)
        Cr2           14.00    51.99610     Cr( 1.00)

     Starting magnetic structure 
     atomic species   magnetization
        Cr1          0.100
        Cr2         -0.100

     48 Sym. Ops., with inversion, found



   Cartesian axes

     site n.     atom                  positions (alat units)
         1           Cr1 tau(   1) = (   0.0000000   0.0000000   0.0000000  )
         2           Cr2 tau(   2) = (   0.5000000   0.5000000   0.5000000  )

     number of k points=    20  Methfessel-Paxton smearing, width (Ry)=  0.0100
                       cart. coord. in units 2pi/alat
        k(    1) = (   0.0625000   0.0625000   0.0625000), wk =   0.0156250
        k(    2) = (   0.0625000   0.0625000   0.1875000), wk =   0.0468750
        k(    3) = (   0.0625000   0.0625000   0.3125000), wk =   0.0468750
        k(    4) = (   0.0625000   0.0625000   0.4375000), wk =   0.0468750
        k(    5) = (   0.0625000   0.1875000   0.1875000), wk =   0.0468750
        k(    6) = (   0.0625000   0.1875000   0.3125000), wk =   0.0937500
        k(    7) = (   0.0625000   0.1875000   0.4375000), wk =   0.0937500
        k(    8) = (   0.0625000   0.3125000   0.3125000), wk =   0.0468750
        k(    9) = (   0.0625000   0.3125000   0.4375000), wk =   0.0937500
        k(   10) = (   0.0625000   0.4375000   0.4375000), wk =   0.0468750
        k(   11) = (   0.1875000   0.1875000   0.1875000), wk =   0.0156250
        k(   12) = (   0.1875000   0.1875000   0.3125000), wk =   0.0468750
        k(   13) = (   0.1875000   0.1875000   0.4375000), wk =   0.0468750
        k(   14) = (   0.1875000   0.3125000   0.3125000), wk =   0.0468750
        k(   15) = (   0.1875000   0.3125000   0.4375000), wk =   0.0937500
        k(   16) = (   0.1875000   0.4375000   0.4375000), wk =   0.0468750
        k(   17) = (   0.3125000   0.3125000   0.3125000), wk =   0.0156250
        k(   18) = (   0.3125000   0.3125000   0.4375000), wk =   0.0468750
        k(   19) = (   0.3125000   0.4375000   0.4375000), wk =   0.0468750
        k(   20) = (   0.4375000   0.4375000   0.4375000), wk =   0.0156250

     Dense  grid:    63461 G-vectors     FFT dimensions: (  50,  50,  50)

     Smooth grid:    16135 G-vectors     FFT dimensions: (  32,  32,  32)

     Estimated max dynamical RAM per process >      48.55 MB

     Estimated total dynamical RAM >     291.30 MB
     Generating pointlists ...
     new r_m :   0.3572 (alat units)  1.9645 (a.u.) for type    1
     new r_m :   0.3572 (alat units)  1.9645 (a.u.) for type    2

     Check: negative core charge=   -0.000002

     Initial potential from superposition of free atoms

     starting charge   27.99845, renormalised to   28.00000
     Starting wfcs are   20 randomized atomic wfcs

     total cpu time spent up to now is        2.1 secs

     Self-consistent Calculation

     iteration #  1     ecut=    80.00 Ry     beta= 0.70
     Davidson diagonalization with overlap
     ethr =  1.00E-02,  avg # of iterations =  2.5

     Threshold (ethr) on eigenvalues was too large:
     Diagonalizing with lowered threshold

     Davidson diagonalization with overlap
     ethr =  6.43E-04,  avg # of iterations =  2.3

     total cpu time spent up to now is        3.7 secs

     total energy              =    -349.90007918 Ry
     Harris-Foulkes estimate   =    -350.02640271 Ry
     estimated scf accuracy    <       0.19269198 Ry

     total magnetization       =    -0.00 Bohr mag/cell
     absolute magnetization    =     2.14 Bohr mag/cell

     iteration #  2     ecut=    80.00 Ry     beta= 0.70
     Davidson diagonalization with overlap
     ethr =  6.88E-04,  avg # of iterations =  3.1

     total cpu time spent up to now is        4.9 secs

     total energy              =    -349.93320448 Ry
     Harris-Foulkes estimate   =    -350.05730046 Ry
     estimated scf accuracy    <       0.27063218 Ry

     total magnetization       =    -0.00 Bohr mag/cell
     absolute magnetization    =     2.72 Bohr mag/cell

     iteration #  3     ecut=    80.00 Ry     beta= 0.70
     Davidson diagonalization with overlap
     ethr =  6.88E-04,  avg # of iterations =  3.0

     total cpu time spent up to now is        5.9 secs

     total energy              =    -349.98765939 Ry
     Harris-Foulkes estimate   =    -349.98757397 Ry
     estimated scf accuracy    <       0.00161392 Ry

     total magnetization       =    -0.00 Bohr mag/cell
     absolute magnetization    =     2.49 Bohr mag/cell

     iteration #  4     ecut=    80.00 Ry     beta= 0.70
     Davidson diagonalization with overlap
     ethr =  5.76E-06,  avg # of iterations =  4.0

     total cpu time spent up to now is        7.2 secs

     total energy              =    -349.98425953 Ry
     Harris-Foulkes estimate   =    -349.99306392 Ry
     estimated scf accuracy    <       0.09202593 Ry

     total magnetization       =     0.01 Bohr mag/cell
     absolute magnetization    =     2.57 Bohr mag/cell

     iteration #  5     ecut=    80.00 Ry     beta= 0.70
     Davidson diagonalization with overlap
     ethr =  5.76E-06,  avg # of iterations =  4.0

     total cpu time spent up to now is        8.3 secs

     total energy              =    -349.98875941 Ry
     Harris-Foulkes estimate   =    -349.98865643 Ry
     estimated scf accuracy    <       0.00013817 Ry

     total magnetization       =    -0.00 Bohr mag/cell
     absolute magnetization    =     2.61 Bohr mag/cell

     iteration #  6     ecut=    80.00 Ry     beta= 0.70
     Davidson diagonalization with overlap
     ethr =  4.93E-07,  avg # of iterations =  3.5

     total cpu time spent up to now is        9.2 secs

     total energy              =    -349.98854894 Ry
     Harris-Foulkes estimate   =    -349.98881208 Ry
     estimated scf accuracy    <       0.00009402 Ry

     total magnetization       =    -0.00 Bohr mag/cell
     absolute magnetization    =     2.68 Bohr mag/cell

     iteration #  7     ecut=    80.00 Ry     beta= 0.70
     Davidson diagonalization with overlap
     ethr =  3.36E-07,  avg # of iterations =  4.5

     total cpu time spent up to now is       10.4 secs

     total energy              =    -349.98906285 Ry
     Harris-Foulkes estimate   =    -349.98916269 Ry
     estimated scf accuracy    <       0.00002892 Ry

     total magnetization       =    -0.00 Bohr mag/cell
     absolute magnetization    =     2.91 Bohr mag/cell

     iteration #  8     ecut=    80.00 Ry     beta= 0.70
     Davidson diagonalization with overlap
     ethr =  1.03E-07,  avg # of iterations =  4.6

     Magnetic moment per site:
     atom:    1    charge:   12.2785    magn:    1.4128    constr:    0.0000
     atom:    2    charge:   12.2782    magn:   -1.4128    constr:    0.0000

     total cpu time spent up to now is       11.5 secs

     End of self-consistent calculation

 ------ SPIN UP ------------


          k = 0.0625 0.0625 0.0625 (  2013 PWs)   bands (ev):

   -54.1950 -52.6666 -25.5251 -25.5251 -25.5135 -23.8879 -23.8740 -23.8740
    10.7064  14.3316  14.3316  17.2167  17.2167  17.4366  19.3653  19.3653
    20.2732  20.6708

          k = 0.0625 0.0625 0.1875 (  2003 PWs)   bands (ev):

   -54.1888 -52.6665 -25.5519 -25.5111 -25.5032 -23.9319 -23.8836 -23.8828
    11.3287  14.6358  14.6374  17.0884  17.1441  17.6596  18.9991  19.5314
    19.5764  20.0115

          k = 0.0625 0.0625 0.3125 (  2003 PWs)   bands (ev):

   -54.1800 -52.6664 -25.5875 -25.4911 -25.4910 -23.9954 -23.8974 -23.8934
    12.4481  14.9629  15.2038  17.0351  17.0527  17.8095  18.3759  19.0524
    19.2325  19.7785

          k = 0.0625 0.0625 0.4375 (  2011 PWs)   bands (ev):

   -54.1737 -52.6664 -25.6122 -25.4828 -25.4767 -24.0399 -23.9074 -23.9011
    13.7542  14.7824  15.8833  16.8193  17.1491  17.7095  17.8218  18.7303
    19.0624  19.9178

          k = 0.0625 0.1875 0.1875 (  1999 PWs)   bands (ev):

   -54.1834 -52.6655 -25.5667 -25.5232 -25.4974 -23.9519 -23.8971 -23.8895
    11.9019  14.8280  15.0017  16.8095  16.9727  17.7440  19.0836  19.1516
    19.4426  19.6203

          k = 0.0625 0.1875 0.3125 (  2012 PWs)   bands (ev):

   -54.1757 -52.6640 -25.6016 -25.5311 -25.4850 -23.9873 -23.9113 -23.8960
    12.8959  15.0217  15.5449  16.6237  16.8354  17.3849  18.7851  19.0605
    19.3896  19.6739

          k = 0.0625 0.1875 0.4375 (  2008 PWs)   bands (ev):

   -54.1702 -52.6630 -25.6284 -25.5367 -25.4743 -24.0134 -23.9209 -23.8992
    13.9822  14.7832  16.0507  16.5176  16.8754  17.0521  18.5044  18.8736
    19.6570  20.1822

          k = 0.0625 0.3125 0.3125 (  2007 PWs)   bands (ev):

   -54.1696 -52.6606 -25.6270 -25.5828 -25.4754 -23.9803 -23.9279 -23.8981
    13.5450  14.8203  16.2496  16.3241  16.7894  16.9543  18.8755  19.2209
    19.5618  20.0029

          k = 0.0625 0.3125 0.4375 (  2016 PWs)   bands (ev):

   -54.1653 -52.6582 -25.6522 -25.6123 -25.4683 -23.9792 -23.9376 -23.8976
    14.0760  14.4828  16.1702  16.3623  16.9230  17.4388  18.9852  19.2063
    19.8001  20.6497

          k = 0.0625 0.4375 0.4375 (  2020 PWs)   bands (ev):

   -54.1618 -52.6548 -25.6704 -25.6632 -25.4640 -23.9574 -23.9484 -23.8963
    14.0325  14.2243  15.9423  16.0067  18.0463  18.4030  19.2014  19.4958
    19.5119  20.5536

          k = 0.1875 0.1875 0.1875 (  1992 PWs)   bands (ev):

   -54.1785 -52.6637 -25.5500 -25.5500 -25.5159 -23.9507 -23.9094 -23.9094
    12.4557  15.1894  15.1894  16.6472  16.6472  17.2187  19.3211  19.3211
    19.3478  20.1026

          k = 0.1875 0.1875 0.3125 (  2002 PWs)   bands (ev):

   -54.1717 -52.6613 -25.5977 -25.5324 -25.5260 -23.9745 -23.9274 -23.9118
    13.3871  15.4745  15.5084  16.4055  16.4981  16.7586  19.1041  19.4259
    19.5565  19.9837

          k = 0.1875 0.1875 0.4375 (  2014 PWs)   bands (ev):

   -54.1668 -52.6596 -25.6323 -25.5433 -25.5086 -23.9995 -23.9405 -23.9050
    14.3413  15.0697  15.8556  16.1486  16.5986  16.9628  18.8932  19.0535
    19.4894  20.2861

          k = 0.1875 0.3125 0.3125 (  2011 PWs)   bands (ev):

   -54.1660 -52.6575 -25.6061 -25.5844 -25.5188 -23.9720 -23.9447 -23.9248
    14.0871  15.2709  16.0655  16.2270  16.3111  16.4761  19.2568  19.4210
    19.5227  20.2187

          k = 0.1875 0.3125 0.4375 (  2010 PWs)   bands (ev):

   -54.1620 -52.6548 -25.6393 -25.5991 -25.5079 -23.9832 -23.9595 -23.9189
    14.5478  14.9494  15.9304  16.0883  16.6185  17.0893  19.1495  19.3796
    19.4752  20.2934

          k = 0.1875 0.4375 0.4375 (  2027 PWs)   bands (ev):

   -54.1586 -52.6513 -25.6464 -25.6432 -25.5001 -23.9755 -23.9686 -23.9297
    14.4632  14.7569  15.8259  15.8613  17.5500  17.5849  19.1950  19.2301
    19.7014  20.3200

          k = 0.3125 0.3125 0.3125 (  2016 PWs)   bands (ev):

   -54.1609 -52.6531 -25.5905 -25.5758 -25.5758 -23.9692 -23.9692 -23.9539
    14.8693  15.6933  15.8419  15.8419  16.2445  16.2445  19.3667  19.3667
    19.8801  19.8801

          k = 0.3125 0.3125 0.4375 (  2019 PWs)   bands (ev):

   -54.1573 -52.6499 -25.6232 -25.5874 -25.5537 -23.9907 -23.9871 -23.9510
    15.0524  15.5250  15.6951  16.0745  16.1760  16.8392  19.2265  19.2563
    19.7948  20.2136

          k = 0.3125 0.4375 0.4375 (  2001 PWs)   bands (ev):

   -54.1539 -52.6465 -25.6144 -25.6113 -25.5507 -24.0020 -23.9982 -23.9763
    15.0724  15.5619  15.6813  15.7866  16.8359  16.9118  19.1290  19.1977
    20.0230  20.3000

          k = 0.4375 0.4375 0.4375 (  1977 PWs)   bands (ev):

   -54.1507 -52.6431 -25.5942 -25.5856 -25.5856 -24.0199 -24.0199 -24.0103
    15.4374  15.5997  15.5997  16.4520  16.5073  16.5073  19.1089  19.1089
    20.3085  20.3085

 ------ SPIN DOWN ----------


          k = 0.0625 0.0625 0.0625 (  2013 PWs)   bands (ev):

   -54.1951 -52.6664 -25.5249 -25.5249 -25.5133 -23.8880 -23.8741 -23.8741
    10.7064  14.3316  14.3316  17.2168  17.2168  17.4367  19.3652  19.3652
    20.2731  20.6708

          k = 0.0625 0.0625 0.1875 (  2003 PWs)   bands (ev):

   -54.1888 -52.6663 -25.5518 -25.5110 -25.5030 -23.9320 -23.8837 -23.8829
    11.3287  14.6358  14.6375  17.0885  17.1442  17.6597  18.9990  19.5313
    19.5763  20.0115

          k = 0.0625 0.0625 0.3125 (  2003 PWs)   bands (ev):

   -54.1800 -52.6663 -25.5873 -25.4909 -25.4909 -23.9956 -23.8975 -23.8936
    12.4481  14.9629  15.2039  17.0352  17.0528  17.8096  18.3758  19.0523
    19.2324  19.7784

          k = 0.0625 0.0625 0.4375 (  2011 PWs)   bands (ev):

   -54.1738 -52.6662 -25.6121 -25.4827 -25.4766 -24.0401 -23.9075 -23.9013
    13.7543  14.7824  15.8834  16.8193  17.1492  17.7096  17.8217  18.7302
    19.0624  19.9177

          k = 0.0625 0.1875 0.1875 (  1999 PWs)   bands (ev):

   -54.1834 -52.6653 -25.5666 -25.5230 -25.4972 -23.9520 -23.8972 -23.8896
    11.9019  14.8281  15.0018  16.8095  16.9728  17.7441  19.0835  19.1515
    19.4425  19.6202

          k = 0.0625 0.1875 0.3125 (  2012 PWs)   bands (ev):

   -54.1758 -52.6638 -25.6014 -25.5310 -25.4849 -23.9874 -23.9114 -23.8962
    12.8960  15.0218  15.5450  16.6238  16.8355  17.3851  18.7850  19.0604
    19.3895  19.6739

          k = 0.0625 0.1875 0.4375 (  2008 PWs)   bands (ev):

   -54.1703 -52.6628 -25.6283 -25.5366 -25.4742 -24.0135 -23.9210 -23.8993
    13.9823  14.7833  16.0508  16.5177  16.8754  17.0521  18.5043  18.8736
    19.6570  20.1822

          k = 0.0625 0.3125 0.3125 (  2007 PWs)   bands (ev):

   -54.1697 -52.6604 -25.6268 -25.5827 -25.4753 -23.9804 -23.9280 -23.8982
    13.5450  14.8204  16.2497  16.3242  16.7894  16.9544  18.8754  19.2208
    19.5617  20.0028

          k = 0.0625 0.3125 0.4375 (  2016 PWs)   bands (ev):

   -54.1654 -52.6580 -25.6521 -25.6122 -25.4682 -23.9793 -23.9377 -23.8977
    14.0760  14.4829  16.1703  16.3624  16.9232  17.4388  18.9851  19.2063
    19.8001  20.6496

          k = 0.0625 0.4375 0.4375 (  2020 PWs)   bands (ev):

   -54.1619 -52.6546 -25.6702 -25.6631 -25.4638 -23.9575 -23.9485 -23.8964
    14.0325  14.2244  15.9424  16.0068  18.0463  18.4030  19.2014  19.4958
    19.5118  20.5535

          k = 0.1875 0.1875 0.1875 (  1992 PWs)   bands (ev):

   -54.1786 -52.6635 -25.5499 -25.5499 -25.5158 -23.9508 -23.9095 -23.9095
    12.4557  15.1895  15.1895  16.6473  16.6473  17.2188  19.3210  19.3210
    19.3477  20.1025

          k = 0.1875 0.1875 0.3125 (  2002 PWs)   bands (ev):

   -54.1717 -52.6611 -25.5976 -25.5323 -25.5259 -23.9746 -23.9275 -23.9119
    13.3871  15.4746  15.5085  16.4056  16.4981  16.7586  19.1040  19.4259
    19.5564  19.9837

          k = 0.1875 0.1875 0.4375 (  2014 PWs)   bands (ev):

   -54.1669 -52.6594 -25.6321 -25.5432 -25.5085 -23.9996 -23.9406 -23.9051
    14.3413  15.0698  15.8556  16.1487  16.5987  16.9628  18.8931  19.0534
    19.4895  20.2860

          k = 0.1875 0.3125 0.3125 (  2011 PWs)   bands (ev):

   -54.1661 -52.6573 -25.6060 -25.5843 -25.5187 -23.9721 -23.9448 -23.9250
    14.0872  15.2709  16.0656  16.2270  16.3111  16.4761  19.2568  19.4209
    19.5227  20.2187

          k = 0.1875 0.3125 0.4375 (  2010 PWs)   bands (ev):

   -54.1621 -52.6546 -25.6392 -25.5990 -25.5077 -23.9833 -23.9596 -23.9190
    14.5479  14.9494  15.9305  16.0883  16.6186  17.0892  19.1495  19.3795
    19.4752  20.2933

          k = 0.1875 0.4375 0.4375 (  2027 PWs)   bands (ev):

   -54.1586 -52.6512 -25.6463 -25.6431 -25.5000 -23.9756 -23.9687 -23.9298
    14.4633  14.7570  15.8259  15.8614  17.5500  17.5849  19.1950  19.2302
    19.7013  20.3198

          k = 0.3125 0.3125 0.3125 (  2016 PWs)   bands (ev):

   -54.1610 -52.6529 -25.5903 -25.5757 -25.5757 -23.9693 -23.9693 -23.9541
    14.8693  15.6933  15.8420  15.8420  16.2445  16.2445  19.3667  19.3667
    19.8800  19.8800

          k = 0.3125 0.3125 0.4375 (  2019 PWs)   bands (ev):

   -54.1573 -52.6497 -25.6231 -25.5873 -25.5536 -23.9908 -23.9872 -23.9511
    15.0525  15.5250  15.6952  16.0746  16.1760  16.8391  19.2265  19.2563
    19.7947  20.2134

          k = 0.3125 0.4375 0.4375 (  2001 PWs)   bands (ev):

   -54.1540 -52.6463 -25.6142 -25.6111 -25.5506 -24.0022 -23.9983 -23.9764
    15.0725  15.5619  15.6814  15.7867  16.8358  16.9118  19.1291  19.1978
    20.0229  20.2998

          k = 0.4375 0.4375 0.4375 (  1977 PWs)   bands (ev):

   -54.1507 -52.6429 -25.5940 -25.5854 -25.5854 -24.0200 -24.0200 -24.0104
    15.4376  15.5999  15.5999  16.4519  16.5072  16.5072  19.1090  19.1090
    20.3084  20.3084

     the Fermi energy is    18.2790 ev

!    total energy              =    -349.98922686 Ry
     Harris-Foulkes estimate   =    -349.98922657 Ry
     estimated scf accuracy    <       0.00000069 Ry

     The total energy is the sum of the following terms:

     one-electron contribution =    -121.60084572 Ry
     hartree contribution      =      75.60086260 Ry
     xc contribution           =     -44.56899365 Ry
     ewald contribution        =    -259.42040003 Ry
     smearing contrib. (-TS)   =       0.00014995 Ry

     total magnetization       =    -0.00 Bohr mag/cell
     absolute magnetization    =     3.03 Bohr mag/cell

     convergence has been achieved in   8 iterations

     Writing output data file degauss-0.01.save/

     init_run     :      0.67s CPU      0.69s WALL (       1 calls)
     electrons    :      9.22s CPU      9.39s WALL (       1 calls)

     Called by init_run:
     wfcinit      :      0.23s CPU      0.23s WALL (       1 calls)
     potinit      :      0.06s CPU      0.06s WALL (       1 calls)
     hinit0       :      0.24s CPU      0.24s WALL (       1 calls)

     Called by electrons:
     c_bands      :      6.76s CPU      6.89s WALL (       9 calls)
     sum_band     :      1.67s CPU      1.70s WALL (       9 calls)
     v_of_rho     :      0.30s CPU      0.31s WALL (       9 calls)
     newd         :      0.53s CPU      0.56s WALL (       9 calls)
     mix_rho      :      0.02s CPU      0.02s WALL (       9 calls)

     Called by c_bands:
     init_us_2    :      0.10s CPU      0.11s WALL (     760 calls)
     cegterg      :      6.39s CPU      6.52s WALL (     360 calls)

     Called by sum_band:
     sum_band:bec :      0.01s CPU      0.01s WALL (     360 calls)
     addusdens    :      0.94s CPU      0.94s WALL (       9 calls)

     Called by *egterg:
     h_psi        :      3.39s CPU      3.46s WALL (    1662 calls)
     s_psi        :      0.40s CPU      0.41s WALL (    1662 calls)
     g_psi        :      0.04s CPU      0.04s WALL (    1262 calls)
     cdiaghg      :      0.98s CPU      1.00s WALL (    1582 calls)

     Called by h_psi:
     h_psi:pot    :      3.38s CPU      3.45s WALL (    1662 calls)
     h_psi:calbec :      0.52s CPU      0.53s WALL (    1662 calls)
     vloc_psi     :      2.46s CPU      2.51s WALL (    1662 calls)
     add_vuspsi   :      0.40s CPU      0.41s WALL (    1662 calls)

     General routines
     calbec       :      0.68s CPU      0.70s WALL (    2022 calls)
     fft          :      0.13s CPU      0.14s WALL (     221 calls)
     ffts         :      0.00s CPU      0.01s WALL (      36 calls)
     fftw         :      2.46s CPU      2.51s WALL (   44484 calls)
     interpolate  :      0.01s CPU      0.01s WALL (      18 calls)

     Parallel routines
     fft_scatt_xy :      0.36s CPU      0.37s WALL (   44741 calls)
     fft_scatt_yz :      1.18s CPU      1.21s WALL (   44741 calls)

     PWSCF        :     11.33s CPU     11.57s WALL


   This run was terminated on:  23: 6:37   9Mar2022            

=------------------------------------------------------------------------------=
   JOB DONE.
=------------------------------------------------------------------------------=
