
     Program PWSCF v.6.4.1 starts on  9Mar2022 at 23: 7: 4 

     This program is part of the open-source Quantum ESPRESSO suite
     for quantum simulation of materials; please cite
         "P. Giannozzi et al., J. Phys.:Condens. Matter 21 395502 (2009);
         "P. Giannozzi et al., J. Phys.:Condens. Matter 29 465901 (2017);
          URL http://www.quantum-espresso.org", 
     in publications or presentations arising from this work. More details at
     http://www.quantum-espresso.org/quote

     Parallel version (MPI), running on     6 processors

     MPI processes distributed on     1 nodes
     R & G space division:  proc/nbgrp/npool/nimage =       6
     Reading input from degauss-0.07.in

     Current dimensions of program PWSCF are:
     Max number of different atomic species (ntypx) = 10
     Max number of k-points (npk) =  40000
     Max angular momentum in pseudopotentials (lmaxx) =  3
               file Cr.pbe-spn-rrkjus_psl.1.0.0.UPF: wavefunction(s)  3P renormalized
               file Cr.pbe-spn-rrkjus_psl.1.0.0.UPF: wavefunction(s)  3P renormalized

     Subspace diagonalization in iterative solution of the eigenvalue problem:
     a serial algorithm will be used

     Message from routine setup:
     DEPRECATED: symmetry with ibrav=0, use correct ibrav instead

     Parallelization info
     --------------------
     sticks:   dense  smooth     PW     G-vecs:    dense   smooth      PW
     Min         320     129     38                10576     2689     433
     Max         321     131     40                10577     2690     434
     Sum        1925     777    233                63461    16135    2601



     bravais-lattice index     =            0
     lattice parameter (alat)  =       5.4991  a.u.
     unit-cell volume          =     166.2936 (a.u.)^3
     number of atoms/cell      =            2
     number of atomic types    =            2
     number of electrons       =        28.00
     number of Kohn-Sham states=           18
     kinetic-energy cutoff     =      80.0000  Ry
     charge density cutoff     =     800.0000  Ry
     convergence threshold     =      1.0E-06
     mixing beta               =       0.7000
     number of iterations used =            8  plain     mixing
     Exchange-correlation      = PBE ( 1  4  3  4 0 0)

     celldm(1)=   5.499103  celldm(2)=   0.000000  celldm(3)=   0.000000
     celldm(4)=   0.000000  celldm(5)=   0.000000  celldm(6)=   0.000000

     crystal axes: (cart. coord. in units of alat)
               a(1) = (   1.000000   0.000000   0.000000 )  
               a(2) = (   0.000000   1.000000   0.000000 )  
               a(3) = (   0.000000   0.000000   1.000000 )  

     reciprocal axes: (cart. coord. in units 2 pi/alat)
               b(1) = (  1.000000  0.000000  0.000000 )  
               b(2) = (  0.000000  1.000000  0.000000 )  
               b(3) = (  0.000000  0.000000  1.000000 )  


     PseudoPot. # 1 for Cr read from file:
     /home/cristian/Escritorio/Proyecto_Grafeno/pseudopotenciales/Cr.pbe-spn-rrkjus_psl.1.0.0.UPF
     MD5 check sum: 793d051e4f89dd1e3290b85340a92c0a
     Pseudo is Ultrasoft + core correction, Zval = 14.0
     Generated using "atomic" code by A. Dal Corso v.6.2.2
     Using radial grid of 1183 points,  6 beta functions with: 
                l(1) =   0
                l(2) =   0
                l(3) =   1
                l(4) =   1
                l(5) =   2
                l(6) =   2
     Q(r) pseudized with 0 coefficients 


     PseudoPot. # 2 for Cr read from file:
     /home/cristian/Escritorio/Proyecto_Grafeno/pseudopotenciales/Cr.pbe-spn-rrkjus_psl.1.0.0.UPF
     MD5 check sum: 793d051e4f89dd1e3290b85340a92c0a
     Pseudo is Ultrasoft + core correction, Zval = 14.0
     Generated using "atomic" code by A. Dal Corso v.6.2.2
     Using radial grid of 1183 points,  6 beta functions with: 
                l(1) =   0
                l(2) =   0
                l(3) =   1
                l(4) =   1
                l(5) =   2
                l(6) =   2
     Q(r) pseudized with 0 coefficients 


     atomic species   valence    mass     pseudopotential
        Cr1           14.00    51.99610     Cr( 1.00)
        Cr2           14.00    51.99610     Cr( 1.00)

     Starting magnetic structure 
     atomic species   magnetization
        Cr1          0.100
        Cr2         -0.100

     48 Sym. Ops., with inversion, found



   Cartesian axes

     site n.     atom                  positions (alat units)
         1           Cr1 tau(   1) = (   0.0000000   0.0000000   0.0000000  )
         2           Cr2 tau(   2) = (   0.5000000   0.5000000   0.5000000  )

     number of k points=    20  Methfessel-Paxton smearing, width (Ry)=  0.0700
                       cart. coord. in units 2pi/alat
        k(    1) = (   0.0625000   0.0625000   0.0625000), wk =   0.0156250
        k(    2) = (   0.0625000   0.0625000   0.1875000), wk =   0.0468750
        k(    3) = (   0.0625000   0.0625000   0.3125000), wk =   0.0468750
        k(    4) = (   0.0625000   0.0625000   0.4375000), wk =   0.0468750
        k(    5) = (   0.0625000   0.1875000   0.1875000), wk =   0.0468750
        k(    6) = (   0.0625000   0.1875000   0.3125000), wk =   0.0937500
        k(    7) = (   0.0625000   0.1875000   0.4375000), wk =   0.0937500
        k(    8) = (   0.0625000   0.3125000   0.3125000), wk =   0.0468750
        k(    9) = (   0.0625000   0.3125000   0.4375000), wk =   0.0937500
        k(   10) = (   0.0625000   0.4375000   0.4375000), wk =   0.0468750
        k(   11) = (   0.1875000   0.1875000   0.1875000), wk =   0.0156250
        k(   12) = (   0.1875000   0.1875000   0.3125000), wk =   0.0468750
        k(   13) = (   0.1875000   0.1875000   0.4375000), wk =   0.0468750
        k(   14) = (   0.1875000   0.3125000   0.3125000), wk =   0.0468750
        k(   15) = (   0.1875000   0.3125000   0.4375000), wk =   0.0937500
        k(   16) = (   0.1875000   0.4375000   0.4375000), wk =   0.0468750
        k(   17) = (   0.3125000   0.3125000   0.3125000), wk =   0.0156250
        k(   18) = (   0.3125000   0.3125000   0.4375000), wk =   0.0468750
        k(   19) = (   0.3125000   0.4375000   0.4375000), wk =   0.0468750
        k(   20) = (   0.4375000   0.4375000   0.4375000), wk =   0.0156250

     Dense  grid:    63461 G-vectors     FFT dimensions: (  50,  50,  50)

     Smooth grid:    16135 G-vectors     FFT dimensions: (  32,  32,  32)

     Estimated max dynamical RAM per process >      48.55 MB

     Estimated total dynamical RAM >     291.30 MB
     Generating pointlists ...
     new r_m :   0.3572 (alat units)  1.9645 (a.u.) for type    1
     new r_m :   0.3572 (alat units)  1.9645 (a.u.) for type    2

     Check: negative core charge=   -0.000002

     Initial potential from superposition of free atoms

     starting charge   27.99845, renormalised to   28.00000
     Starting wfcs are   20 randomized atomic wfcs

     total cpu time spent up to now is        2.2 secs

     Self-consistent Calculation

     iteration #  1     ecut=    80.00 Ry     beta= 0.70
     Davidson diagonalization with overlap
     ethr =  1.00E-02,  avg # of iterations =  2.5

     Threshold (ethr) on eigenvalues was too large:
     Diagonalizing with lowered threshold

     Davidson diagonalization with overlap
     ethr =  6.61E-04,  avg # of iterations =  2.2

     total cpu time spent up to now is        3.9 secs

     total energy              =    -349.88842805 Ry
     Harris-Foulkes estimate   =    -350.01788110 Ry
     estimated scf accuracy    <       0.19800057 Ry

     total magnetization       =    -0.00 Bohr mag/cell
     absolute magnetization    =     2.13 Bohr mag/cell

     iteration #  2     ecut=    80.00 Ry     beta= 0.70
     Davidson diagonalization with overlap
     ethr =  7.07E-04,  avg # of iterations =  3.1

     total cpu time spent up to now is        5.2 secs

     total energy              =    -349.91669107 Ry
     Harris-Foulkes estimate   =    -350.04871456 Ry
     estimated scf accuracy    <       0.28992485 Ry

     total magnetization       =     0.00 Bohr mag/cell
     absolute magnetization    =     2.70 Bohr mag/cell

     iteration #  3     ecut=    80.00 Ry     beta= 0.70
     Davidson diagonalization with overlap
     ethr =  7.07E-04,  avg # of iterations =  3.0

     total cpu time spent up to now is        6.2 secs

     total energy              =    -349.97593086 Ry
     Harris-Foulkes estimate   =    -349.97643311 Ry
     estimated scf accuracy    <       0.00264148 Ry

     total magnetization       =     0.00 Bohr mag/cell
     absolute magnetization    =     2.41 Bohr mag/cell

     iteration #  4     ecut=    80.00 Ry     beta= 0.70
     Davidson diagonalization with overlap
     ethr =  9.43E-06,  avg # of iterations =  4.0

     total cpu time spent up to now is        7.5 secs

     total energy              =    -349.96997804 Ry
     Harris-Foulkes estimate   =    -349.98459517 Ry
     estimated scf accuracy    <       0.16559697 Ry

     total magnetization       =    -0.01 Bohr mag/cell
     absolute magnetization    =     2.46 Bohr mag/cell

     iteration #  5     ecut=    80.00 Ry     beta= 0.70
     Davidson diagonalization with overlap
     ethr =  9.43E-06,  avg # of iterations =  4.0

     total cpu time spent up to now is        8.7 secs

     total energy              =    -349.97723469 Ry
     Harris-Foulkes estimate   =    -349.97719130 Ry
     estimated scf accuracy    <       0.00007402 Ry

     total magnetization       =     0.00 Bohr mag/cell
     absolute magnetization    =     2.51 Bohr mag/cell

     iteration #  6     ecut=    80.00 Ry     beta= 0.70
     Davidson diagonalization with overlap
     ethr =  2.64E-07,  avg # of iterations =  3.3

     total cpu time spent up to now is        9.6 secs

     total energy              =    -349.97728696 Ry
     Harris-Foulkes estimate   =    -349.97725220 Ry
     estimated scf accuracy    <       0.00005165 Ry

     total magnetization       =     0.00 Bohr mag/cell
     absolute magnetization    =     2.54 Bohr mag/cell

     iteration #  7     ecut=    80.00 Ry     beta= 0.70
     Davidson diagonalization with overlap
     ethr =  1.84E-07,  avg # of iterations =  3.9

     total cpu time spent up to now is       10.6 secs

     total energy              =    -349.97676015 Ry
     Harris-Foulkes estimate   =    -349.97738475 Ry
     estimated scf accuracy    <       0.00004283 Ry

     total magnetization       =     0.00 Bohr mag/cell
     absolute magnetization    =     2.63 Bohr mag/cell

     iteration #  8     ecut=    80.00 Ry     beta= 0.70
     Davidson diagonalization with overlap
     ethr =  1.53E-07,  avg # of iterations =  4.8

     total cpu time spent up to now is       12.0 secs

     total energy              =    -349.97760152 Ry
     Harris-Foulkes estimate   =    -349.97760129 Ry
     estimated scf accuracy    <       0.00000591 Ry

     total magnetization       =    -0.00 Bohr mag/cell
     absolute magnetization    =     2.92 Bohr mag/cell

     iteration #  9     ecut=    80.00 Ry     beta= 0.70
     Davidson diagonalization with overlap
     ethr =  2.11E-08,  avg # of iterations =  3.9

     total cpu time spent up to now is       13.0 secs

     total energy              =    -349.97759570 Ry
     Harris-Foulkes estimate   =    -349.97760860 Ry
     estimated scf accuracy    <       0.00000104 Ry

     total magnetization       =    -0.00 Bohr mag/cell
     absolute magnetization    =     2.94 Bohr mag/cell

     iteration # 10     ecut=    80.00 Ry     beta= 0.70
     Davidson diagonalization with overlap
     ethr =  3.72E-09,  avg # of iterations =  4.6

     Magnetic moment per site:
     atom:    1    charge:   12.2750    magn:    1.3914    constr:    0.0000
     atom:    2    charge:   12.2749    magn:   -1.3914    constr:    0.0000

     total cpu time spent up to now is       14.4 secs

     End of self-consistent calculation

 ------ SPIN UP ------------


          k = 0.0625 0.0625 0.0625 (  2013 PWs)   bands (ev):

   -54.2321 -52.7251 -25.5583 -25.5583 -25.5466 -23.9431 -23.9291 -23.9291
    10.7042  14.3144  14.3144  17.1858  17.1858  17.4052  19.3252  19.3252
    20.2352  20.6309

          k = 0.0625 0.0625 0.1875 (  2003 PWs)   bands (ev):

   -54.2259 -52.7251 -25.5850 -25.5442 -25.5362 -23.9871 -23.9388 -23.9379
    11.3262  14.6190  14.6201  17.0582  17.1140  17.6282  18.9598  19.4913
    19.5410  19.9750

          k = 0.0625 0.0625 0.3125 (  2003 PWs)   bands (ev):

   -54.2171 -52.7251 -25.6202 -25.5241 -25.5240 -24.0505 -23.9528 -23.9488
    12.4449  14.9477  15.1868  17.0062  17.0235  17.7785  18.3372  19.0185
    19.1988  19.7408

          k = 0.0625 0.0625 0.4375 (  2011 PWs)   bands (ev):

   -54.2108 -52.7251 -25.6447 -25.5157 -25.5096 -24.0949 -23.9629 -23.9566
    13.7496  14.7707  15.8699  16.7887  17.1207  17.6788  17.7825  18.6979
    19.0290  19.8823

          k = 0.0625 0.1875 0.1875 (  1999 PWs)   bands (ev):

   -54.2205 -52.7241 -25.5999 -25.5560 -25.5304 -24.0072 -23.9521 -23.9448
    11.8990  14.8108  14.9848  16.7800  16.9446  17.7137  19.0437  19.1166
    19.4025  19.5857

          k = 0.0625 0.1875 0.3125 (  2012 PWs)   bands (ev):

   -54.2128 -52.7227 -25.6346 -25.5640 -25.5180 -24.0424 -23.9664 -23.9514
    12.8917  15.0050  15.5286  16.5952  16.8103  17.3560  18.7427  19.0303
    19.3536  19.6349

          k = 0.0625 0.1875 0.4375 (  2008 PWs)   bands (ev):

   -54.2073 -52.7217 -25.6612 -25.5697 -25.5072 -24.0682 -23.9761 -23.9547
    13.9749  14.7693  16.0373  16.4904  16.8487  17.0240  18.4615  18.8449
    19.6247  20.1518

          k = 0.0625 0.3125 0.3125 (  2007 PWs)   bands (ev):

   -54.2067 -52.7193 -25.6602 -25.6156 -25.5084 -24.0353 -23.9825 -23.9536
    13.5374  14.8031  16.2264  16.3036  16.7612  16.9368  18.8401  19.1818
    19.5229  19.9658

          k = 0.0625 0.3125 0.4375 (  2016 PWs)   bands (ev):

   -54.2024 -52.7169 -25.6853 -25.6455 -25.5012 -24.0338 -23.9924 -23.9532
    14.0626  14.4679  16.1429  16.3351  16.9116  17.4202  18.9533  19.1651
    19.7695  20.6096

          k = 0.0625 0.4375 0.4375 (  2020 PWs)   bands (ev):

   -54.1989 -52.7135 -25.7036 -25.6964 -25.4969 -24.0119 -24.0028 -23.9519
    14.0130  14.2125  15.9155  15.9798  18.0333  18.3943  19.1772  19.4610
    19.4711  20.5041

          k = 0.1875 0.1875 0.1875 (  1992 PWs)   bands (ev):

   -54.2156 -52.7224 -25.5831 -25.5831 -25.5486 -24.0060 -23.9645 -23.9645
    12.4524  15.1722  15.1722  16.6193  16.6193  17.1914  19.2806  19.2806
    19.3128  20.0655

          k = 0.1875 0.1875 0.3125 (  2002 PWs)   bands (ev):

   -54.2088 -52.7200 -25.6307 -25.5653 -25.5589 -24.0295 -23.9827 -23.9669
    13.3822  15.4578  15.4906  16.3801  16.4715  16.7329  19.0619  19.3920
    19.5206  19.9470

          k = 0.1875 0.1875 0.4375 (  2014 PWs)   bands (ev):

   -54.2039 -52.7183 -25.6651 -25.5765 -25.5414 -24.0542 -23.9959 -23.9601
    14.3319  15.0557  15.8360  16.1266  16.5724  16.9389  18.8469  19.0239
    19.4650  20.2380

          k = 0.1875 0.3125 0.3125 (  2011 PWs)   bands (ev):

   -54.2031 -52.7162 -25.6392 -25.6173 -25.5517 -24.0270 -23.9995 -23.9801
    14.0791  15.2528  16.0400  16.2003  16.2938  16.4570  19.2293  19.3719
    19.4882  20.1748

          k = 0.1875 0.3125 0.4375 (  2010 PWs)   bands (ev):

   -54.1991 -52.7135 -25.6722 -25.6322 -25.5407 -24.0379 -24.0146 -23.9740
    14.5319  14.9350  15.9042  16.0637  16.6047  17.0695  19.1238  19.3358
    19.4442  20.2409

          k = 0.1875 0.4375 0.4375 (  2027 PWs)   bands (ev):

   -54.1957 -52.7101 -25.6795 -25.6762 -25.5329 -24.0302 -24.0232 -23.9851
    14.4425  14.7444  15.8001  15.8357  17.5344  17.5698  19.1715  19.2101
    19.6482  20.2619

          k = 0.3125 0.3125 0.3125 (  2016 PWs)   bands (ev):

   -54.1980 -52.7118 -25.6234 -25.6087 -25.6087 -24.0243 -24.0243 -24.0089
    14.8587  15.6721  15.8166  15.8166  16.2281  16.2281  19.3402  19.3402
    19.8280  19.8280

          k = 0.3125 0.3125 0.4375 (  2019 PWs)   bands (ev):

   -54.1944 -52.7087 -25.6561 -25.6204 -25.5864 -24.0455 -24.0424 -24.0060
    15.0326  15.5060  15.6704  16.0562  16.1595  16.8199  19.2023  19.2354
    19.7405  20.1569

          k = 0.3125 0.4375 0.4375 (  2001 PWs)   bands (ev):

   -54.1911 -52.7053 -25.6472 -25.6440 -25.5834 -24.0571 -24.0531 -24.0314
    15.0508  15.5416  15.6573  15.7675  16.8176  16.8933  19.1102  19.1761
    19.9664  20.2403

          k = 0.4375 0.4375 0.4375 (  1977 PWs)   bands (ev):

   -54.1878 -52.7018 -25.6268 -25.6181 -25.6181 -24.0751 -24.0751 -24.0654
    15.4153  15.5772  15.5772  16.4328  16.4870  16.4870  19.0906  19.0906
    20.2485  20.2485

 ------ SPIN DOWN ----------


          k = 0.0625 0.0625 0.0625 (  2013 PWs)   bands (ev):

   -54.2320 -52.7253 -25.5582 -25.5582 -25.5465 -23.9431 -23.9292 -23.9292
    10.7042  14.3144  14.3144  17.1858  17.1858  17.4053  19.3252  19.3252
    20.2351  20.6309

          k = 0.0625 0.0625 0.1875 (  2003 PWs)   bands (ev):

   -54.2258 -52.7252 -25.5849 -25.5442 -25.5361 -23.9872 -23.9389 -23.9380
    11.3262  14.6190  14.6201  17.0582  17.1140  17.6283  18.9598  19.4913
    19.5409  19.9750

          k = 0.0625 0.0625 0.3125 (  2003 PWs)   bands (ev):

   -54.2169 -52.7252 -25.6202 -25.5240 -25.5239 -24.0506 -23.9529 -23.9489
    12.4449  14.9477  15.1868  17.0062  17.0235  17.7785  18.3372  19.0185
    19.1988  19.7408

          k = 0.0625 0.0625 0.4375 (  2011 PWs)   bands (ev):

   -54.2107 -52.7253 -25.6447 -25.5156 -25.5095 -24.0950 -23.9630 -23.9567
    13.7496  14.7707  15.8699  16.7888  17.1207  17.6788  17.7825  18.6979
    19.0290  19.8822

          k = 0.0625 0.1875 0.1875 (  1999 PWs)   bands (ev):

   -54.2204 -52.7242 -25.5999 -25.5559 -25.5303 -24.0073 -23.9521 -23.9449
    11.8990  14.8108  14.9849  16.7800  16.9446  17.7138  19.0437  19.1165
    19.4025  19.5857

          k = 0.0625 0.1875 0.3125 (  2012 PWs)   bands (ev):

   -54.2127 -52.7228 -25.6345 -25.5639 -25.5179 -24.0425 -23.9664 -23.9515
    12.8917  15.0050  15.5286  16.5952  16.8104  17.3560  18.7427  19.0302
    19.3536  19.6348

          k = 0.0625 0.1875 0.4375 (  2008 PWs)   bands (ev):

   -54.2072 -52.7219 -25.6611 -25.5697 -25.5071 -24.0683 -23.9762 -23.9548
    13.9749  14.7693  16.0373  16.4905  16.8487  17.0240  18.4615  18.8449
    19.6247  20.1518

          k = 0.0625 0.3125 0.3125 (  2007 PWs)   bands (ev):

   -54.2066 -52.7194 -25.6601 -25.6156 -25.5083 -24.0354 -23.9826 -23.9537
    13.5374  14.8031  16.2264  16.3036  16.7612  16.9369  18.8401  19.1818
    19.5229  19.9657

          k = 0.0625 0.3125 0.4375 (  2016 PWs)   bands (ev):

   -54.2023 -52.7170 -25.6852 -25.6454 -25.5011 -24.0339 -23.9925 -23.9532
    14.0626  14.4679  16.1429  16.3351  16.9116  17.4202  18.9533  19.1651
    19.7695  20.6096

          k = 0.0625 0.4375 0.4375 (  2020 PWs)   bands (ev):

   -54.1988 -52.7136 -25.7035 -25.6963 -25.4968 -24.0120 -24.0029 -23.9520
    14.0130  14.2125  15.9155  15.9798  18.0333  18.3943  19.1772  19.4610
    19.4711  20.5040

          k = 0.1875 0.1875 0.1875 (  1992 PWs)   bands (ev):

   -54.2155 -52.7225 -25.5831 -25.5831 -25.5486 -24.0061 -23.9646 -23.9646
    12.4524  15.1723  15.1723  16.6193  16.6193  17.1914  19.2806  19.2806
    19.3128  20.0655

          k = 0.1875 0.1875 0.3125 (  2002 PWs)   bands (ev):

   -54.2086 -52.7201 -25.6306 -25.5653 -25.5588 -24.0296 -23.9828 -23.9670
    13.3822  15.4578  15.4906  16.3801  16.4715  16.7330  19.0619  19.3920
    19.5206  19.9469

          k = 0.1875 0.1875 0.4375 (  2014 PWs)   bands (ev):

   -54.2038 -52.7185 -25.6650 -25.5764 -25.5413 -24.0543 -23.9960 -23.9602
    14.3319  15.0557  15.8360  16.1266  16.5724  16.9389  18.8469  19.0238
    19.4650  20.2380

          k = 0.1875 0.3125 0.3125 (  2011 PWs)   bands (ev):

   -54.2030 -52.7163 -25.6391 -25.6172 -25.5517 -24.0271 -23.9996 -23.9802
    14.0791  15.2528  16.0400  16.2003  16.2938  16.4570  19.2293  19.3719
    19.4882  20.1748

          k = 0.1875 0.3125 0.4375 (  2010 PWs)   bands (ev):

   -54.1990 -52.7136 -25.6722 -25.6321 -25.5406 -24.0380 -24.0147 -23.9741
    14.5319  14.9350  15.9042  16.0637  16.6047  17.0695  19.1238  19.3358
    19.4443  20.2408

          k = 0.1875 0.4375 0.4375 (  2027 PWs)   bands (ev):

   -54.1955 -52.7102 -25.6794 -25.6762 -25.5329 -24.0303 -24.0233 -23.9852
    14.4425  14.7444  15.8001  15.8357  17.5344  17.5698  19.1715  19.2101
    19.6482  20.2618

          k = 0.3125 0.3125 0.3125 (  2016 PWs)   bands (ev):

   -54.1979 -52.7119 -25.6234 -25.6086 -25.6086 -24.0244 -24.0244 -24.0090
    14.8587  15.6721  15.8167  15.8167  16.2281  16.2281  19.3403  19.3403
    19.8279  19.8279

          k = 0.3125 0.3125 0.4375 (  2019 PWs)   bands (ev):

   -54.1943 -52.7088 -25.6560 -25.6204 -25.5863 -24.0456 -24.0425 -24.0061
    15.0326  15.5059  15.6704  16.0562  16.1595  16.8198  19.2023  19.2354
    19.7404  20.1568

          k = 0.3125 0.4375 0.4375 (  2001 PWs)   bands (ev):

   -54.1909 -52.7054 -25.6471 -25.6440 -25.5833 -24.0572 -24.0532 -24.0315
    15.0508  15.5416  15.6573  15.7675  16.8176  16.8933  19.1103  19.1762
    19.9664  20.2403

          k = 0.4375 0.4375 0.4375 (  1977 PWs)   bands (ev):

   -54.1877 -52.7020 -25.6268 -25.6181 -25.6181 -24.0751 -24.0751 -24.0654
    15.4153  15.5772  15.5772  16.4328  16.4869  16.4869  19.0906  19.0906
    20.2484  20.2484

     the Fermi energy is    18.1736 ev

!    total energy              =    -349.97761447 Ry
     Harris-Foulkes estimate   =    -349.97761441 Ry
     estimated scf accuracy    <       0.00000003 Ry

     The total energy is the sum of the following terms:

     one-electron contribution =    -121.56581055 Ry
     hartree contribution      =      75.53671995 Ry
     xc contribution           =     -44.55746777 Ry
     ewald contribution        =    -259.42040003 Ry
     smearing contrib. (-TS)   =       0.02934393 Ry

     total magnetization       =     0.00 Bohr mag/cell
     absolute magnetization    =     2.98 Bohr mag/cell

     convergence has been achieved in  10 iterations

     Writing output data file degauss-0.07.save/

     init_run     :      0.74s CPU      0.77s WALL (       1 calls)
     electrons    :     11.89s CPU     12.11s WALL (       1 calls)

     Called by init_run:
     wfcinit      :      0.24s CPU      0.25s WALL (       1 calls)
     potinit      :      0.09s CPU      0.09s WALL (       1 calls)
     hinit0       :      0.31s CPU      0.31s WALL (       1 calls)

     Called by electrons:
     c_bands      :      8.76s CPU      8.95s WALL (      11 calls)
     sum_band     :      2.08s CPU      2.11s WALL (      11 calls)
     v_of_rho     :      0.38s CPU      0.39s WALL (      11 calls)
     newd         :      0.67s CPU      0.69s WALL (      11 calls)
     mix_rho      :      0.03s CPU      0.03s WALL (      11 calls)

     Called by c_bands:
     init_us_2    :      0.12s CPU      0.12s WALL (     920 calls)
     cegterg      :      8.28s CPU      8.47s WALL (     440 calls)

     Called by sum_band:
     sum_band:bec :      0.01s CPU      0.01s WALL (     440 calls)
     addusdens    :      1.08s CPU      1.08s WALL (      11 calls)

     Called by *egterg:
     h_psi        :      4.32s CPU      4.43s WALL (    2050 calls)
     s_psi        :      0.48s CPU      0.50s WALL (    2050 calls)
     g_psi        :      0.04s CPU      0.05s WALL (    1570 calls)
     cdiaghg      :      1.26s CPU      1.28s WALL (    1970 calls)

     Called by h_psi:
     h_psi:pot    :      4.30s CPU      4.41s WALL (    2050 calls)
     h_psi:calbec :      0.65s CPU      0.66s WALL (    2050 calls)
     vloc_psi     :      3.17s CPU      3.25s WALL (    2050 calls)
     add_vuspsi   :      0.48s CPU      0.50s WALL (    2050 calls)

     General routines
     calbec       :      0.85s CPU      0.87s WALL (    2490 calls)
     fft          :      0.17s CPU      0.18s WALL (     271 calls)
     ffts         :      0.01s CPU      0.01s WALL (      44 calls)
     fftw         :      3.22s CPU      3.30s WALL (   54314 calls)
     interpolate  :      0.02s CPU      0.02s WALL (      22 calls)

     Parallel routines
     fft_scatt_xy :      0.44s CPU      0.45s WALL (   54629 calls)
     fft_scatt_yz :      1.67s CPU      1.72s WALL (   54629 calls)

     PWSCF        :     14.15s CPU     14.44s WALL


   This run was terminated on:  23: 7:18   9Mar2022            

=------------------------------------------------------------------------------=
   JOB DONE.
=------------------------------------------------------------------------------=
