
     Program PWSCF v.6.4.1 starts on  8Sep2022 at  0:34:38 

     This program is part of the open-source Quantum ESPRESSO suite
     for quantum simulation of materials; please cite
         "P. Giannozzi et al., J. Phys.:Condens. Matter 21 395502 (2009);
         "P. Giannozzi et al., J. Phys.:Condens. Matter 29 465901 (2017);
          URL http://www.quantum-espresso.org", 
     in publications or presentations arising from this work. More details at
     http://www.quantum-espresso.org/quote

     Parallel version (MPI), running on     6 processors

     MPI processes distributed on     1 nodes
     R & G space division:  proc/nbgrp/npool/nimage =       6
     Reading input from distance-4.0.in

     Current dimensions of program PWSCF are:
     Max number of different atomic species (ntypx) = 10
     Max number of k-points (npk) =  40000
     Max angular momentum in pseudopotentials (lmaxx) =  3

     IMPORTANT: XC functional enforced from input :
     Exchange-correlation      = RVV10 ( 1  4 13  4 3 0)
     Any further DFT definition will be discarded
     Please, verify this is what you really want

               file H.pbe-rrkjus.UPF: wavefunction(s)  1S renormalized
               file Cu.pbe-dn-rrkjus_psl.1.0.0.UPF: wavefunction(s)  3D renormalized

     Subspace diagonalization in iterative solution of the eigenvalue problem:
     a serial algorithm will be used


     Parallelization info
     --------------------
     sticks:   dense  smooth     PW     G-vecs:    dense   smooth      PW
     Min        3051    1746    432               270999   117096   14629
     Max        3053    1747    437               271001   117099   14630
     Sum       18313   10477   2611              1626001   702581   87777



     bravais-lattice index     =            4
     lattice parameter (alat)  =      23.2937  a.u.
     unit-cell volume          =    8879.8548 (a.u.)^3
     number of atoms/cell      =           52
     number of atomic types    =            3
     number of electrons       =       209.00
     number of Kohn-Sham states=          126
     kinetic-energy cutoff     =      70.0000  Ry
     charge density cutoff     =     490.0000  Ry
     convergence threshold     =      1.0E-06
     mixing beta               =       0.7000
     number of iterations used =            8  plain     mixing
     Exchange-correlation      = RVV10 ( 1  4 13  4 3 0)

     celldm(1)=  23.293684  celldm(2)=   0.000000  celldm(3)=   0.811261
     celldm(4)=   0.000000  celldm(5)=   0.000000  celldm(6)=   0.000000

     crystal axes: (cart. coord. in units of alat)
               a(1) = (   1.000000   0.000000   0.000000 )  
               a(2) = (  -0.500000   0.866025   0.000000 )  
               a(3) = (   0.000000   0.000000   0.811261 )  

     reciprocal axes: (cart. coord. in units 2 pi/alat)
               b(1) = (  1.000000  0.577350 -0.000000 )  
               b(2) = (  0.000000  1.154701  0.000000 )  
               b(3) = (  0.000000 -0.000000  1.232649 )  


     PseudoPot. # 1 for H  read from file:
     /home/cristian/Escritorio/Proyecto_Grafeno/pseudopotenciales/H.pbe-rrkjus.UPF
     MD5 check sum: 7cc9d459525c9a0585f487a71c3c9563
     Pseudo is Ultrasoft, Zval =  1.0
     Generated by new atomic code, or converted to UPF format
     Using radial grid of 1061 points,  2 beta functions with: 
                l(1) =   0
                l(2) =   0
     Q(r) pseudized with 0 coefficients 


     PseudoPot. # 2 for C  read from file:
     /home/cristian/Escritorio/Proyecto_Grafeno/pseudopotenciales/C.pbe-n-rrkjus_psl.1.0.0.UPF
     MD5 check sum: 1fdd950c42eb37d8afe3dd2f8d12311e
     Pseudo is Ultrasoft + core correction, Zval =  4.0
     Generated using "atomic" code by A. Dal Corso v.6.3MaX
     Using radial grid of 1073 points,  4 beta functions with: 
                l(1) =   0
                l(2) =   0
                l(3) =   1
                l(4) =   1
     Q(r) pseudized with 0 coefficients 


     PseudoPot. # 3 for Cu read from file:
     /home/cristian/Escritorio/Proyecto_Grafeno/pseudopotenciales/Cu.pbe-dn-rrkjus_psl.1.0.0.UPF
     MD5 check sum: ba3d6c84e19846e79d48cdc68ff7152b
     Pseudo is Ultrasoft + core correction, Zval = 11.0
     Generated using "atomic" code by A. Dal Corso v.6.3
     Using radial grid of 1199 points,  6 beta functions with: 
                l(1) =   0
                l(2) =   0
                l(3) =   1
                l(4) =   1
                l(5) =   2
                l(6) =   2
     Q(r) pseudized with 0 coefficients 


     vdW kernel table read from file rVV10_kernel_table
     MD5 check sum: b8e2538accc0c0b3206b45ba4daaba6c

     atomic species   valence    mass     pseudopotential
        H              1.00     1.00794     H ( 1.00)
        C              4.00    12.01070     C ( 1.00)
        Cu            11.00    63.54600     Cu( 1.00)

     Starting magnetic structure 
     atomic species   magnetization
        H            0.500
        C            0.300
        Cu           0.800

     No symmetry found


                                    s                        frac. trans.

      isym =  1     identity                                     

 cryst.   s( 1) = (     1          0          0      )
                  (     0          1          0      )
                  (     0          0          1      )

 cart.    s( 1) = (  1.0000000  0.0000000  0.0000000 )
                  (  0.0000000  1.0000000  0.0000000 )
                  (  0.0000000  0.0000000  1.0000000 )


     point group C_1 (1)    
     there are  1 classes
     the character table:

       E    
A      1.00

     the symmetry operations in each class and the name of the first element:

     E        1
          identity                                               

   Cartesian axes

     site n.     atom                  positions (alat units)
         1           H   tau(   1) = (   0.2194937   0.4330127   0.3245045  )
         2           H   tau(   2) = (   0.2805063   0.4330127   0.3245045  )
         3           C   tau(   3) = (   0.0000000   0.0000000   0.0000000  )
         4           C   tau(   4) = (   0.0000000   0.1154701   0.0000000  )
         5           C   tau(   5) = (  -0.1000000   0.1732051   0.0000000  )
         6           C   tau(   6) = (  -0.1000000   0.2886751   0.0000000  )
         7           C   tau(   7) = (  -0.2000000   0.3464102   0.0000000  )
         8           C   tau(   8) = (  -0.2000000   0.4618802   0.0000000  )
         9           C   tau(   9) = (  -0.3000000   0.5196152   0.0000000  )
        10           C   tau(  10) = (  -0.3000000   0.6350853   0.0000000  )
        11           C   tau(  11) = (  -0.4000000   0.6928203   0.0000000  )
        12           C   tau(  12) = (  -0.4000000   0.8082904   0.0000000  )
        13           C   tau(  13) = (   0.2000000   0.0000000   0.0000000  )
        14           C   tau(  14) = (   0.2000000   0.1154701   0.0000000  )
        15           C   tau(  15) = (   0.1000000   0.1732051   0.0000000  )
        16           C   tau(  16) = (   0.1000000   0.2886751   0.0000000  )
        17           C   tau(  17) = (   0.0000000   0.3464102   0.0000000  )
        18           C   tau(  18) = (   0.0000000   0.4618802   0.0000000  )
        19           C   tau(  19) = (  -0.1000000   0.5196152   0.0000000  )
        20           C   tau(  20) = (  -0.1000000   0.6350853   0.0000000  )
        21           C   tau(  21) = (  -0.2000000   0.6928203   0.0000000  )
        22           C   tau(  22) = (  -0.2000000   0.8082904   0.0000000  )
        23           C   tau(  23) = (   0.4000000   0.0000000   0.0000000  )
        24           C   tau(  24) = (   0.4000000   0.1154701   0.0000000  )
        25           C   tau(  25) = (   0.3000000   0.1732051   0.0000000  )
        26           C   tau(  26) = (   0.3000000   0.2886751   0.0000000  )
        27           C   tau(  27) = (   0.2000000   0.3464102   0.0000000  )
        28           Cu  tau(  28) = (   0.2000000   0.4618802   0.0000000  )
        29           C   tau(  29) = (   0.1000000   0.5196152   0.0000000  )
        30           C   tau(  30) = (   0.1000000   0.6350853   0.0000000  )
        31           C   tau(  31) = (   0.0000000   0.6928203   0.0000000  )
        32           C   tau(  32) = (   0.0000000   0.8082904   0.0000000  )
        33           C   tau(  33) = (   0.6000000   0.0000000   0.0000000  )
        34           C   tau(  34) = (   0.6000000   0.1154701   0.0000000  )
        35           C   tau(  35) = (   0.5000000   0.1732051   0.0000000  )
        36           C   tau(  36) = (   0.5000000   0.2886751   0.0000000  )
        37           C   tau(  37) = (   0.4000000   0.3464102   0.0000000  )
        38           C   tau(  38) = (   0.4000000   0.4618802   0.0000000  )
        39           C   tau(  39) = (   0.3000000   0.5196152   0.0000000  )
        40           C   tau(  40) = (   0.3000000   0.6350853   0.0000000  )
        41           C   tau(  41) = (   0.2000000   0.6928203   0.0000000  )
        42           C   tau(  42) = (   0.2000000   0.8082904   0.0000000  )
        43           C   tau(  43) = (   0.8000000   0.0000000   0.0000000  )
        44           C   tau(  44) = (   0.8000000   0.1154701   0.0000000  )
        45           C   tau(  45) = (   0.7000000   0.1732051   0.0000000  )
        46           C   tau(  46) = (   0.7000000   0.2886751   0.0000000  )
        47           C   tau(  47) = (   0.6000000   0.3464102   0.0000000  )
        48           C   tau(  48) = (   0.6000000   0.4618802   0.0000000  )
        49           C   tau(  49) = (   0.5000000   0.5196152   0.0000000  )
        50           C   tau(  50) = (   0.5000000   0.6350853   0.0000000  )
        51           C   tau(  51) = (   0.4000000   0.6928203   0.0000000  )
        52           C   tau(  52) = (   0.4000000   0.8082904   0.0000000  )

   Crystallographic axes

     site n.     atom                  positions (cryst. coord.)
         1           H   tau(   1) = (  0.4694937  0.5000000  0.4000000  )
         2           H   tau(   2) = (  0.5305063  0.5000000  0.4000000  )
         3           C   tau(   3) = (  0.0000000  0.0000000  0.0000000  )
         4           C   tau(   4) = (  0.0666667  0.1333333  0.0000000  )
         5           C   tau(   5) = (  0.0000000  0.2000000  0.0000000  )
         6           C   tau(   6) = (  0.0666667  0.3333333  0.0000000  )
         7           C   tau(   7) = (  0.0000000  0.4000000  0.0000000  )
         8           C   tau(   8) = (  0.0666667  0.5333333  0.0000000  )
         9           C   tau(   9) = (  0.0000000  0.6000000  0.0000000  )
        10           C   tau(  10) = (  0.0666667  0.7333333  0.0000000  )
        11           C   tau(  11) = (  0.0000000  0.8000000  0.0000000  )
        12           C   tau(  12) = (  0.0666667  0.9333333  0.0000000  )
        13           C   tau(  13) = (  0.2000000  0.0000000  0.0000000  )
        14           C   tau(  14) = (  0.2666667  0.1333333  0.0000000  )
        15           C   tau(  15) = (  0.2000000  0.2000000  0.0000000  )
        16           C   tau(  16) = (  0.2666667  0.3333333  0.0000000  )
        17           C   tau(  17) = (  0.2000000  0.4000000  0.0000000  )
        18           C   tau(  18) = (  0.2666667  0.5333333  0.0000000  )
        19           C   tau(  19) = (  0.2000000  0.6000000  0.0000000  )
        20           C   tau(  20) = (  0.2666667  0.7333333  0.0000000  )
        21           C   tau(  21) = (  0.2000000  0.8000000  0.0000000  )
        22           C   tau(  22) = (  0.2666667  0.9333333  0.0000000  )
        23           C   tau(  23) = (  0.4000000  0.0000000  0.0000000  )
        24           C   tau(  24) = (  0.4666667  0.1333333  0.0000000  )
        25           C   tau(  25) = (  0.4000000  0.2000000  0.0000000  )
        26           C   tau(  26) = (  0.4666667  0.3333333  0.0000000  )
        27           C   tau(  27) = (  0.4000000  0.4000000  0.0000000  )
        28           Cu  tau(  28) = (  0.4666667  0.5333333  0.0000000  )
        29           C   tau(  29) = (  0.4000000  0.6000000  0.0000000  )
        30           C   tau(  30) = (  0.4666667  0.7333333  0.0000000  )
        31           C   tau(  31) = (  0.4000000  0.8000000  0.0000000  )
        32           C   tau(  32) = (  0.4666667  0.9333333  0.0000000  )
        33           C   tau(  33) = (  0.6000000  0.0000000  0.0000000  )
        34           C   tau(  34) = (  0.6666667  0.1333333  0.0000000  )
        35           C   tau(  35) = (  0.6000000  0.2000000  0.0000000  )
        36           C   tau(  36) = (  0.6666667  0.3333333  0.0000000  )
        37           C   tau(  37) = (  0.6000000  0.4000000  0.0000000  )
        38           C   tau(  38) = (  0.6666667  0.5333333  0.0000000  )
        39           C   tau(  39) = (  0.6000000  0.6000000  0.0000000  )
        40           C   tau(  40) = (  0.6666667  0.7333333  0.0000000  )
        41           C   tau(  41) = (  0.6000000  0.8000000  0.0000000  )
        42           C   tau(  42) = (  0.6666667  0.9333333  0.0000000  )
        43           C   tau(  43) = (  0.8000000  0.0000000  0.0000000  )
        44           C   tau(  44) = (  0.8666667  0.1333333  0.0000000  )
        45           C   tau(  45) = (  0.8000000  0.2000000  0.0000000  )
        46           C   tau(  46) = (  0.8666667  0.3333333  0.0000000  )
        47           C   tau(  47) = (  0.8000000  0.4000000  0.0000000  )
        48           C   tau(  48) = (  0.8666667  0.5333333  0.0000000  )
        49           C   tau(  49) = (  0.8000000  0.6000000  0.0000000  )
        50           C   tau(  50) = (  0.8666667  0.7333333  0.0000000  )
        51           C   tau(  51) = (  0.8000000  0.8000000  0.0000000  )
        52           C   tau(  52) = (  0.8666667  0.9333333  0.0000000  )

     number of k points=     1  Marzari-Vanderbilt smearing, width (Ry)=  0.0010
                       cart. coord. in units 2pi/alat
        k(    1) = (   0.0000000   0.0000000   0.0000000), wk =   1.0000000

                       cryst. coord.
        k(    1) = (   0.0000000   0.0000000   0.0000000), wk =   1.0000000

     Dense  grid:  1626001 G-vectors     FFT dimensions: ( 180, 180, 135)

     Smooth grid:   702581 G-vectors     FFT dimensions: ( 125, 125, 108)

     Dynamical RAM for                 wfc:      28.14 MB

     Dynamical RAM for     wfc (w. buffer):      84.42 MB

     Dynamical RAM for           str. fact:      12.41 MB

     Dynamical RAM for           local pot:       0.00 MB

     Dynamical RAM for          nlocal pot:      92.46 MB

     Dynamical RAM for                qrad:      19.73 MB

     Dynamical RAM for          rho,v,vnew:      58.92 MB

     Dynamical RAM for               rhoin:      19.64 MB

     Dynamical RAM for            rho*nmix:     132.32 MB

     Dynamical RAM for           G-vectors:      16.40 MB

     Dynamical RAM for          h,s,v(r/c):      11.63 MB

     Dynamical RAM for          <psi|beta>:       0.80 MB

     Dynamical RAM for                 psi:     112.56 MB

     Dynamical RAM for                hpsi:     112.56 MB

     Dynamical RAM for                spsi:     112.56 MB

     Dynamical RAM for      wfcinit/wfcrot:      93.45 MB

     Dynamical RAM for           addusdens:     975.89 MB

     Estimated static dynamical RAM per process >     486.96 MB

     Estimated max dynamical RAM per process >       1.43 GB

     Estimated total dynamical RAM >       8.57 GB
     Generating pointlists ...
     new r_m :   0.0252 (alat units)  0.5862 (a.u.) for type    1
     new r_m :   0.0476 (alat units)  1.1095 (a.u.) for type    2
     new r_m :   0.0476 (alat units)  1.1095 (a.u.) for type    3

     Check: negative core charge=   -0.000002

     Initial potential from superposition of free atoms

     starting charge  208.80532, renormalised to  209.00000

     negative rho (up, down):  5.478E-05 8.309E-03


---------------------------------------------------------------------------------
Carrying out rVV10 run using the following parameters:
Nqs =      20    Nr_points =    1024   r_max =   100.000
b_value =  6.30000    beta =  0.00901
     q_mesh =  0.00010000  0.00030000  0.00058939  0.00100810
               0.00161396  0.00249058  0.00375900  0.00559430
               0.00824984  0.01209221  0.01765183  0.02569619
               0.03733578  0.05417739  0.07854596  0.11380545
               0.16482331  0.23864234  0.34545298  0.50000000

Gradients computed in Reciprocal space

---------------------------------------------------------------------------------


     Starting wfcs are  207 randomized atomic wfcs

     total cpu time spent up to now is       76.1 secs

     Self-consistent Calculation

     iteration #  1     ecut=    70.00 Ry     beta= 0.70
     Davidson diagonalization with overlap
     ethr =  1.00E-02,  avg # of iterations =  6.0

     negative rho (up, down):  1.167E-04 8.699E-03

     total cpu time spent up to now is      218.6 secs

     total energy              =    -727.02277686 Ry
     Harris-Foulkes estimate   =    -734.94310015 Ry
     estimated scf accuracy    <      14.67504052 Ry

     total magnetization       =     7.00 Bohr mag/cell
     absolute magnetization    =     7.39 Bohr mag/cell

     iteration #  2     ecut=    70.00 Ry     beta= 0.70
     Davidson diagonalization with overlap
     ethr =  7.02E-03,  avg # of iterations =  3.0

     negative rho (up, down):  1.011E-04 1.141E-02

     total cpu time spent up to now is      353.0 secs

     total energy              =    -727.87118260 Ry
     Harris-Foulkes estimate   =    -745.65641256 Ry
     estimated scf accuracy    <      47.13725027 Ry

     total magnetization       =     3.00 Bohr mag/cell
     absolute magnetization    =     3.26 Bohr mag/cell

     iteration #  3     ecut=    70.00 Ry     beta= 0.70
     Davidson diagonalization with overlap
     ethr =  7.02E-03,  avg # of iterations =  4.0

     negative rho (up, down):  1.267E-04 1.045E-02

     total cpu time spent up to now is      472.6 secs

     total energy              =    -732.06620103 Ry
     Harris-Foulkes estimate   =    -736.26224626 Ry
     estimated scf accuracy    <      11.88174514 Ry

     total magnetization       =     2.99 Bohr mag/cell
     absolute magnetization    =     3.22 Bohr mag/cell

     iteration #  4     ecut=    70.00 Ry     beta= 0.70
     Davidson diagonalization with overlap
     ethr =  5.69E-03,  avg # of iterations =  3.0

     negative rho (up, down):  2.001E-04 7.513E-03

     total cpu time spent up to now is      584.5 secs

     total energy              =    -733.73429705 Ry
     Harris-Foulkes estimate   =    -734.98891996 Ry
     estimated scf accuracy    <       5.41595333 Ry

     total magnetization       =     3.00 Bohr mag/cell
     absolute magnetization    =     3.18 Bohr mag/cell

     iteration #  5     ecut=    70.00 Ry     beta= 0.70
     Davidson diagonalization with overlap
     ethr =  2.59E-03,  avg # of iterations =  3.0

     negative rho (up, down):  2.269E-04 1.096E-02

     total cpu time spent up to now is      688.0 secs

     total energy              =    -734.31114255 Ry
     Harris-Foulkes estimate   =    -735.09388904 Ry
     estimated scf accuracy    <       3.75044844 Ry

     total magnetization       =     1.00 Bohr mag/cell
     absolute magnetization    =     1.44 Bohr mag/cell

     iteration #  6     ecut=    70.00 Ry     beta= 0.70
     Davidson diagonalization with overlap
     ethr =  1.79E-03,  avg # of iterations =  2.0

     negative rho (up, down):  3.060E-04 1.570E-02

     total cpu time spent up to now is      787.5 secs

     total energy              =    -734.70000638 Ry
     Harris-Foulkes estimate   =    -734.76355141 Ry
     estimated scf accuracy    <       0.17895810 Ry

     total magnetization       =     1.00 Bohr mag/cell
     absolute magnetization    =     1.38 Bohr mag/cell

     iteration #  7     ecut=    70.00 Ry     beta= 0.70
     Davidson diagonalization with overlap
     ethr =  8.56E-05,  avg # of iterations =  6.5

     negative rho (up, down):  4.346E-04 1.111E-02

     total cpu time spent up to now is      911.6 secs

     total energy              =    -734.72097737 Ry
     Harris-Foulkes estimate   =    -734.80381942 Ry
     estimated scf accuracy    <       0.29554782 Ry

     total magnetization       =     1.00 Bohr mag/cell
     absolute magnetization    =     1.26 Bohr mag/cell

     iteration #  8     ecut=    70.00 Ry     beta= 0.70
     Davidson diagonalization with overlap
     ethr =  8.56E-05,  avg # of iterations =  6.0

     negative rho (up, down):  5.104E-04 5.056E-03

     total cpu time spent up to now is     1018.2 secs

     total energy              =    -734.74968900 Ry
     Harris-Foulkes estimate   =    -734.76360974 Ry
     estimated scf accuracy    <       0.05103717 Ry

     total magnetization       =     1.00 Bohr mag/cell
     absolute magnetization    =     1.21 Bohr mag/cell

     iteration #  9     ecut=    70.00 Ry     beta= 0.70
     Davidson diagonalization with overlap
     ethr =  2.44E-05,  avg # of iterations =  3.5

     negative rho (up, down):  5.609E-04 2.981E-03

     total cpu time spent up to now is     1130.4 secs

     total energy              =    -734.75737483 Ry
     Harris-Foulkes estimate   =    -734.76113858 Ry
     estimated scf accuracy    <       0.04730732 Ry

     total magnetization       =     1.00 Bohr mag/cell
     absolute magnetization    =     1.17 Bohr mag/cell

     iteration # 10     ecut=    70.00 Ry     beta= 0.70
     Davidson diagonalization with overlap
     ethr =  2.26E-05,  avg # of iterations =  1.0

     negative rho (up, down):  5.849E-04 2.364E-03

     total cpu time spent up to now is     1226.5 secs

     total energy              =    -734.75800624 Ry
     Harris-Foulkes estimate   =    -734.75910683 Ry
     estimated scf accuracy    <       0.00351932 Ry

     total magnetization       =     1.00 Bohr mag/cell
     absolute magnetization    =     1.14 Bohr mag/cell

     iteration # 11     ecut=    70.00 Ry     beta= 0.70
     Davidson diagonalization with overlap
     ethr =  1.68E-06,  avg # of iterations =  4.0

     negative rho (up, down):  5.866E-04 2.460E-03

     total cpu time spent up to now is     1340.9 secs

     total energy              =    -734.75853014 Ry
     Harris-Foulkes estimate   =    -734.75900695 Ry
     estimated scf accuracy    <       0.00463830 Ry

     total magnetization       =     1.00 Bohr mag/cell
     absolute magnetization    =     1.11 Bohr mag/cell

     iteration # 12     ecut=    70.00 Ry     beta= 0.70
     Davidson diagonalization with overlap
     ethr =  1.68E-06,  avg # of iterations =  1.5

     negative rho (up, down):  5.882E-04 2.980E-03

     total cpu time spent up to now is     1433.4 secs

     total energy              =    -734.75842643 Ry
     Harris-Foulkes estimate   =    -734.75939939 Ry
     estimated scf accuracy    <       0.01896456 Ry

     total magnetization       =     1.00 Bohr mag/cell
     absolute magnetization    =     1.12 Bohr mag/cell

     iteration # 13     ecut=    70.00 Ry     beta= 0.70
     Davidson diagonalization with overlap
     ethr =  1.68E-06,  avg # of iterations =  1.0

     negative rho (up, down):  5.863E-04 1.869E-03

     total cpu time spent up to now is     1525.3 secs

     total energy              =    -734.75889108 Ry
     Harris-Foulkes estimate   =    -734.75890986 Ry
     estimated scf accuracy    <       0.00040130 Ry

     total magnetization       =     1.00 Bohr mag/cell
     absolute magnetization    =     1.10 Bohr mag/cell

     iteration # 14     ecut=    70.00 Ry     beta= 0.70
     Davidson diagonalization with overlap
     ethr =  1.92E-07,  avg # of iterations =  2.0

     negative rho (up, down):  5.788E-04 1.494E-03

     total cpu time spent up to now is     1618.8 secs

     total energy              =    -734.75892719 Ry
     Harris-Foulkes estimate   =    -734.75892411 Ry
     estimated scf accuracy    <       0.00007422 Ry

     total magnetization       =     1.00 Bohr mag/cell
     absolute magnetization    =     1.08 Bohr mag/cell

     iteration # 15     ecut=    70.00 Ry     beta= 0.70
     Davidson diagonalization with overlap
     ethr =  3.55E-08,  avg # of iterations =  2.5

     negative rho (up, down):  5.798E-04 1.556E-03

     total cpu time spent up to now is     1715.8 secs

     total energy              =    -734.75893561 Ry
     Harris-Foulkes estimate   =    -734.75894135 Ry
     estimated scf accuracy    <       0.00045327 Ry

     total magnetization       =     1.00 Bohr mag/cell
     absolute magnetization    =     1.08 Bohr mag/cell

     iteration # 16     ecut=    70.00 Ry     beta= 0.70
     Davidson diagonalization with overlap
     ethr =  3.55E-08,  avg # of iterations =  1.0

     negative rho (up, down):  5.785E-04 1.530E-03

     total cpu time spent up to now is     1807.7 secs

     total energy              =    -734.75893534 Ry
     Harris-Foulkes estimate   =    -734.75893843 Ry
     estimated scf accuracy    <       0.00022051 Ry

     total magnetization       =     1.00 Bohr mag/cell
     absolute magnetization    =     1.07 Bohr mag/cell

     iteration # 17     ecut=    70.00 Ry     beta= 0.70
     Davidson diagonalization with overlap
     ethr =  3.55E-08,  avg # of iterations =  1.0

     negative rho (up, down):  5.764E-04 1.473E-03

     total cpu time spent up to now is     1899.1 secs

     total energy              =    -734.75893915 Ry
     Harris-Foulkes estimate   =    -734.75893778 Ry
     estimated scf accuracy    <       0.00008028 Ry

     total magnetization       =     1.00 Bohr mag/cell
     absolute magnetization    =     1.07 Bohr mag/cell

     iteration # 18     ecut=    70.00 Ry     beta= 0.70
     Davidson diagonalization with overlap
     ethr =  3.55E-08,  avg # of iterations =  1.5

     negative rho (up, down):  5.752E-04 1.478E-03

     total cpu time spent up to now is     1991.3 secs

     total energy              =    -734.75894094 Ry
     Harris-Foulkes estimate   =    -734.75894182 Ry
     estimated scf accuracy    <       0.00011416 Ry

     total magnetization       =     1.00 Bohr mag/cell
     absolute magnetization    =     1.07 Bohr mag/cell

     iteration # 19     ecut=    70.00 Ry     beta= 0.70
     Davidson diagonalization with overlap
     ethr =  3.55E-08,  avg # of iterations =  1.5

     negative rho (up, down):  5.751E-04 1.476E-03

     total cpu time spent up to now is     2082.9 secs

     total energy              =    -734.75894186 Ry
     Harris-Foulkes estimate   =    -734.75894435 Ry
     estimated scf accuracy    <       0.00003859 Ry

     total magnetization       =     1.00 Bohr mag/cell
     absolute magnetization    =     1.07 Bohr mag/cell

     iteration # 20     ecut=    70.00 Ry     beta= 0.70
     Davidson diagonalization with overlap
     ethr =  1.85E-08,  avg # of iterations =  2.0

     negative rho (up, down):  5.748E-04 1.479E-03

     total cpu time spent up to now is     2175.2 secs

     total energy              =    -734.75894335 Ry
     Harris-Foulkes estimate   =    -734.75894403 Ry
     estimated scf accuracy    <       0.00008404 Ry

     total magnetization       =     1.00 Bohr mag/cell
     absolute magnetization    =     1.07 Bohr mag/cell

     iteration # 21     ecut=    70.00 Ry     beta= 0.70
     Davidson diagonalization with overlap
     ethr =  1.85E-08,  avg # of iterations =  1.5

     negative rho (up, down):  5.749E-04 1.476E-03

     total cpu time spent up to now is     2266.9 secs

     total energy              =    -734.75894410 Ry
     Harris-Foulkes estimate   =    -734.75894415 Ry
     estimated scf accuracy    <       0.00004009 Ry

     total magnetization       =     1.00 Bohr mag/cell
     absolute magnetization    =     1.06 Bohr mag/cell

     iteration # 22     ecut=    70.00 Ry     beta= 0.70
     Davidson diagonalization with overlap
     ethr =  1.85E-08,  avg # of iterations =  1.0

     negative rho (up, down):  5.743E-04 1.481E-03

     total cpu time spent up to now is     2358.4 secs

     total energy              =    -734.75894230 Ry
     Harris-Foulkes estimate   =    -734.75894461 Ry
     estimated scf accuracy    <       0.00003527 Ry

     total magnetization       =     1.00 Bohr mag/cell
     absolute magnetization    =     1.06 Bohr mag/cell

     iteration # 23     ecut=    70.00 Ry     beta= 0.70
     Davidson diagonalization with overlap
     ethr =  1.69E-08,  avg # of iterations =  1.5

     negative rho (up, down):  5.745E-04 1.478E-03

     total cpu time spent up to now is     2451.3 secs

     total energy              =    -734.75894455 Ry
     Harris-Foulkes estimate   =    -734.75894475 Ry
     estimated scf accuracy    <       0.00000315 Ry

     total magnetization       =     1.00 Bohr mag/cell
     absolute magnetization    =     1.06 Bohr mag/cell

     iteration # 24     ecut=    70.00 Ry     beta= 0.70
     Davidson diagonalization with overlap
     ethr =  1.51E-09,  avg # of iterations =  2.0

     negative rho (up, down):  5.746E-04 1.472E-03

     total cpu time spent up to now is     2544.9 secs

     total energy              =    -734.75894417 Ry
     Harris-Foulkes estimate   =    -734.75894486 Ry
     estimated scf accuracy    <       0.00000656 Ry

     total magnetization       =     1.00 Bohr mag/cell
     absolute magnetization    =     1.06 Bohr mag/cell

     iteration # 25     ecut=    70.00 Ry     beta= 0.70
     Davidson diagonalization with overlap
     ethr =  1.51E-09,  avg # of iterations =  2.5

     negative rho (up, down):  5.748E-04 1.468E-03

     total cpu time spent up to now is     2648.8 secs

     total energy              =    -734.75894485 Ry
     Harris-Foulkes estimate   =    -734.75894499 Ry
     estimated scf accuracy    <       0.00000121 Ry

     total magnetization       =     1.00 Bohr mag/cell
     absolute magnetization    =     1.06 Bohr mag/cell

     iteration # 26     ecut=    70.00 Ry     beta= 0.70
     Davidson diagonalization with overlap
     ethr =  5.80E-10,  avg # of iterations =  2.0

     negative rho (up, down):  5.748E-04 1.471E-03

     Magnetic moment per site:
     atom:    1    charge:    0.2116    magn:   -0.0000    constr:    0.0000
     atom:    2    charge:    0.2116    magn:   -0.0000    constr:    0.0000
     atom:    3    charge:    1.7158    magn:    0.0016    constr:    0.0000
     atom:    4    charge:    1.7153    magn:    0.0017    constr:    0.0000
     atom:    5    charge:    1.7170    magn:    0.0000    constr:    0.0000
     atom:    6    charge:    1.7146    magn:   -0.0001    constr:    0.0000
     atom:    7    charge:    1.7170    magn:    0.0000    constr:    0.0000
     atom:    8    charge:    1.7153    magn:    0.0017    constr:    0.0000
     atom:    9    charge:    1.7158    magn:    0.0016    constr:    0.0000
     atom:   10    charge:    1.7170    magn:   -0.0009    constr:    0.0000
     atom:   11    charge:    1.7160    magn:    0.0005    constr:    0.0000
     atom:   12    charge:    1.7170    magn:   -0.0009    constr:    0.0000
     atom:   13    charge:    1.7160    magn:    0.0005    constr:    0.0000
     atom:   14    charge:    1.7169    magn:   -0.0010    constr:    0.0000
     atom:   15    charge:    1.7129    magn:    0.0072    constr:    0.0000
     atom:   16    charge:    1.7108    magn:    0.0132    constr:    0.0000
     atom:   17    charge:    1.7214    magn:    0.0030    constr:    0.0000
     atom:   18    charge:    1.7109    magn:    0.0133    constr:    0.0000
     atom:   19    charge:    1.7131    magn:    0.0073    constr:    0.0000
     atom:   20    charge:    1.7169    magn:   -0.0010    constr:    0.0000
     atom:   21    charge:    1.7160    magn:    0.0005    constr:    0.0000
     atom:   22    charge:    1.7170    magn:   -0.0009    constr:    0.0000
     atom:   23    charge:    1.7158    magn:    0.0016    constr:    0.0000
     atom:   24    charge:    1.7153    magn:    0.0017    constr:    0.0000
     atom:   25    charge:    1.7129    magn:    0.0072    constr:    0.0000
     atom:   26    charge:    1.7108    magn:    0.0132    constr:    0.0000
     atom:   27    charge:    1.8169    magn:    0.0788    constr:    0.0000
     atom:   28    charge:    7.0284    magn:    0.1548    constr:    0.0000
     atom:   29    charge:    1.8176    magn:    0.0799    constr:    0.0000
     atom:   30    charge:    1.7107    magn:    0.0130    constr:    0.0000
     atom:   31    charge:    1.7130    magn:    0.0072    constr:    0.0000
     atom:   32    charge:    1.7153    magn:    0.0017    constr:    0.0000
     atom:   33    charge:    1.7170    magn:    0.0001    constr:    0.0000
     atom:   34    charge:    1.7152    magn:   -0.0000    constr:    0.0000
     atom:   35    charge:    1.7170    magn:    0.0001    constr:    0.0000
     atom:   36    charge:    1.7146    magn:   -0.0001    constr:    0.0000
     atom:   37    charge:    1.7214    magn:    0.0030    constr:    0.0000
     atom:   38    charge:    1.7108    magn:    0.0132    constr:    0.0000
     atom:   39    charge:    1.8173    magn:    0.0801    constr:    0.0000
     atom:   40    charge:    1.7107    magn:    0.0130    constr:    0.0000
     atom:   41    charge:    1.7214    magn:    0.0031    constr:    0.0000
     atom:   42    charge:    1.7146    magn:   -0.0001    constr:    0.0000
     atom:   43    charge:    1.7170    magn:    0.0000    constr:    0.0000
     atom:   44    charge:    1.7153    magn:   -0.0000    constr:    0.0000
     atom:   45    charge:    1.7211    magn:   -0.0007    constr:    0.0000
     atom:   46    charge:    1.7153    magn:   -0.0000    constr:    0.0000
     atom:   47    charge:    1.7170    magn:    0.0001    constr:    0.0000
     atom:   48    charge:    1.7153    magn:    0.0017    constr:    0.0000
     atom:   49    charge:    1.7130    magn:    0.0073    constr:    0.0000
     atom:   50    charge:    1.7169    magn:   -0.0010    constr:    0.0000
     atom:   51    charge:    1.7130    magn:    0.0072    constr:    0.0000
     atom:   52    charge:    1.7153    magn:    0.0017    constr:    0.0000

     total cpu time spent up to now is     2740.1 secs

     End of self-consistent calculation

 ------ SPIN UP ------------


          k = 0.0000 0.0000 0.0000 ( 87777 PWs)   bands (ev):

   -19.8392 -18.9969 -18.9963 -18.9024 -18.9022 -18.8405 -18.7629 -17.1675
   -17.1671 -17.1304 -17.0860 -17.0859 -16.8080 -16.3267 -16.3266 -16.1812
   -16.1812 -16.1591 -15.7671 -14.4229 -14.4228 -14.1278 -14.0329 -14.0327
   -13.5753 -13.1651 -13.1650 -13.0785 -12.9356 -12.9356 -12.6304 -12.3149
   -12.3145 -11.7127 -11.6069 -11.6068 -11.1852 -10.9360 -10.9359  -9.5224
    -9.3624  -9.3624  -9.2417  -9.2319  -9.2319  -9.2226  -9.1052  -9.1045
    -9.0591  -9.0590  -8.9585  -8.7155  -8.7154  -7.9555  -7.8947  -7.8370
    -7.6621  -7.6619  -7.5327  -7.5327  -6.9372  -6.8409  -6.8403  -6.8158
    -6.7898  -6.7222  -6.7137  -6.7127  -6.6167  -6.6166  -6.5728  -6.5663
    -6.5661  -6.5542  -6.5203  -6.3963  -6.3961  -5.6117  -5.6116  -5.0269
    -5.0087  -4.9553  -4.8841  -4.8838  -4.7609  -4.7239  -4.7236  -4.5394
    -4.5394  -4.4676  -3.8501  -3.8499  -3.8167  -3.8166  -3.7814  -3.6378
    -3.6374  -3.4043  -1.8812  -1.8254  -1.8252  -1.7310  -1.7306  -1.2195
    -0.8342  -0.8340   0.9132   0.9493   0.9496   1.0967   1.0970   1.5000
     2.4800   2.7954   2.7958   2.8400   2.9333   2.9338   3.4009   3.4258
     3.6019   3.7249   3.7284   3.7498   3.9044   4.0936

     occupation numbers 
     1.0000   1.0000   1.0000   1.0000   1.0000   1.0000   1.0000   1.0000
     1.0000   1.0000   1.0000   1.0000   1.0000   1.0000   1.0000   1.0000
     1.0000   1.0000   1.0000   1.0000   1.0000   1.0000   1.0000   1.0000
     1.0000   1.0000   1.0000   1.0000   1.0000   1.0000   1.0000   1.0000
     1.0000   1.0000   1.0000   1.0000   1.0000   1.0000   1.0000   1.0000
     1.0000   1.0000   1.0000   1.0000   1.0000   1.0000   1.0000   1.0000
     1.0000   1.0000   1.0000   1.0000   1.0000   1.0000   1.0000   1.0000
     1.0000   1.0000   1.0000   1.0000   1.0000   1.0000   1.0000   1.0000
     1.0000   1.0000   1.0000   1.0000   1.0000   1.0000   1.0000   1.0000
     1.0000   1.0000   1.0000   1.0000   1.0000   1.0000   1.0000   1.0000
     1.0000   1.0000   1.0000   1.0000   1.0000   1.0000   1.0000   1.0000
     1.0000   1.0000   1.0000   1.0000   1.0000   1.0000   1.0000   1.0000
     1.0000   1.0000   1.0000   1.0000   1.0000   1.0000   1.0000   1.0000
     0.5054   0.4946   0.0000   0.0000   0.0000   0.0000   0.0000   0.0000
     0.0000   0.0000   0.0000   0.0000   0.0000   0.0000   0.0000   0.0000
     0.0000   0.0000   0.0000   0.0000   0.0000   0.0000

 ------ SPIN DOWN ----------


          k = 0.0000 0.0000 0.0000 ( 87777 PWs)   bands (ev):

   -19.8142 -18.9644 -18.9639 -18.8956 -18.8953 -18.8376 -18.6874 -17.1279
   -17.1277 -17.1144 -17.0642 -17.0641 -16.7746 -16.2894 -16.2893 -16.1596
   -16.1594 -16.1521 -15.6914 -14.3329 -14.3326 -14.1036 -14.0248 -14.0247
   -13.5328 -13.1396 -13.1396 -13.0655 -12.8991 -12.8988 -12.5656 -12.2036
   -12.2035 -11.6930 -11.5723 -11.5720 -11.0798 -10.8058 -10.8054  -9.4816
    -9.3430  -9.3429  -9.2341  -9.2231  -9.2231  -9.2103  -9.0026  -9.0026
    -8.9337  -8.9323  -8.8336  -8.6741  -8.6739  -7.9454  -7.8704  -7.8152
    -7.6132  -7.6130  -7.5151  -7.5151  -6.8874  -6.8398  -6.8392  -6.7889
    -6.7753  -6.7023  -6.7000  -6.6873  -6.5948  -6.5947  -6.5650  -6.5624
    -6.5622  -6.5498  -6.5141  -6.3553  -6.3551  -5.5841  -5.5840  -5.0079
    -4.9454  -4.8641  -4.8638  -4.7950  -4.7560  -4.7228  -4.7226  -4.5297
    -4.5297  -4.4515  -3.8460  -3.8458  -3.7912  -3.7910  -3.7822  -3.6193
    -3.6190  -3.3662  -1.8774  -1.8235  -1.8232  -1.7089  -1.7084  -1.1830
    -0.4336  -0.4305   0.9163   0.9525   0.9529   1.1200   1.1204   1.5122
     2.4808   2.7975   2.7979   2.8410   2.9607   2.9613   3.4059   3.4313
     3.6030   3.7241   3.7276   3.7486   3.9131   4.0988

     occupation numbers 
     1.0000   1.0000   1.0000   1.0000   1.0000   1.0000   1.0000   1.0000
     1.0000   1.0000   1.0000   1.0000   1.0000   1.0000   1.0000   1.0000
     1.0000   1.0000   1.0000   1.0000   1.0000   1.0000   1.0000   1.0000
     1.0000   1.0000   1.0000   1.0000   1.0000   1.0000   1.0000   1.0000
     1.0000   1.0000   1.0000   1.0000   1.0000   1.0000   1.0000   1.0000
     1.0000   1.0000   1.0000   1.0000   1.0000   1.0000   1.0000   1.0000
     1.0000   1.0000   1.0000   1.0000   1.0000   1.0000   1.0000   1.0000
     1.0000   1.0000   1.0000   1.0000   1.0000   1.0000   1.0000   1.0000
     1.0000   1.0000   1.0000   1.0000   1.0000   1.0000   1.0000   1.0000
     1.0000   1.0000   1.0000   1.0000   1.0000   1.0000   1.0000   1.0000
     1.0000   1.0000   1.0000   1.0000   1.0000   1.0000   1.0000   1.0000
     1.0000   1.0000   1.0000   1.0000   1.0000   1.0000   1.0000   1.0000
     1.0000   1.0000   1.0000   1.0000   1.0000   1.0000   1.0000   1.0000
     0.0000   0.0000   0.0000   0.0000   0.0000   0.0000   0.0000   0.0000
     0.0000   0.0000   0.0000   0.0000   0.0000   0.0000   0.0000   0.0000
     0.0000   0.0000   0.0000   0.0000   0.0000   0.0000

     the Fermi energy is    -0.8322 ev

!    total energy              =    -734.75894464 Ry
     Harris-Foulkes estimate   =    -734.75894495 Ry
     estimated scf accuracy    <       0.00000063 Ry

     The total energy is the sum of the following terms:

     one-electron contribution =   -2478.46691878 Ry
     hartree contribution      =    1294.97921401 Ry
     xc contribution           =    -275.91998027 Ry
     ewald contribution        =     724.64906853 Ry
     smearing contrib. (-TS)   =      -0.00032814 Ry

     total magnetization       =     1.00 Bohr mag/cell
     absolute magnetization    =     1.06 Bohr mag/cell

     convergence has been achieved in  26 iterations

     Writing output data file cobre-bridge2-distance-4.0.save/

     init_run     :     73.55s CPU     74.95s WALL (       1 calls)
     electrons    :   2616.61s CPU   2664.09s WALL (       1 calls)

     Called by init_run:
     wfcinit      :     45.07s CPU     45.36s WALL (       1 calls)
     wfcinit:atom :      0.06s CPU      0.09s WALL (       2 calls)
     wfcinit:wfcr :     44.64s CPU     44.85s WALL (       2 calls)
     potinit      :     11.87s CPU     12.31s WALL (       1 calls)
     hinit0       :      7.01s CPU      7.05s WALL (       1 calls)

     Called by electrons:
     c_bands      :   1630.90s CPU   1638.95s WALL (      26 calls)
     sum_band     :    573.97s CPU    590.07s WALL (      26 calls)
     v_of_rho     :    200.14s CPU    209.50s WALL (      27 calls)
     v_h          :      2.11s CPU      2.19s WALL (      27 calls)
     v_xc         :    198.03s CPU    207.32s WALL (      27 calls)
     newd         :    209.29s CPU    223.76s WALL (      27 calls)
     mix_rho      :     12.02s CPU     12.29s WALL (      26 calls)

     Called by c_bands:
     init_us_2    :      5.00s CPU      5.03s WALL (     106 calls)
     cegterg      :   1617.95s CPU   1625.96s WALL (      52 calls)

     Called by sum_band:
     sum_band:bec :      0.04s CPU      0.04s WALL (      52 calls)
     addusdens    :    364.61s CPU    379.68s WALL (      26 calls)

     Called by *egterg:
     h_psi        :    860.31s CPU    866.42s WALL (     187 calls)
     s_psi        :    289.55s CPU    289.63s WALL (     187 calls)
     g_psi        :      0.87s CPU      0.87s WALL (     133 calls)
     cdiaghg      :     12.10s CPU     12.10s WALL (     185 calls)
     cegterg:over :    201.07s CPU    201.13s WALL (     133 calls)
     cegterg:upda :    115.96s CPU    116.44s WALL (     133 calls)
     cegterg:last :     88.19s CPU     88.20s WALL (      52 calls)

     Called by h_psi:
     h_psi:pot    :    859.38s CPU    864.35s WALL (     187 calls)
     h_psi:calbec :    286.82s CPU    286.90s WALL (     187 calls)
     vloc_psi     :    283.78s CPU    288.59s WALL (     187 calls)
     add_vuspsi   :    288.78s CPU    288.85s WALL (     187 calls)

     General routines
     calbec       :    413.78s CPU    413.89s WALL (     239 calls)
     fft          :    117.26s CPU    121.05s WALL (    2019 calls)
     ffts         :      2.04s CPU      2.11s WALL (     106 calls)
     fftw         :    304.30s CPU    309.45s WALL (   36274 calls)
     interpolate  :      4.69s CPU      4.88s WALL (      54 calls)

     Parallel routines
     fft_scatt_xy :     77.58s CPU     78.48s WALL (   38399 calls)
     fft_scatt_yz :    140.49s CPU    147.22s WALL (   38399 calls)

     PWSCF        :  44m51.50s CPU  45m40.72s WALL


   This run was terminated on:   1:20:19   8Sep2022            

=------------------------------------------------------------------------------=
   JOB DONE.
=------------------------------------------------------------------------------=
