
     Program PWSCF v.6.4.1 starts on 17Mar2022 at 10:42:37 

     This program is part of the open-source Quantum ESPRESSO suite
     for quantum simulation of materials; please cite
         "P. Giannozzi et al., J. Phys.:Condens. Matter 21 395502 (2009);
         "P. Giannozzi et al., J. Phys.:Condens. Matter 29 465901 (2017);
          URL http://www.quantum-espresso.org", 
     in publications or presentations arising from this work. More details at
     http://www.quantum-espresso.org/quote

     Parallel version (MPI), running on     6 processors

     MPI processes distributed on     1 nodes
     R & G space division:  proc/nbgrp/npool/nimage =       6
     Reading input from fe-5.in

     Current dimensions of program PWSCF are:
     Max number of different atomic species (ntypx) = 10
     Max number of k-points (npk) =  40000
     Max angular momentum in pseudopotentials (lmaxx) =  3

     Subspace diagonalization in iterative solution of the eigenvalue problem:
     a serial algorithm will be used

     Message from routine setup:
     DEPRECATED: symmetry with ibrav=0, use correct ibrav instead

     Parallelization info
     --------------------
     sticks:   dense  smooth     PW     G-vecs:    dense   smooth      PW
     Min         134     109     32                 2894     2087     350
     Max         135     110     33                 2895     2090     353
     Sum         805     657    193                17365    12533    2103



     bravais-lattice index     =            0
     lattice parameter (alat)  =       5.4046  a.u.
     unit-cell volume          =     157.8682 (a.u.)^3
     number of atoms/cell      =            2
     number of atomic types    =            2
     number of electrons       =        32.00
     number of Kohn-Sham states=           20
     kinetic-energy cutoff     =      70.0000  Ry
     charge density cutoff     =     350.0000  Ry
     convergence threshold     =      1.0E-06
     mixing beta               =       0.7000
     number of iterations used =            8  plain     mixing
     Exchange-correlation      = PBE ( 1  4  3  4 0 0)

     celldm(1)=   5.404617  celldm(2)=   0.000000  celldm(3)=   0.000000
     celldm(4)=   0.000000  celldm(5)=   0.000000  celldm(6)=   0.000000

     crystal axes: (cart. coord. in units of alat)
               a(1) = (   1.000000   0.000000   0.000000 )  
               a(2) = (   0.000000   1.000000   0.000000 )  
               a(3) = (   0.000000   0.000000   1.000000 )  

     reciprocal axes: (cart. coord. in units 2 pi/alat)
               b(1) = (  1.000000  0.000000  0.000000 )  
               b(2) = (  0.000000  1.000000  0.000000 )  
               b(3) = (  0.000000  0.000000  1.000000 )  


     PseudoPot. # 1 for Fe read from file:
     /home/cristian/Escritorio/Proyecto_Grafeno/pseudopotenciales/Fe.pbe-spn-rrkjus_psl.1.0.0.UPF
     MD5 check sum: 72ea77fed8e64ab3a2ccf2804dfc1862
     Pseudo is Ultrasoft + core correction, Zval = 16.0
     Generated using "atomic" code by A. Dal Corso v.6.3
     Using radial grid of 1191 points,  6 beta functions with: 
                l(1) =   0
                l(2) =   0
                l(3) =   1
                l(4) =   1
                l(5) =   2
                l(6) =   2
     Q(r) pseudized with 0 coefficients 


     PseudoPot. # 2 for Fe read from file:
     /home/cristian/Escritorio/Proyecto_Grafeno/pseudopotenciales/Fe.pbe-spn-rrkjus_psl.1.0.0.UPF
     MD5 check sum: 72ea77fed8e64ab3a2ccf2804dfc1862
     Pseudo is Ultrasoft + core correction, Zval = 16.0
     Generated using "atomic" code by A. Dal Corso v.6.3
     Using radial grid of 1191 points,  6 beta functions with: 
                l(1) =   0
                l(2) =   0
                l(3) =   1
                l(4) =   1
                l(5) =   2
                l(6) =   2
     Q(r) pseudized with 0 coefficients 


     atomic species   valence    mass     pseudopotential
        Fe1           16.00    55.84500     Fe( 1.00)
        Fe2           16.00    55.84500     Fe( 1.00)

     Starting magnetic structure 
     atomic species   magnetization
        Fe1          0.100
        Fe2         -0.100

     48 Sym. Ops., with inversion, found



   Cartesian axes

     site n.     atom                  positions (alat units)
         1           Fe1 tau(   1) = (   0.0000000   0.0000000   0.0000000  )
         2           Fe2 tau(   2) = (   0.5000000   0.5000000   0.5000000  )

     number of k points=    20  Methfessel-Paxton smearing, width (Ry)=  0.0300
                       cart. coord. in units 2pi/alat
        k(    1) = (   0.0625000   0.0625000   0.0625000), wk =   0.0156250
        k(    2) = (   0.0625000   0.0625000   0.1875000), wk =   0.0468750
        k(    3) = (   0.0625000   0.0625000   0.3125000), wk =   0.0468750
        k(    4) = (   0.0625000   0.0625000   0.4375000), wk =   0.0468750
        k(    5) = (   0.0625000   0.1875000   0.1875000), wk =   0.0468750
        k(    6) = (   0.0625000   0.1875000   0.3125000), wk =   0.0937500
        k(    7) = (   0.0625000   0.1875000   0.4375000), wk =   0.0937500
        k(    8) = (   0.0625000   0.3125000   0.3125000), wk =   0.0468750
        k(    9) = (   0.0625000   0.3125000   0.4375000), wk =   0.0937500
        k(   10) = (   0.0625000   0.4375000   0.4375000), wk =   0.0468750
        k(   11) = (   0.1875000   0.1875000   0.1875000), wk =   0.0156250
        k(   12) = (   0.1875000   0.1875000   0.3125000), wk =   0.0468750
        k(   13) = (   0.1875000   0.1875000   0.4375000), wk =   0.0468750
        k(   14) = (   0.1875000   0.3125000   0.3125000), wk =   0.0468750
        k(   15) = (   0.1875000   0.3125000   0.4375000), wk =   0.0937500
        k(   16) = (   0.1875000   0.4375000   0.4375000), wk =   0.0468750
        k(   17) = (   0.3125000   0.3125000   0.3125000), wk =   0.0156250
        k(   18) = (   0.3125000   0.3125000   0.4375000), wk =   0.0468750
        k(   19) = (   0.3125000   0.4375000   0.4375000), wk =   0.0468750
        k(   20) = (   0.4375000   0.4375000   0.4375000), wk =   0.0156250

     Dense  grid:    17365 G-vectors     FFT dimensions: (  36,  36,  36)

     Smooth grid:    12533 G-vectors     FFT dimensions: (  30,  30,  30)

     Estimated max dynamical RAM per process >      17.28 MB

     Estimated total dynamical RAM >     103.69 MB
     Generating pointlists ...
     new r_m :   0.3572 (alat units)  1.9307 (a.u.) for type    1
     new r_m :   0.3572 (alat units)  1.9307 (a.u.) for type    2

     Check: negative core charge=   -0.000004

     Initial potential from superposition of free atoms

     starting charge   31.99912, renormalised to   32.00000
     Starting wfcs are   20 randomized atomic wfcs

     total cpu time spent up to now is        1.9 secs

     Self-consistent Calculation

     iteration #  1     ecut=    70.00 Ry     beta= 0.70
     Davidson diagonalization with overlap
     ethr =  1.00E-02,  avg # of iterations =  3.1

     Threshold (ethr) on eigenvalues was too large:
     Diagonalizing with lowered threshold

     Davidson diagonalization with overlap
     ethr =  1.62E-04,  avg # of iterations =  2.0

     total cpu time spent up to now is        3.4 secs

     total energy              =    -495.53757517 Ry
     Harris-Foulkes estimate   =    -495.57082091 Ry
     estimated scf accuracy    <       0.05628121 Ry

     total magnetization       =    -0.00 Bohr mag/cell
     absolute magnetization    =     3.04 Bohr mag/cell

     iteration #  2     ecut=    70.00 Ry     beta= 0.70
     Davidson diagonalization with overlap
     ethr =  1.76E-04,  avg # of iterations =  3.0

     total cpu time spent up to now is        4.5 secs

     total energy              =    -495.53691512 Ry
     Harris-Foulkes estimate   =    -495.60622355 Ry
     estimated scf accuracy    <       0.19083664 Ry

     total magnetization       =    -0.00 Bohr mag/cell
     absolute magnetization    =     3.39 Bohr mag/cell

     iteration #  3     ecut=    70.00 Ry     beta= 0.70
     Davidson diagonalization with overlap
     ethr =  1.76E-04,  avg # of iterations =  3.0

     total cpu time spent up to now is        5.4 secs

     total energy              =    -495.57018911 Ry
     Harris-Foulkes estimate   =    -495.56862710 Ry
     estimated scf accuracy    <       0.00178959 Ry

     total magnetization       =     0.00 Bohr mag/cell
     absolute magnetization    =     3.34 Bohr mag/cell

     iteration #  4     ecut=    70.00 Ry     beta= 0.70
     Davidson diagonalization with overlap
     ethr =  5.59E-06,  avg # of iterations =  2.1

     total cpu time spent up to now is        6.2 secs

     total energy              =    -495.57155413 Ry
     Harris-Foulkes estimate   =    -495.57129706 Ry
     estimated scf accuracy    <       0.00094705 Ry

     total magnetization       =    -0.01 Bohr mag/cell
     absolute magnetization    =     3.55 Bohr mag/cell

     iteration #  5     ecut=    70.00 Ry     beta= 0.70
     Davidson diagonalization with overlap
     ethr =  2.96E-06,  avg # of iterations =  3.0

     total cpu time spent up to now is        7.1 secs

     total energy              =    -495.56947748 Ry
     Harris-Foulkes estimate   =    -495.57441826 Ry
     estimated scf accuracy    <       0.06684297 Ry

     total magnetization       =     0.25 Bohr mag/cell
     absolute magnetization    =     3.65 Bohr mag/cell

     iteration #  6     ecut=    70.00 Ry     beta= 0.70
     Davidson diagonalization with overlap
     ethr =  2.96E-06,  avg # of iterations =  2.9

     total cpu time spent up to now is        8.0 secs

     total energy              =    -495.57257111 Ry
     Harris-Foulkes estimate   =    -495.57253309 Ry
     estimated scf accuracy    <       0.00009525 Ry

     total magnetization       =     0.00 Bohr mag/cell
     absolute magnetization    =     3.84 Bohr mag/cell

     iteration #  7     ecut=    70.00 Ry     beta= 0.70
     Davidson diagonalization with overlap
     ethr =  2.98E-07,  avg # of iterations =  2.1

     total cpu time spent up to now is        8.7 secs

     total energy              =    -495.57252678 Ry
     Harris-Foulkes estimate   =    -495.57261309 Ry
     estimated scf accuracy    <       0.00004877 Ry

     total magnetization       =     0.00 Bohr mag/cell
     absolute magnetization    =     3.89 Bohr mag/cell

     iteration #  8     ecut=    70.00 Ry     beta= 0.70
     Davidson diagonalization with overlap
     ethr =  1.52E-07,  avg # of iterations =  3.0

     total cpu time spent up to now is        9.7 secs

     total energy              =    -495.57272536 Ry
     Harris-Foulkes estimate   =    -495.57273237 Ry
     estimated scf accuracy    <       0.00000799 Ry

     total magnetization       =     0.00 Bohr mag/cell
     absolute magnetization    =     4.00 Bohr mag/cell

     iteration #  9     ecut=    70.00 Ry     beta= 0.70
     Davidson diagonalization with overlap
     ethr =  2.50E-08,  avg # of iterations =  2.9

     Magnetic moment per site:
     atom:    1    charge:   14.4136    magn:    1.9411    constr:    0.0000
     atom:    2    charge:   14.4144    magn:   -1.9390    constr:    0.0000

     total cpu time spent up to now is       10.6 secs

     End of self-consistent calculation

 ------ SPIN UP ------------


          k = 0.0625 0.0625 0.0625 (  1554 PWs)   bands (ev):

   -70.2889 -67.9683 -36.3038 -36.3038 -36.3016 -34.0371 -34.0342 -34.0342
     9.5943  13.6905  13.6905  15.9491  15.9491  16.0966  18.0652  18.0652
    18.7496  19.0158  19.0158  27.0672

          k = 0.0625 0.0625 0.1875 (  1552 PWs)   bands (ev):

   -70.2872 -67.9675 -36.3176 -36.3003 -36.2992 -34.0552 -34.0358 -34.0353
    10.2098  13.9097  13.9253  15.8531  15.8863  16.2327  17.8305  18.1566
    18.2751  18.5444  18.9846  24.4429

          k = 0.0625 0.0625 0.3125 (  1552 PWs)   bands (ev):

   -70.2849 -67.9662 -36.3371 -36.2957 -36.2952 -34.0824 -34.0369 -34.0369
    11.3430  14.1278  14.3298  15.7953  15.8056  16.3304  17.4377  17.8457
    17.9706  18.2543  18.7804  21.7391

          k = 0.0625 0.0625 0.4375 (  1561 PWs)   bands (ev):

   -70.2833 -67.9654 -36.3513 -36.2932 -36.2918 -34.1020 -34.0383 -34.0375
    12.7068  13.8879  14.7189  15.7095  15.8595  16.3290  17.0861  17.6052
    17.6496  18.1700  18.5664  20.1488

          k = 0.0625 0.1875 0.1875 (  1558 PWs)   bands (ev):

   -70.2857 -67.9665 -36.3202 -36.3113 -36.2973 -34.0591 -34.0480 -34.0361
    10.7899  14.0630  14.1927  15.6574  15.7518  16.2582  17.8824  17.9650
    18.1155  18.2680  19.0467  24.6274

          k = 0.0625 0.1875 0.3125 (  1562 PWs)   bands (ev):

   -70.2836 -67.9651 -36.3386 -36.3128 -36.2937 -34.0795 -34.0507 -34.0366
    11.8288  14.1918  14.5905  15.5144  15.6476  16.0552  17.6897  17.7611
    18.0792  18.2648  18.9847  22.2362

          k = 0.0625 0.1875 0.4375 (  1561 PWs)   bands (ev):

   -70.2820 -67.9641 -36.3534 -36.3120 -36.2910 -34.0958 -34.0506 -34.0368
    13.0095  13.9221  14.8715  15.4488  15.7839  15.9053  17.4136  17.5896
    18.0357  18.5860  18.8521  20.3134

          k = 0.0625 0.3125 0.3125 (  1572 PWs)   bands (ev):

   -70.2817 -67.9635 -36.3432 -36.3346 -36.2911 -34.0782 -34.0673 -34.0359
    12.5930  14.0358  15.1695  15.2746  15.6342  15.7125  17.5573  18.0785
    18.1678  18.4993  19.1148  22.0222

          k = 0.0625 0.3125 0.4375 (  1563 PWs)   bands (ev):

   -70.2802 -67.9622 -36.3566 -36.3395 -36.2888 -34.0873 -34.0685 -34.0350
    13.2667  13.7193  15.1701  15.3271  15.5689  16.3790  17.4019  18.0947
    18.2487  18.9980  19.1318  20.4329

          k = 0.0625 0.4375 0.4375 (  1572 PWs)   bands (ev):

   -70.2790 -67.9609 -36.3598 -36.3581 -36.2873 -34.0822 -34.0805 -34.0338
    13.3492  13.5015  14.9993  15.0482  16.4810  17.0614  17.6826  18.0071
    18.4182  19.2317  19.4069  20.0166

          k = 0.1875 0.1875 0.1875 (  1562 PWs)   bands (ev):

   -70.2843 -67.9654 -36.3160 -36.3160 -36.3097 -34.0587 -34.0497 -34.0497
    11.3498  14.3367  14.3367  15.5288  15.5288  15.9388  18.0248  18.0248
    18.0399  18.6040  18.6040  25.6151

          k = 0.1875 0.1875 0.3125 (  1559 PWs)   bands (ev):

   -70.2822 -67.9638 -36.3374 -36.3121 -36.3099 -34.0766 -34.0519 -34.0502
    12.3289  14.5481  14.5744  15.3330  15.4174  15.6297  17.8389  17.9982
    18.1518  18.5181  18.8152  22.9599

          k = 0.1875 0.1875 0.4375 (  1561 PWs)   bands (ev):

   -70.2808 -67.9627 -36.3534 -36.3127 -36.3060 -34.0922 -34.0539 -34.0473
    13.3853  14.1617  14.8103  15.1423  15.4787  15.9191  17.5869  17.6401
    17.9416  18.9081  19.3255  20.8114

          k = 0.1875 0.3125 0.3125 (  1560 PWs)   bands (ev):

   -70.2803 -67.9621 -36.3383 -36.3340 -36.3076 -34.0755 -34.0697 -34.0506
    13.1012  14.4029  15.0529  15.2122  15.2354  15.3889  17.6766  17.9501
    18.3577  18.8685  19.1235  23.1339

          k = 0.1875 0.3125 0.4375 (  1558 PWs)   bands (ev):

   -70.2789 -67.9608 -36.3535 -36.3356 -36.3051 -34.0874 -34.0705 -34.0498
    13.6949  14.1157  14.9619  15.0962  15.3872  16.0972  17.4187  17.6932
    18.3827  19.0632  19.9947  21.4341

          k = 0.1875 0.4375 0.4375 (  1560 PWs)   bands (ev):

   -70.2777 -67.9595 -36.3540 -36.3532 -36.3028 -34.0845 -34.0835 -34.0502
    13.7025  13.9747  14.8767  14.9008  16.2965  16.5113  17.3633  17.4115
    18.6201  19.2461  20.7217  21.4670

          k = 0.3125 0.3125 0.3125 (  1556 PWs)   bands (ev):

   -70.2785 -67.9602 -36.3340 -36.3311 -36.3311 -34.0732 -34.0732 -34.0706
    13.8460  14.8640  14.8640  14.8720  15.1974  15.1974  17.6430  17.6430
    18.7762  18.7762  19.9890  24.7829

          k = 0.3125 0.3125 0.4375 (  1555 PWs)   bands (ev):

   -70.2772 -67.9589 -36.3492 -36.3326 -36.3260 -34.0876 -34.0756 -34.0689
    14.1290  14.7286  14.7319  14.9658  15.1641  15.9166  17.2986  17.4663
    18.7598  19.1143  21.0803  22.6958

          k = 0.3125 0.4375 0.4375 (  1560 PWs)   bands (ev):

   -70.2759 -67.9576 -36.3464 -36.3462 -36.3250 -34.0882 -34.0879 -34.0737
    14.1711  14.6828  14.7029  14.8364  15.9305  15.9326  17.0850  17.2818
    18.9718  19.2687  22.2695  23.3393

          k = 0.4375 0.4375 0.4375 (  1565 PWs)   bands (ev):

   -70.2747 -67.9563 -36.3421 -36.3405 -36.3405 -34.0914 -34.0914 -34.0895
    14.4528  14.5794  14.5794  15.6586  15.6694  15.6694  17.0180  17.0180
    19.2844  19.2844  23.8812  25.4708

 ------ SPIN DOWN ----------


          k = 0.0625 0.0625 0.0625 (  1554 PWs)   bands (ev):

   -70.2882 -67.9671 -36.3031 -36.3031 -36.3009 -34.0360 -34.0331 -34.0331
     9.5946  13.6914  13.6914  15.9497  15.9497  16.0972  18.0663  18.0663
    18.7502  19.0165  19.0165  27.0676

          k = 0.0625 0.0625 0.1875 (  1552 PWs)   bands (ev):

   -70.2865 -67.9663 -36.3169 -36.2995 -36.2985 -34.0542 -34.0348 -34.0342
    10.2101  13.9106  13.9262  15.8537  15.8868  16.2333  17.8315  18.1576
    18.2757  18.5450  18.9852  24.4434

          k = 0.0625 0.0625 0.3125 (  1552 PWs)   bands (ev):

   -70.2842 -67.9650 -36.3364 -36.2950 -36.2945 -34.0814 -34.0359 -34.0358
    11.3433  14.1285  14.3308  15.7959  15.8062  16.3310  17.4386  17.8463
    17.9712  18.2553  18.7810  21.7398

          k = 0.0625 0.0625 0.4375 (  1561 PWs)   bands (ev):

   -70.2826 -67.9642 -36.3506 -36.2924 -36.2910 -34.1009 -34.0373 -34.0364
    12.7073  13.8884  14.7199  15.7101  15.8600  16.3295  17.0870  17.6057
    17.6503  18.1708  18.5670  20.1499

          k = 0.0625 0.1875 0.1875 (  1558 PWs)   bands (ev):

   -70.2850 -67.9653 -36.3194 -36.3106 -36.2966 -34.0581 -34.0470 -34.0350
    10.7902  14.0639  14.1936  15.6580  15.7524  16.2588  17.8833  17.9656
    18.1165  18.2686  19.0474  24.6280

          k = 0.0625 0.1875 0.3125 (  1562 PWs)   bands (ev):

   -70.2829 -67.9639 -36.3378 -36.3120 -36.2930 -34.0784 -34.0497 -34.0356
    11.8292  14.1926  14.5914  15.5150  15.6482  16.0557  17.6903  17.7621
    18.0797  18.2657  18.9853  22.2369

          k = 0.0625 0.1875 0.4375 (  1561 PWs)   bands (ev):

   -70.2814 -67.9629 -36.3526 -36.3113 -36.2903 -34.0947 -34.0495 -34.0357
    13.0099  13.9227  14.8724  15.4493  15.7845  15.9058  17.4143  17.5905
    18.0364  18.5867  18.8527  20.3144

          k = 0.0625 0.3125 0.3125 (  1572 PWs)   bands (ev):

   -70.2810 -67.9623 -36.3425 -36.3338 -36.2903 -34.0772 -34.0662 -34.0349
    12.5934  14.0365  15.1703  15.2751  15.6348  15.7131  17.5579  18.0795
    18.1688  18.4998  19.1155  22.0229

          k = 0.0625 0.3125 0.4375 (  1563 PWs)   bands (ev):

   -70.2796 -67.9610 -36.3558 -36.3387 -36.2880 -34.0862 -34.0674 -34.0339
    13.2671  13.7199  15.1707  15.3277  15.5698  16.3796  17.4026  18.0956
    18.2494  18.9986  19.1325  20.4338

          k = 0.0625 0.4375 0.4375 (  1572 PWs)   bands (ev):

   -70.2784 -67.9597 -36.3591 -36.3574 -36.2866 -34.0812 -34.0795 -34.0328
    13.3497  13.5021  14.9998  15.0487  16.4819  17.0621  17.6831  18.0077
    18.4192  19.2326  19.4075  20.0174

          k = 0.1875 0.1875 0.1875 (  1562 PWs)   bands (ev):

   -70.2836 -67.9642 -36.3153 -36.3153 -36.3090 -34.0576 -34.0486 -34.0486
    11.3501  14.3376  14.3376  15.5293  15.5293  15.9394  18.0258  18.0258
    18.0404  18.6046  18.6046  25.6156

          k = 0.1875 0.1875 0.3125 (  1559 PWs)   bands (ev):

   -70.2816 -67.9626 -36.3367 -36.3113 -36.3092 -34.0756 -34.0509 -34.0491
    12.3292  14.5489  14.5753  15.3336  15.4180  15.6303  17.8397  17.9991
    18.1526  18.5187  18.8160  22.9605

          k = 0.1875 0.1875 0.4375 (  1561 PWs)   bands (ev):

   -70.2801 -67.9615 -36.3527 -36.3120 -36.3053 -34.0912 -34.0528 -34.0462
    13.3857  14.1622  14.8112  15.1429  15.4793  15.9197  17.5877  17.6408
    17.9425  18.9089  19.3262  20.8122

          k = 0.1875 0.3125 0.3125 (  1560 PWs)   bands (ev):

   -70.2797 -67.9608 -36.3376 -36.3333 -36.3069 -34.0744 -34.0687 -34.0495
    13.1016  14.4036  15.0535  15.2127  15.2361  15.3895  17.6773  17.9509
    18.3586  18.8694  19.1241  23.1346

          k = 0.1875 0.3125 0.4375 (  1558 PWs)   bands (ev):

   -70.2783 -67.9596 -36.3528 -36.3349 -36.3044 -34.0863 -34.0695 -34.0488
    13.6953  14.1163  14.9625  15.0967  15.3879  16.0978  17.4195  17.6939
    18.3837  19.0642  19.9953  21.4347

          k = 0.1875 0.4375 0.4375 (  1560 PWs)   bands (ev):

   -70.2770 -67.9583 -36.3532 -36.3525 -36.3021 -34.0835 -34.0825 -34.0491
    13.7030  13.9754  14.8772  14.9014  16.2973  16.5118  17.3640  17.4123
    18.6211  19.2473  20.7223  21.4676

          k = 0.3125 0.3125 0.3125 (  1556 PWs)   bands (ev):

   -70.2778 -67.9590 -36.3333 -36.3304 -36.3304 -34.0721 -34.0721 -34.0696
    13.8464  14.8646  14.8646  14.8725  15.1982  15.1982  17.6437  17.6437
    18.7772  18.7772  19.9896  24.7835

          k = 0.3125 0.3125 0.4375 (  1555 PWs)   bands (ev):

   -70.2765 -67.9577 -36.3485 -36.3318 -36.3253 -34.0865 -34.0745 -34.0679
    14.1294  14.7291  14.7325  14.9664  15.1648  15.9172  17.2994  17.4670
    18.7609  19.1154  21.0809  22.6964

          k = 0.3125 0.4375 0.4375 (  1560 PWs)   bands (ev):

   -70.2753 -67.9564 -36.3457 -36.3454 -36.3243 -34.0871 -34.0868 -34.0726
    14.1717  14.6833  14.7034  14.8370  15.9310  15.9330  17.0859  17.2827
    18.9729  19.2699  22.2700  23.3398

          k = 0.4375 0.4375 0.4375 (  1565 PWs)   bands (ev):

   -70.2741 -67.9551 -36.3414 -36.3398 -36.3398 -34.0903 -34.0903 -34.0885
    14.4534  14.5799  14.5799  15.6590  15.6699  15.6699  17.0190  17.0190
    19.2856  19.2856  23.8817  25.4712

     the Fermi energy is    18.0234 ev

!    total energy              =    -495.57273746 Ry
     Harris-Foulkes estimate   =    -495.57273754 Ry
     estimated scf accuracy    <       0.00000040 Ry

     The total energy is the sum of the following terms:

     one-electron contribution =    -227.17754464 Ry
     hartree contribution      =     131.74785745 Ry
     xc contribution           =     -55.38159505 Ry
     ewald contribution        =    -344.75849367 Ry
     smearing contrib. (-TS)   =      -0.00296155 Ry

     total magnetization       =     0.00 Bohr mag/cell
     absolute magnetization    =     4.03 Bohr mag/cell

     convergence has been achieved in   9 iterations

     Writing output data file fe-5.save/

     init_run     :      0.43s CPU      0.45s WALL (       1 calls)
     electrons    :      8.48s CPU      8.76s WALL (       1 calls)

     Called by init_run:
     wfcinit      :      0.20s CPU      0.21s WALL (       1 calls)
     potinit      :      0.04s CPU      0.04s WALL (       1 calls)
     hinit0       :      0.16s CPU      0.17s WALL (       1 calls)

     Called by electrons:
     c_bands      :      7.06s CPU      7.30s WALL (      10 calls)
     sum_band     :      1.10s CPU      1.15s WALL (      10 calls)
     v_of_rho     :      0.14s CPU      0.14s WALL (      10 calls)
     newd         :      0.18s CPU      0.18s WALL (      10 calls)
     mix_rho      :      0.03s CPU      0.03s WALL (      10 calls)

     Called by c_bands:
     init_us_2    :      0.09s CPU      0.09s WALL (     840 calls)
     cegterg      :      6.71s CPU      6.94s WALL (     400 calls)

     Called by sum_band:
     sum_band:bec :      0.01s CPU      0.01s WALL (     400 calls)
     addusdens    :      0.26s CPU      0.26s WALL (      10 calls)

     Called by *egterg:
     h_psi        :      3.79s CPU      3.94s WALL (    1530 calls)
     s_psi        :      0.33s CPU      0.35s WALL (    1530 calls)
     g_psi        :      0.03s CPU      0.03s WALL (    1090 calls)
     cdiaghg      :      1.00s CPU      1.02s WALL (    1450 calls)

     Called by h_psi:
     h_psi:pot    :      3.78s CPU      3.93s WALL (    1530 calls)
     h_psi:calbec :      0.46s CPU      0.49s WALL (    1530 calls)
     vloc_psi     :      2.98s CPU      3.09s WALL (    1530 calls)
     add_vuspsi   :      0.33s CPU      0.35s WALL (    1530 calls)

     General routines
     calbec       :      0.64s CPU      0.67s WALL (    1930 calls)
     fft          :      0.10s CPU      0.10s WALL (     246 calls)
     ffts         :      0.01s CPU      0.01s WALL (      40 calls)
     fftw         :      3.20s CPU      3.32s WALL (   51860 calls)
     interpolate  :      0.01s CPU      0.01s WALL (      20 calls)

     Parallel routines
     fft_scatt_xy :      0.28s CPU      0.29s WALL (   52146 calls)
     fft_scatt_yz :      1.38s CPU      1.43s WALL (   52146 calls)

     PWSCF        :     10.32s CPU     10.68s WALL


   This run was terminated on:  10:42:48  17Mar2022            

=------------------------------------------------------------------------------=
   JOB DONE.
=------------------------------------------------------------------------------=
