
     Program PWSCF v.6.4.1 starts on 17Mar2022 at 10:43: 0 

     This program is part of the open-source Quantum ESPRESSO suite
     for quantum simulation of materials; please cite
         "P. Giannozzi et al., J. Phys.:Condens. Matter 21 395502 (2009);
         "P. Giannozzi et al., J. Phys.:Condens. Matter 29 465901 (2017);
          URL http://www.quantum-espresso.org", 
     in publications or presentations arising from this work. More details at
     http://www.quantum-espresso.org/quote

     Parallel version (MPI), running on     6 processors

     MPI processes distributed on     1 nodes
     R & G space division:  proc/nbgrp/npool/nimage =       6
     Reading input from fe-7.in

     Current dimensions of program PWSCF are:
     Max number of different atomic species (ntypx) = 10
     Max number of k-points (npk) =  40000
     Max angular momentum in pseudopotentials (lmaxx) =  3

     Subspace diagonalization in iterative solution of the eigenvalue problem:
     a serial algorithm will be used

     Message from routine setup:
     DEPRECATED: symmetry with ibrav=0, use correct ibrav instead

     Parallelization info
     --------------------
     sticks:   dense  smooth     PW     G-vecs:    dense   smooth      PW
     Min         189     109     32                 4814     2087     350
     Max         190     110     33                 4815     2090     353
     Sum        1137     657    193                28887    12533    2103



     bravais-lattice index     =            0
     lattice parameter (alat)  =       5.4046  a.u.
     unit-cell volume          =     157.8682 (a.u.)^3
     number of atoms/cell      =            2
     number of atomic types    =            2
     number of electrons       =        32.00
     number of Kohn-Sham states=           20
     kinetic-energy cutoff     =      70.0000  Ry
     charge density cutoff     =     490.0000  Ry
     convergence threshold     =      1.0E-06
     mixing beta               =       0.7000
     number of iterations used =            8  plain     mixing
     Exchange-correlation      = PBE ( 1  4  3  4 0 0)

     celldm(1)=   5.404617  celldm(2)=   0.000000  celldm(3)=   0.000000
     celldm(4)=   0.000000  celldm(5)=   0.000000  celldm(6)=   0.000000

     crystal axes: (cart. coord. in units of alat)
               a(1) = (   1.000000   0.000000   0.000000 )  
               a(2) = (   0.000000   1.000000   0.000000 )  
               a(3) = (   0.000000   0.000000   1.000000 )  

     reciprocal axes: (cart. coord. in units 2 pi/alat)
               b(1) = (  1.000000  0.000000  0.000000 )  
               b(2) = (  0.000000  1.000000  0.000000 )  
               b(3) = (  0.000000  0.000000  1.000000 )  


     PseudoPot. # 1 for Fe read from file:
     /home/cristian/Escritorio/Proyecto_Grafeno/pseudopotenciales/Fe.pbe-spn-rrkjus_psl.1.0.0.UPF
     MD5 check sum: 72ea77fed8e64ab3a2ccf2804dfc1862
     Pseudo is Ultrasoft + core correction, Zval = 16.0
     Generated using "atomic" code by A. Dal Corso v.6.3
     Using radial grid of 1191 points,  6 beta functions with: 
                l(1) =   0
                l(2) =   0
                l(3) =   1
                l(4) =   1
                l(5) =   2
                l(6) =   2
     Q(r) pseudized with 0 coefficients 


     PseudoPot. # 2 for Fe read from file:
     /home/cristian/Escritorio/Proyecto_Grafeno/pseudopotenciales/Fe.pbe-spn-rrkjus_psl.1.0.0.UPF
     MD5 check sum: 72ea77fed8e64ab3a2ccf2804dfc1862
     Pseudo is Ultrasoft + core correction, Zval = 16.0
     Generated using "atomic" code by A. Dal Corso v.6.3
     Using radial grid of 1191 points,  6 beta functions with: 
                l(1) =   0
                l(2) =   0
                l(3) =   1
                l(4) =   1
                l(5) =   2
                l(6) =   2
     Q(r) pseudized with 0 coefficients 


     atomic species   valence    mass     pseudopotential
        Fe1           16.00    55.84500     Fe( 1.00)
        Fe2           16.00    55.84500     Fe( 1.00)

     Starting magnetic structure 
     atomic species   magnetization
        Fe1          0.100
        Fe2         -0.100

     48 Sym. Ops., with inversion, found



   Cartesian axes

     site n.     atom                  positions (alat units)
         1           Fe1 tau(   1) = (   0.0000000   0.0000000   0.0000000  )
         2           Fe2 tau(   2) = (   0.5000000   0.5000000   0.5000000  )

     number of k points=    20  Methfessel-Paxton smearing, width (Ry)=  0.0300
                       cart. coord. in units 2pi/alat
        k(    1) = (   0.0625000   0.0625000   0.0625000), wk =   0.0156250
        k(    2) = (   0.0625000   0.0625000   0.1875000), wk =   0.0468750
        k(    3) = (   0.0625000   0.0625000   0.3125000), wk =   0.0468750
        k(    4) = (   0.0625000   0.0625000   0.4375000), wk =   0.0468750
        k(    5) = (   0.0625000   0.1875000   0.1875000), wk =   0.0468750
        k(    6) = (   0.0625000   0.1875000   0.3125000), wk =   0.0937500
        k(    7) = (   0.0625000   0.1875000   0.4375000), wk =   0.0937500
        k(    8) = (   0.0625000   0.3125000   0.3125000), wk =   0.0468750
        k(    9) = (   0.0625000   0.3125000   0.4375000), wk =   0.0937500
        k(   10) = (   0.0625000   0.4375000   0.4375000), wk =   0.0468750
        k(   11) = (   0.1875000   0.1875000   0.1875000), wk =   0.0156250
        k(   12) = (   0.1875000   0.1875000   0.3125000), wk =   0.0468750
        k(   13) = (   0.1875000   0.1875000   0.4375000), wk =   0.0468750
        k(   14) = (   0.1875000   0.3125000   0.3125000), wk =   0.0468750
        k(   15) = (   0.1875000   0.3125000   0.4375000), wk =   0.0937500
        k(   16) = (   0.1875000   0.4375000   0.4375000), wk =   0.0468750
        k(   17) = (   0.3125000   0.3125000   0.3125000), wk =   0.0156250
        k(   18) = (   0.3125000   0.3125000   0.4375000), wk =   0.0468750
        k(   19) = (   0.3125000   0.4375000   0.4375000), wk =   0.0468750
        k(   20) = (   0.4375000   0.4375000   0.4375000), wk =   0.0156250

     Dense  grid:    28887 G-vectors     FFT dimensions: (  40,  40,  40)

     Smooth grid:    12533 G-vectors     FFT dimensions: (  30,  30,  30)

     Estimated max dynamical RAM per process >      25.06 MB

     Estimated total dynamical RAM >     150.36 MB
     Generating pointlists ...
     new r_m :   0.3572 (alat units)  1.9307 (a.u.) for type    1
     new r_m :   0.3572 (alat units)  1.9307 (a.u.) for type    2

     Check: negative core charge=   -0.000002

     Initial potential from superposition of free atoms

     starting charge   31.99912, renormalised to   32.00000
     Starting wfcs are   20 randomized atomic wfcs

     total cpu time spent up to now is        2.0 secs

     Self-consistent Calculation

     iteration #  1     ecut=    70.00 Ry     beta= 0.70
     Davidson diagonalization with overlap
     ethr =  1.00E-02,  avg # of iterations =  3.1

     Threshold (ethr) on eigenvalues was too large:
     Diagonalizing with lowered threshold

     Davidson diagonalization with overlap
     ethr =  1.62E-04,  avg # of iterations =  2.0

     total cpu time spent up to now is        3.5 secs

     total energy              =    -495.53752740 Ry
     Harris-Foulkes estimate   =    -495.57077487 Ry
     estimated scf accuracy    <       0.05628496 Ry

     total magnetization       =    -0.00 Bohr mag/cell
     absolute magnetization    =     3.04 Bohr mag/cell

     iteration #  2     ecut=    70.00 Ry     beta= 0.70
     Davidson diagonalization with overlap
     ethr =  1.76E-04,  avg # of iterations =  3.0

     total cpu time spent up to now is        4.7 secs

     total energy              =    -495.53686854 Ry
     Harris-Foulkes estimate   =    -495.60618256 Ry
     estimated scf accuracy    <       0.19085445 Ry

     total magnetization       =    -0.00 Bohr mag/cell
     absolute magnetization    =     3.39 Bohr mag/cell

     iteration #  3     ecut=    70.00 Ry     beta= 0.70
     Davidson diagonalization with overlap
     ethr =  1.76E-04,  avg # of iterations =  3.0

     total cpu time spent up to now is        5.7 secs

     total energy              =    -495.57014600 Ry
     Harris-Foulkes estimate   =    -495.56858298 Ry
     estimated scf accuracy    <       0.00178997 Ry

     total magnetization       =     0.00 Bohr mag/cell
     absolute magnetization    =     3.34 Bohr mag/cell

     iteration #  4     ecut=    70.00 Ry     beta= 0.70
     Davidson diagonalization with overlap
     ethr =  5.59E-06,  avg # of iterations =  2.1

     total cpu time spent up to now is        6.5 secs

     total energy              =    -495.57151244 Ry
     Harris-Foulkes estimate   =    -495.57125441 Ry
     estimated scf accuracy    <       0.00094677 Ry

     total magnetization       =    -0.01 Bohr mag/cell
     absolute magnetization    =     3.55 Bohr mag/cell

     iteration #  5     ecut=    70.00 Ry     beta= 0.70
     Davidson diagonalization with overlap
     ethr =  2.96E-06,  avg # of iterations =  3.0

     total cpu time spent up to now is        7.4 secs

     total energy              =    -495.56943270 Ry
     Harris-Foulkes estimate   =    -495.57438079 Ry
     estimated scf accuracy    <       0.06693990 Ry

     total magnetization       =     0.25 Bohr mag/cell
     absolute magnetization    =     3.65 Bohr mag/cell

     iteration #  6     ecut=    70.00 Ry     beta= 0.70
     Davidson diagonalization with overlap
     ethr =  2.96E-06,  avg # of iterations =  2.9

     total cpu time spent up to now is        8.3 secs

     total energy              =    -495.57252913 Ry
     Harris-Foulkes estimate   =    -495.57249112 Ry
     estimated scf accuracy    <       0.00009526 Ry

     total magnetization       =     0.00 Bohr mag/cell
     absolute magnetization    =     3.84 Bohr mag/cell

     iteration #  7     ecut=    70.00 Ry     beta= 0.70
     Davidson diagonalization with overlap
     ethr =  2.98E-07,  avg # of iterations =  2.1

     total cpu time spent up to now is        9.1 secs

     total energy              =    -495.57248476 Ry
     Harris-Foulkes estimate   =    -495.57257104 Ry
     estimated scf accuracy    <       0.00004877 Ry

     total magnetization       =     0.00 Bohr mag/cell
     absolute magnetization    =     3.89 Bohr mag/cell

     iteration #  8     ecut=    70.00 Ry     beta= 0.70
     Davidson diagonalization with overlap
     ethr =  1.52E-07,  avg # of iterations =  3.0

     total cpu time spent up to now is       10.1 secs

     total energy              =    -495.57268326 Ry
     Harris-Foulkes estimate   =    -495.57269034 Ry
     estimated scf accuracy    <       0.00000798 Ry

     total magnetization       =     0.00 Bohr mag/cell
     absolute magnetization    =     4.00 Bohr mag/cell

     iteration #  9     ecut=    70.00 Ry     beta= 0.70
     Davidson diagonalization with overlap
     ethr =  2.49E-08,  avg # of iterations =  2.9

     Magnetic moment per site:
     atom:    1    charge:   14.4134    magn:    1.9412    constr:    0.0000
     atom:    2    charge:   14.4141    magn:   -1.9391    constr:    0.0000

     total cpu time spent up to now is       11.0 secs

     End of self-consistent calculation

 ------ SPIN UP ------------


          k = 0.0625 0.0625 0.0625 (  1554 PWs)   bands (ev):

   -70.2888 -67.9682 -36.3038 -36.3038 -36.3015 -34.0370 -34.0342 -34.0342
     9.5942  13.6905  13.6905  15.9491  15.9491  16.0966  18.0653  18.0653
    18.7496  19.0158  19.0158  27.0672

          k = 0.0625 0.0625 0.1875 (  1552 PWs)   bands (ev):

   -70.2871 -67.9673 -36.3175 -36.3002 -36.2991 -34.0552 -34.0358 -34.0352
    10.2097  13.9097  13.9252  15.8531  15.8862  16.2327  17.8306  18.1567
    18.2752  18.5444  18.9846  24.4429

          k = 0.0625 0.0625 0.3125 (  1552 PWs)   bands (ev):

   -70.2848 -67.9661 -36.3370 -36.2957 -36.2951 -34.0824 -34.0369 -34.0368
    11.3429  14.1277  14.3298  15.7953  15.8056  16.3304  17.4377  17.8457
    17.9706  18.2544  18.7804  21.7391

          k = 0.0625 0.0625 0.4375 (  1561 PWs)   bands (ev):

   -70.2832 -67.9653 -36.3512 -36.2931 -36.2917 -34.1020 -34.0383 -34.0375
    12.7068  13.8879  14.7188  15.7095  15.8595  16.3290  17.0862  17.6052
    17.6496  18.1700  18.5664  20.1489

          k = 0.0625 0.1875 0.1875 (  1558 PWs)   bands (ev):

   -70.2856 -67.9663 -36.3201 -36.3113 -36.2972 -34.0591 -34.0480 -34.0360
    10.7899  14.0630  14.1927  15.6574  15.7518  16.2582  17.8824  17.9650
    18.1156  18.2680  19.0467  24.6274

          k = 0.0625 0.1875 0.3125 (  1562 PWs)   bands (ev):

   -70.2835 -67.9650 -36.3385 -36.3127 -36.2937 -34.0794 -34.0507 -34.0366
    11.8288  14.1918  14.5904  15.5144  15.6476  16.0552  17.6897  17.7612
    18.0792  18.2648  18.9847  22.2362

          k = 0.0625 0.1875 0.4375 (  1561 PWs)   bands (ev):

   -70.2819 -67.9639 -36.3533 -36.3119 -36.2909 -34.0957 -34.0506 -34.0367
    13.0095  13.9221  14.8714  15.4488  15.7839  15.9053  17.4135  17.5897
    18.0357  18.5860  18.8521  20.3135

          k = 0.0625 0.3125 0.3125 (  1572 PWs)   bands (ev):

   -70.2816 -67.9633 -36.3432 -36.3345 -36.2910 -34.0782 -34.0672 -34.0359
    12.5930  14.0358  15.1694  15.2745  15.6342  15.7124  17.5573  18.0786
    18.1679  18.4993  19.1148  22.0223

          k = 0.0625 0.3125 0.4375 (  1563 PWs)   bands (ev):

   -70.2802 -67.9620 -36.3565 -36.3394 -36.2887 -34.0872 -34.0684 -34.0350
    13.2666  13.7193  15.1701  15.3271  15.5689  16.3790  17.4018  18.0948
    18.2487  18.9980  19.1318  20.4330

          k = 0.0625 0.4375 0.4375 (  1572 PWs)   bands (ev):

   -70.2789 -67.9607 -36.3597 -36.3580 -36.2872 -34.0822 -34.0805 -34.0338
    13.3492  13.5015  14.9993  15.0482  16.4809  17.0613  17.6826  18.0071
    18.4183  19.2318  19.4069  20.0166

          k = 0.1875 0.1875 0.1875 (  1562 PWs)   bands (ev):

   -70.2842 -67.9653 -36.3160 -36.3160 -36.3096 -34.0587 -34.0497 -34.0497
    11.3498  14.3366  14.3366  15.5288  15.5288  15.9388  18.0249  18.0249
    18.0399  18.6040  18.6040  25.6151

          k = 0.1875 0.1875 0.3125 (  1559 PWs)   bands (ev):

   -70.2821 -67.9637 -36.3374 -36.3120 -36.3099 -34.0766 -34.0519 -34.0501
    12.3289  14.5481  14.5744  15.3330  15.4174  15.6297  17.8389  17.9982
    18.1519  18.5181  18.8152  22.9599

          k = 0.1875 0.1875 0.4375 (  1561 PWs)   bands (ev):

   -70.2807 -67.9626 -36.3534 -36.3126 -36.3060 -34.0922 -34.0539 -34.0472
    13.3852  14.1616  14.8103  15.1423  15.4787  15.9191  17.5869  17.6401
    17.9417  18.9082  19.3256  20.8114

          k = 0.1875 0.3125 0.3125 (  1560 PWs)   bands (ev):

   -70.2802 -67.9619 -36.3382 -36.3340 -36.3075 -34.0754 -34.0697 -34.0506
    13.1012  14.4029  15.0529  15.2122  15.2353  15.3888  17.6765  17.9501
    18.3578  18.8686  19.1235  23.1339

          k = 0.1875 0.3125 0.4375 (  1558 PWs)   bands (ev):

   -70.2789 -67.9606 -36.3534 -36.3355 -36.3051 -34.0874 -34.0705 -34.0498
    13.6949  14.1157  14.9619  15.0961  15.3871  16.0972  17.4187  17.6931
    18.3828  19.0633  19.9947  21.4341

          k = 0.1875 0.4375 0.4375 (  1560 PWs)   bands (ev):

   -70.2776 -67.9593 -36.3539 -36.3532 -36.3027 -34.0845 -34.0835 -34.0501
    13.7025  13.9747  14.8767  14.9008  16.2965  16.5113  17.3632  17.4115
    18.6202  19.2463  20.7217  21.4670

          k = 0.3125 0.3125 0.3125 (  1556 PWs)   bands (ev):

   -70.2784 -67.9600 -36.3339 -36.3310 -36.3310 -34.0732 -34.0732 -34.0706
    13.8460  14.8640  14.8640  14.8720  15.1974  15.1974  17.6430  17.6430
    18.7763  18.7763  19.9890  24.7829

          k = 0.3125 0.3125 0.4375 (  1555 PWs)   bands (ev):

   -70.2771 -67.9587 -36.3491 -36.3325 -36.3259 -34.0876 -34.0755 -34.0689
    14.1290  14.7286  14.7319  14.9658  15.1640  15.9166  17.2985  17.4662
    18.7599  19.1144  21.0803  22.6958

          k = 0.3125 0.4375 0.4375 (  1560 PWs)   bands (ev):

   -70.2759 -67.9574 -36.3464 -36.3461 -36.3249 -34.0881 -34.0879 -34.0736
    14.1711  14.6828  14.7029  14.8364  15.9304  15.9325  17.0849  17.2818
    18.9719  19.2688  22.2695  23.3392

          k = 0.4375 0.4375 0.4375 (  1565 PWs)   bands (ev):

   -70.2746 -67.9561 -36.3420 -36.3405 -36.3405 -34.0914 -34.0914 -34.0895
    14.4528  14.5794  14.5794  15.6585  15.6694  15.6694  17.0179  17.0179
    19.2846  19.2846  23.8812  25.4708

 ------ SPIN DOWN ----------


          k = 0.0625 0.0625 0.0625 (  1554 PWs)   bands (ev):

   -70.2881 -67.9669 -36.3030 -36.3030 -36.3008 -34.0360 -34.0331 -34.0331
     9.5946  13.6914  13.6914  15.9497  15.9497  16.0972  18.0663  18.0663
    18.7502  19.0165  19.0165  27.0676

          k = 0.0625 0.0625 0.1875 (  1552 PWs)   bands (ev):

   -70.2864 -67.9661 -36.3168 -36.2995 -36.2984 -34.0542 -34.0348 -34.0342
    10.2101  13.9106  13.9262  15.8537  15.8868  16.2333  17.8316  18.1577
    18.2757  18.5450  18.9852  24.4434

          k = 0.0625 0.0625 0.3125 (  1552 PWs)   bands (ev):

   -70.2841 -67.9649 -36.3363 -36.2949 -36.2944 -34.0813 -34.0359 -34.0358
    11.3433  14.1285  14.3308  15.7959  15.8062  16.3310  17.4387  17.8463
    17.9712  18.2553  18.7810  21.7398

          k = 0.0625 0.0625 0.4375 (  1561 PWs)   bands (ev):

   -70.2825 -67.9641 -36.3505 -36.2923 -36.2909 -34.1009 -34.0373 -34.0364
    12.7072  13.8884  14.7198  15.7101  15.8600  16.3295  17.0871  17.6057
    17.6503  18.1707  18.5670  20.1500

          k = 0.0625 0.1875 0.1875 (  1558 PWs)   bands (ev):

   -70.2850 -67.9651 -36.3193 -36.3105 -36.2965 -34.0581 -34.0470 -34.0350
    10.7902  14.0639  14.1936  15.6580  15.7524  16.2588  17.8833  17.9656
    18.1166  18.2686  19.0474  24.6280

          k = 0.0625 0.1875 0.3125 (  1562 PWs)   bands (ev):

   -70.2828 -67.9637 -36.3378 -36.3120 -36.2929 -34.0784 -34.0496 -34.0355
    11.8292  14.1926  14.5913  15.5150  15.6482  16.0557  17.6903  17.7621
    18.0797  18.2657  18.9853  22.2369

          k = 0.0625 0.1875 0.4375 (  1561 PWs)   bands (ev):

   -70.2813 -67.9627 -36.3526 -36.3112 -36.2902 -34.0947 -34.0495 -34.0357
    13.0099  13.9227  14.8724  15.4493  15.7845  15.9058  17.4143  17.5906
    18.0364  18.5866  18.8528  20.3145

          k = 0.0625 0.3125 0.3125 (  1572 PWs)   bands (ev):

   -70.2809 -67.9621 -36.3424 -36.3338 -36.2902 -34.0771 -34.0662 -34.0348
    12.5934  14.0365  15.1703  15.2751  15.6348  15.7131  17.5579  18.0796
    18.1688  18.4998  19.1155  22.0230

          k = 0.0625 0.3125 0.4375 (  1563 PWs)   bands (ev):

   -70.2795 -67.9608 -36.3557 -36.3387 -36.2880 -34.0862 -34.0674 -34.0339
    13.2671  13.7199  15.1707  15.3277  15.5697  16.3796  17.4026  18.0957
    18.2494  18.9986  19.1326  20.4339

          k = 0.0625 0.4375 0.4375 (  1572 PWs)   bands (ev):

   -70.2783 -67.9595 -36.3590 -36.3573 -36.2865 -34.0811 -34.0794 -34.0327
    13.3497  13.5021  14.9998  15.0487  16.4818  17.0620  17.6831  18.0077
    18.4193  19.2327  19.4075  20.0174

          k = 0.1875 0.1875 0.1875 (  1562 PWs)   bands (ev):

   -70.2835 -67.9640 -36.3152 -36.3152 -36.3089 -34.0576 -34.0486 -34.0486
    11.3501  14.3376  14.3376  15.5293  15.5293  15.9394  18.0259  18.0259
    18.0404  18.6047  18.6047  25.6156

          k = 0.1875 0.1875 0.3125 (  1559 PWs)   bands (ev):

   -70.2815 -67.9624 -36.3366 -36.3113 -36.3091 -34.0755 -34.0508 -34.0491
    12.3292  14.5489  14.5753  15.3336  15.4180  15.6303  17.8397  17.9991
    18.1527  18.5187  18.8160  22.9606

          k = 0.1875 0.1875 0.4375 (  1561 PWs)   bands (ev):

   -70.2800 -67.9614 -36.3526 -36.3119 -36.3052 -34.0912 -34.0528 -34.0462
    13.3857  14.1622  14.8112  15.1429  15.4793  15.9197  17.5877  17.6407
    17.9426  18.9089  19.3263  20.8122

          k = 0.1875 0.3125 0.3125 (  1560 PWs)   bands (ev):

   -70.2796 -67.9607 -36.3375 -36.3332 -36.3068 -34.0744 -34.0687 -34.0495
    13.1016  14.4036  15.0535  15.2127  15.2361  15.3895  17.6772  17.9509
    18.3587  18.8695  19.1241  23.1346

          k = 0.1875 0.3125 0.4375 (  1558 PWs)   bands (ev):

   -70.2782 -67.9594 -36.3527 -36.3348 -36.3043 -34.0863 -34.0694 -34.0488
    13.6953  14.1163  14.9625  15.0967  15.3879  16.0978  17.4195  17.6938
    18.3838  19.0643  19.9954  21.4348

          k = 0.1875 0.4375 0.4375 (  1560 PWs)   bands (ev):

   -70.2770 -67.9581 -36.3531 -36.3524 -36.3020 -34.0834 -34.0824 -34.0491
    13.7030  13.9753  14.8772  14.9014  16.2973  16.5118  17.3640  17.4123
    18.6212  19.2475  20.7223  21.4676

          k = 0.3125 0.3125 0.3125 (  1556 PWs)   bands (ev):

   -70.2777 -67.9588 -36.3332 -36.3303 -36.3303 -34.0721 -34.0721 -34.0695
    13.8463  14.8646  14.8646  14.8725  15.1981  15.1981  17.6437  17.6437
    18.7773  18.7773  19.9896  24.7835

          k = 0.3125 0.3125 0.4375 (  1555 PWs)   bands (ev):

   -70.2764 -67.9575 -36.3484 -36.3317 -36.3252 -34.0865 -34.0745 -34.0679
    14.1294  14.7291  14.7325  14.9664  15.1648  15.9171  17.2994  17.4670
    18.7610  19.1155  21.0809  22.6964

          k = 0.3125 0.4375 0.4375 (  1560 PWs)   bands (ev):

   -70.2752 -67.9562 -36.3456 -36.3454 -36.3242 -34.0871 -34.0868 -34.0726
    14.1717  14.6833  14.7034  14.8370  15.9310  15.9330  17.0859  17.2826
    18.9730  19.2701  22.2700  23.3397

          k = 0.4375 0.4375 0.4375 (  1565 PWs)   bands (ev):

   -70.2740 -67.9549 -36.3413 -36.3397 -36.3397 -34.0903 -34.0903 -34.0885
    14.4533  14.5799  14.5799  15.6590  15.6699  15.6699  17.0189  17.0189
    19.2858  19.2858  23.8817  25.4712

     the Fermi energy is    18.0235 ev

!    total energy              =    -495.57269545 Ry
     Harris-Foulkes estimate   =    -495.57269552 Ry
     estimated scf accuracy    <       0.00000040 Ry

     The total energy is the sum of the following terms:

     one-electron contribution =    -227.17734100 Ry
     hartree contribution      =     131.74765087 Ry
     xc contribution           =     -55.38155051 Ry
     ewald contribution        =    -344.75849367 Ry
     smearing contrib. (-TS)   =      -0.00296113 Ry

     total magnetization       =     0.00 Bohr mag/cell
     absolute magnetization    =     4.03 Bohr mag/cell

     convergence has been achieved in   9 iterations

     Writing output data file fe-7.save/

     init_run     :      0.50s CPU      0.52s WALL (       1 calls)
     electrons    :      8.77s CPU      9.02s WALL (       1 calls)

     Called by init_run:
     wfcinit      :      0.22s CPU      0.23s WALL (       1 calls)
     potinit      :      0.04s CPU      0.04s WALL (       1 calls)
     hinit0       :      0.20s CPU      0.20s WALL (       1 calls)

     Called by electrons:
     c_bands      :      7.02s CPU      7.22s WALL (      10 calls)
     sum_band     :      1.32s CPU      1.36s WALL (      10 calls)
     v_of_rho     :      0.17s CPU      0.17s WALL (      10 calls)
     newd         :      0.28s CPU      0.29s WALL (      10 calls)
     mix_rho      :      0.02s CPU      0.02s WALL (      10 calls)

     Called by c_bands:
     init_us_2    :      0.08s CPU      0.09s WALL (     840 calls)
     cegterg      :      6.68s CPU      6.87s WALL (     400 calls)

     Called by sum_band:
     sum_band:bec :      0.01s CPU      0.01s WALL (     400 calls)
     addusdens    :      0.47s CPU      0.47s WALL (      10 calls)

     Called by *egterg:
     h_psi        :      3.78s CPU      3.89s WALL (    1530 calls)
     s_psi        :      0.34s CPU      0.35s WALL (    1530 calls)
     g_psi        :      0.03s CPU      0.03s WALL (    1090 calls)
     cdiaghg      :      0.99s CPU      1.02s WALL (    1450 calls)

     Called by h_psi:
     h_psi:pot    :      3.77s CPU      3.88s WALL (    1530 calls)
     h_psi:calbec :      0.46s CPU      0.47s WALL (    1530 calls)
     vloc_psi     :      2.97s CPU      3.05s WALL (    1530 calls)
     add_vuspsi   :      0.34s CPU      0.35s WALL (    1530 calls)

     General routines
     calbec       :      0.64s CPU      0.66s WALL (    1930 calls)
     fft          :      0.08s CPU      0.08s WALL (     246 calls)
     ffts         :      0.01s CPU      0.01s WALL (      40 calls)
     fftw         :      3.16s CPU      3.25s WALL (   51862 calls)
     interpolate  :      0.01s CPU      0.01s WALL (      20 calls)

     Parallel routines
     fft_scatt_xy :      0.28s CPU      0.29s WALL (   52148 calls)
     fft_scatt_yz :      1.29s CPU      1.33s WALL (   52148 calls)

     PWSCF        :     10.74s CPU     11.05s WALL


   This run was terminated on:  10:43:11  17Mar2022            

=------------------------------------------------------------------------------=
   JOB DONE.
=------------------------------------------------------------------------------=
