
     Program PWSCF v.6.4.1 starts on 17Mar2022 at 10:43:11 

     This program is part of the open-source Quantum ESPRESSO suite
     for quantum simulation of materials; please cite
         "P. Giannozzi et al., J. Phys.:Condens. Matter 21 395502 (2009);
         "P. Giannozzi et al., J. Phys.:Condens. Matter 29 465901 (2017);
          URL http://www.quantum-espresso.org", 
     in publications or presentations arising from this work. More details at
     http://www.quantum-espresso.org/quote

     Parallel version (MPI), running on     6 processors

     MPI processes distributed on     1 nodes
     R & G space division:  proc/nbgrp/npool/nimage =       6
     Reading input from fe-8.in

     Current dimensions of program PWSCF are:
     Max number of different atomic species (ntypx) = 10
     Max number of k-points (npk) =  40000
     Max angular momentum in pseudopotentials (lmaxx) =  3

     Subspace diagonalization in iterative solution of the eigenvalue problem:
     a serial algorithm will be used

     Message from routine setup:
     DEPRECATED: symmetry with ibrav=0, use correct ibrav instead

     Parallelization info
     --------------------
     sticks:   dense  smooth     PW     G-vecs:    dense   smooth      PW
     Min         217     109     32                 5917     2087     350
     Max         218     110     33                 5922     2090     353
     Sum        1305     657    193                35513    12533    2103



     bravais-lattice index     =            0
     lattice parameter (alat)  =       5.4046  a.u.
     unit-cell volume          =     157.8682 (a.u.)^3
     number of atoms/cell      =            2
     number of atomic types    =            2
     number of electrons       =        32.00
     number of Kohn-Sham states=           20
     kinetic-energy cutoff     =      70.0000  Ry
     charge density cutoff     =     560.0000  Ry
     convergence threshold     =      1.0E-06
     mixing beta               =       0.7000
     number of iterations used =            8  plain     mixing
     Exchange-correlation      = PBE ( 1  4  3  4 0 0)

     celldm(1)=   5.404617  celldm(2)=   0.000000  celldm(3)=   0.000000
     celldm(4)=   0.000000  celldm(5)=   0.000000  celldm(6)=   0.000000

     crystal axes: (cart. coord. in units of alat)
               a(1) = (   1.000000   0.000000   0.000000 )  
               a(2) = (   0.000000   1.000000   0.000000 )  
               a(3) = (   0.000000   0.000000   1.000000 )  

     reciprocal axes: (cart. coord. in units 2 pi/alat)
               b(1) = (  1.000000  0.000000  0.000000 )  
               b(2) = (  0.000000  1.000000  0.000000 )  
               b(3) = (  0.000000  0.000000  1.000000 )  


     PseudoPot. # 1 for Fe read from file:
     /home/cristian/Escritorio/Proyecto_Grafeno/pseudopotenciales/Fe.pbe-spn-rrkjus_psl.1.0.0.UPF
     MD5 check sum: 72ea77fed8e64ab3a2ccf2804dfc1862
     Pseudo is Ultrasoft + core correction, Zval = 16.0
     Generated using "atomic" code by A. Dal Corso v.6.3
     Using radial grid of 1191 points,  6 beta functions with: 
                l(1) =   0
                l(2) =   0
                l(3) =   1
                l(4) =   1
                l(5) =   2
                l(6) =   2
     Q(r) pseudized with 0 coefficients 


     PseudoPot. # 2 for Fe read from file:
     /home/cristian/Escritorio/Proyecto_Grafeno/pseudopotenciales/Fe.pbe-spn-rrkjus_psl.1.0.0.UPF
     MD5 check sum: 72ea77fed8e64ab3a2ccf2804dfc1862
     Pseudo is Ultrasoft + core correction, Zval = 16.0
     Generated using "atomic" code by A. Dal Corso v.6.3
     Using radial grid of 1191 points,  6 beta functions with: 
                l(1) =   0
                l(2) =   0
                l(3) =   1
                l(4) =   1
                l(5) =   2
                l(6) =   2
     Q(r) pseudized with 0 coefficients 


     atomic species   valence    mass     pseudopotential
        Fe1           16.00    55.84500     Fe( 1.00)
        Fe2           16.00    55.84500     Fe( 1.00)

     Starting magnetic structure 
     atomic species   magnetization
        Fe1          0.100
        Fe2         -0.100

     48 Sym. Ops., with inversion, found



   Cartesian axes

     site n.     atom                  positions (alat units)
         1           Fe1 tau(   1) = (   0.0000000   0.0000000   0.0000000  )
         2           Fe2 tau(   2) = (   0.5000000   0.5000000   0.5000000  )

     number of k points=    20  Methfessel-Paxton smearing, width (Ry)=  0.0300
                       cart. coord. in units 2pi/alat
        k(    1) = (   0.0625000   0.0625000   0.0625000), wk =   0.0156250
        k(    2) = (   0.0625000   0.0625000   0.1875000), wk =   0.0468750
        k(    3) = (   0.0625000   0.0625000   0.3125000), wk =   0.0468750
        k(    4) = (   0.0625000   0.0625000   0.4375000), wk =   0.0468750
        k(    5) = (   0.0625000   0.1875000   0.1875000), wk =   0.0468750
        k(    6) = (   0.0625000   0.1875000   0.3125000), wk =   0.0937500
        k(    7) = (   0.0625000   0.1875000   0.4375000), wk =   0.0937500
        k(    8) = (   0.0625000   0.3125000   0.3125000), wk =   0.0468750
        k(    9) = (   0.0625000   0.3125000   0.4375000), wk =   0.0937500
        k(   10) = (   0.0625000   0.4375000   0.4375000), wk =   0.0468750
        k(   11) = (   0.1875000   0.1875000   0.1875000), wk =   0.0156250
        k(   12) = (   0.1875000   0.1875000   0.3125000), wk =   0.0468750
        k(   13) = (   0.1875000   0.1875000   0.4375000), wk =   0.0468750
        k(   14) = (   0.1875000   0.3125000   0.3125000), wk =   0.0468750
        k(   15) = (   0.1875000   0.3125000   0.4375000), wk =   0.0937500
        k(   16) = (   0.1875000   0.4375000   0.4375000), wk =   0.0468750
        k(   17) = (   0.3125000   0.3125000   0.3125000), wk =   0.0156250
        k(   18) = (   0.3125000   0.3125000   0.4375000), wk =   0.0468750
        k(   19) = (   0.3125000   0.4375000   0.4375000), wk =   0.0468750
        k(   20) = (   0.4375000   0.4375000   0.4375000), wk =   0.0156250

     Dense  grid:    35513 G-vectors     FFT dimensions: (  45,  45,  45)

     Smooth grid:    12533 G-vectors     FFT dimensions: (  30,  30,  30)

     Estimated max dynamical RAM per process >      29.80 MB

     Estimated total dynamical RAM >     178.81 MB
     Generating pointlists ...
     new r_m :   0.3572 (alat units)  1.9307 (a.u.) for type    1
     new r_m :   0.3572 (alat units)  1.9307 (a.u.) for type    2

     Check: negative core charge=   -0.000002

     Initial potential from superposition of free atoms

     starting charge   31.99912, renormalised to   32.00000
     Starting wfcs are   20 randomized atomic wfcs

     total cpu time spent up to now is        2.0 secs

     Self-consistent Calculation

     iteration #  1     ecut=    70.00 Ry     beta= 0.70
     Davidson diagonalization with overlap
     ethr =  1.00E-02,  avg # of iterations =  3.1

     Threshold (ethr) on eigenvalues was too large:
     Diagonalizing with lowered threshold

     Davidson diagonalization with overlap
     ethr =  1.62E-04,  avg # of iterations =  2.0

     total cpu time spent up to now is        3.6 secs

     total energy              =    -495.53750884 Ry
     Harris-Foulkes estimate   =    -495.57074986 Ry
     estimated scf accuracy    <       0.05627917 Ry

     total magnetization       =    -0.00 Bohr mag/cell
     absolute magnetization    =     3.04 Bohr mag/cell

     iteration #  2     ecut=    70.00 Ry     beta= 0.70
     Davidson diagonalization with overlap
     ethr =  1.76E-04,  avg # of iterations =  3.0

     total cpu time spent up to now is        4.7 secs

     total energy              =    -495.53685119 Ry
     Harris-Foulkes estimate   =    -495.60615759 Ry
     estimated scf accuracy    <       0.19083582 Ry

     total magnetization       =    -0.00 Bohr mag/cell
     absolute magnetization    =     3.39 Bohr mag/cell

     iteration #  3     ecut=    70.00 Ry     beta= 0.70
     Davidson diagonalization with overlap
     ethr =  1.76E-04,  avg # of iterations =  3.0

     total cpu time spent up to now is        5.8 secs

     total energy              =    -495.57012225 Ry
     Harris-Foulkes estimate   =    -495.56856249 Ry
     estimated scf accuracy    <       0.00179600 Ry

     total magnetization       =     0.00 Bohr mag/cell
     absolute magnetization    =     3.34 Bohr mag/cell

     iteration #  4     ecut=    70.00 Ry     beta= 0.70
     Davidson diagonalization with overlap
     ethr =  5.61E-06,  avg # of iterations =  2.3

     total cpu time spent up to now is        6.6 secs

     total energy              =    -495.57080564 Ry
     Harris-Foulkes estimate   =    -495.57136147 Ry
     estimated scf accuracy    <       0.00455267 Ry

     total magnetization       =    -0.06 Bohr mag/cell
     absolute magnetization    =     3.55 Bohr mag/cell

     iteration #  5     ecut=    70.00 Ry     beta= 0.70
     Davidson diagonalization with overlap
     ethr =  5.61E-06,  avg # of iterations =  2.1

     total cpu time spent up to now is        7.4 secs

     total energy              =    -495.57090150 Ry
     Harris-Foulkes estimate   =    -495.57162318 Ry
     estimated scf accuracy    <       0.00844942 Ry

     total magnetization       =     0.08 Bohr mag/cell
     absolute magnetization    =     3.57 Bohr mag/cell

     iteration #  6     ecut=    70.00 Ry     beta= 0.70
     Davidson diagonalization with overlap
     ethr =  5.61E-06,  avg # of iterations =  2.5

     total cpu time spent up to now is        8.2 secs

     total energy              =    -495.57250633 Ry
     Harris-Foulkes estimate   =    -495.57247196 Ry
     estimated scf accuracy    <       0.00009807 Ry

     total magnetization       =     0.00 Bohr mag/cell
     absolute magnetization    =     3.84 Bohr mag/cell

     iteration #  7     ecut=    70.00 Ry     beta= 0.70
     Davidson diagonalization with overlap
     ethr =  3.06E-07,  avg # of iterations =  2.7

     total cpu time spent up to now is        9.1 secs

     total energy              =    -495.57248971 Ry
     Harris-Foulkes estimate   =    -495.57255524 Ry
     estimated scf accuracy    <       0.00004924 Ry

     total magnetization       =     0.00 Bohr mag/cell
     absolute magnetization    =     3.89 Bohr mag/cell

     iteration #  8     ecut=    70.00 Ry     beta= 0.70
     Davidson diagonalization with overlap
     ethr =  1.54E-07,  avg # of iterations =  3.1

     total cpu time spent up to now is       10.2 secs

     total energy              =    -495.57266204 Ry
     Harris-Foulkes estimate   =    -495.57266903 Ry
     estimated scf accuracy    <       0.00001206 Ry

     total magnetization       =     0.00 Bohr mag/cell
     absolute magnetization    =     4.00 Bohr mag/cell

     iteration #  9     ecut=    70.00 Ry     beta= 0.70
     Davidson diagonalization with overlap
     ethr =  3.77E-08,  avg # of iterations =  2.7

     total cpu time spent up to now is       11.1 secs

     total energy              =    -495.57267590 Ry
     Harris-Foulkes estimate   =    -495.57267663 Ry
     estimated scf accuracy    <       0.00000104 Ry

     total magnetization       =     0.00 Bohr mag/cell
     absolute magnetization    =     4.02 Bohr mag/cell

     iteration # 10     ecut=    70.00 Ry     beta= 0.70
     Davidson diagonalization with overlap
     ethr =  3.25E-09,  avg # of iterations =  3.0

     Magnetic moment per site:
     atom:    1    charge:   14.4130    magn:    1.9446    constr:    0.0000
     atom:    2    charge:   14.4140    magn:   -1.9407    constr:    0.0000

     total cpu time spent up to now is       12.1 secs

     End of self-consistent calculation

 ------ SPIN UP ------------


          k = 0.0625 0.0625 0.0625 (  1554 PWs)   bands (ev):

   -70.2903 -67.9656 -36.3052 -36.3052 -36.3030 -34.0345 -34.0316 -34.0316
     9.5942  13.6901  13.6901  15.9480  15.9480  16.0953  18.0658  18.0658
    18.7519  19.0179  19.0179  27.0673

          k = 0.0625 0.0625 0.1875 (  1552 PWs)   bands (ev):

   -70.2886 -67.9647 -36.3190 -36.3017 -36.3006 -34.0527 -34.0333 -34.0327
    10.2097  13.9094  13.9249  15.8520  15.8850  16.2310  17.8312  18.1573
    18.2775  18.5465  18.9866  24.4431

          k = 0.0625 0.0625 0.3125 (  1552 PWs)   bands (ev):

   -70.2863 -67.9635 -36.3385 -36.2971 -36.2966 -34.0799 -34.0344 -34.0343
    11.3429  14.1274  14.3293  15.7938  15.8043  16.3285  17.4384  17.8481
    17.9730  18.2549  18.7827  21.7396

          k = 0.0625 0.0625 0.4375 (  1561 PWs)   bands (ev):

   -70.2847 -67.9627 -36.3527 -36.2946 -36.2931 -34.0994 -34.0358 -34.0349
    12.7067  13.8878  14.7182  15.7078  15.8579  16.3275  17.0868  17.6078
    17.6506  18.1705  18.5691  20.1502

          k = 0.0625 0.1875 0.1875 (  1558 PWs)   bands (ev):

   -70.2872 -67.9638 -36.3215 -36.3127 -36.2987 -34.0566 -34.0455 -34.0335
    10.7898  14.0626  14.1923  15.6565  15.7505  16.2562  17.8834  17.9673
    18.1161  18.2702  19.0486  24.6277

          k = 0.0625 0.1875 0.3125 (  1562 PWs)   bands (ev):

   -70.2850 -67.9624 -36.3400 -36.3142 -36.2951 -34.0769 -34.0482 -34.0340
    11.8288  14.1914  14.5900  15.5135  15.6464  16.0536  17.6914  17.7619
    18.0814  18.2656  18.9865  22.2367

          k = 0.0625 0.1875 0.4375 (  1561 PWs)   bands (ev):

   -70.2835 -67.9613 -36.3548 -36.3134 -36.2924 -34.0932 -34.0480 -34.0342
    13.0094  13.9218  14.8709  15.4475  15.7830  15.9045  17.4146  17.5902
    18.0368  18.5875  18.8539  20.3146

          k = 0.0625 0.3125 0.3125 (  1572 PWs)   bands (ev):

   -70.2831 -67.9607 -36.3446 -36.3360 -36.2925 -34.0757 -34.0647 -34.0334
    12.5929  14.0354  15.1688  15.2739  15.6330  15.7116  17.5590  18.0792
    18.1684  18.5012  19.1164  22.0227

          k = 0.0625 0.3125 0.4375 (  1563 PWs)   bands (ev):

   -70.2817 -67.9594 -36.3579 -36.3409 -36.2902 -34.0847 -34.0659 -34.0324
    13.2665  13.7190  15.1693  15.3263  15.5682  16.3787  17.4026  18.0953
    18.2494  18.9996  19.1332  20.4339

          k = 0.0625 0.4375 0.4375 (  1572 PWs)   bands (ev):

   -70.2805 -67.9582 -36.3612 -36.3595 -36.2887 -34.0797 -34.0780 -34.0313
    13.3487  13.5015  14.9987  15.0475  16.4802  17.0613  17.6834  18.0074
    18.4189  19.2332  19.4082  20.0176

          k = 0.1875 0.1875 0.1875 (  1562 PWs)   bands (ev):

   -70.2857 -67.9627 -36.3174 -36.3174 -36.3111 -34.0561 -34.0471 -34.0471
    11.3498  14.3363  14.3363  15.5278  15.5278  15.9373  18.0256  18.0256
    18.0422  18.6057  18.6057  25.6153

          k = 0.1875 0.1875 0.3125 (  1559 PWs)   bands (ev):

   -70.2837 -67.9611 -36.3388 -36.3135 -36.3113 -34.0741 -34.0494 -34.0476
    12.3288  14.5477  14.5739  15.3319  15.4166  15.6289  17.8403  17.9989
    18.1529  18.5198  18.8167  22.9604

          k = 0.1875 0.1875 0.4375 (  1561 PWs)   bands (ev):

   -70.2822 -67.9600 -36.3548 -36.3141 -36.3074 -34.0897 -34.0513 -34.0447
    13.3851  14.1612  14.8099  15.1411  15.4777  15.9192  17.5867  17.6421
    17.9422  18.9098  19.3267  20.8124

          k = 0.1875 0.3125 0.3125 (  1560 PWs)   bands (ev):

   -70.2818 -67.9593 -36.3397 -36.3354 -36.3090 -34.0729 -34.0672 -34.0480
    13.1011  14.4025  15.0518  15.2111  15.2352  15.3886  17.6780  17.9509
    18.3585  18.8698  19.1248  23.1344

          k = 0.1875 0.3125 0.4375 (  1558 PWs)   bands (ev):

   -70.2804 -67.9581 -36.3549 -36.3370 -36.3065 -34.0848 -34.0680 -34.0473
    13.6943  14.1156  14.9607  15.0955  15.3866  16.0978  17.4191  17.6942
    18.3835  19.0647  19.9958  21.4348

          k = 0.1875 0.4375 0.4375 (  1560 PWs)   bands (ev):

   -70.2792 -67.9567 -36.3553 -36.3546 -36.3042 -34.0820 -34.0810 -34.0476
    13.7015  13.9752  14.8758  14.8999  16.2964  16.5119  17.3635  17.4122
    18.6209  19.2477  20.7225  21.4676

          k = 0.3125 0.3125 0.3125 (  1556 PWs)   bands (ev):

   -70.2799 -67.9574 -36.3354 -36.3325 -36.3325 -34.0706 -34.0706 -34.0681
    13.8454  14.8627  14.8627  14.8723  15.1976  15.1976  17.6439  17.6439
    18.7773  18.7773  19.9899  24.7833

          k = 0.3125 0.3125 0.4375 (  1555 PWs)   bands (ev):

   -70.2786 -67.9561 -36.3506 -36.3339 -36.3274 -34.0850 -34.0730 -34.0664
    14.1278  14.7291  14.7305  14.9647  15.1645  15.9178  17.2985  17.4672
    18.7609  19.1157  21.0811  22.6964

          k = 0.3125 0.4375 0.4375 (  1560 PWs)   bands (ev):

   -70.2774 -67.9548 -36.3478 -36.3476 -36.3264 -34.0856 -34.0853 -34.0711
    14.1698  14.6819  14.7016  14.8368  15.9314  15.9339  17.0847  17.2821
    18.9730  19.2703  22.2700  23.3396

          k = 0.4375 0.4375 0.4375 (  1565 PWs)   bands (ev):

   -70.2762 -67.9536 -36.3435 -36.3419 -36.3419 -34.0888 -34.0888 -34.0870
    14.4514  14.5778  14.5778  15.6603  15.6709  15.6709  17.0174  17.0174
    19.2860  19.2860  23.8815  25.4710

 ------ SPIN DOWN ----------


          k = 0.0625 0.0625 0.0625 (  1554 PWs)   bands (ev):

   -70.2879 -67.9641 -36.3028 -36.3028 -36.3006 -34.0332 -34.0303 -34.0303
     9.5947  13.6921  13.6921  15.9495  15.9495  16.0969  18.0680  18.0680
    18.7528  19.0189  19.0189  27.0679

          k = 0.0625 0.0625 0.1875 (  1552 PWs)   bands (ev):

   -70.2862 -67.9633 -36.3166 -36.2992 -36.2982 -34.0514 -34.0320 -34.0314
    10.2102  13.9113  13.9269  15.8535  15.8865  16.2327  17.8332  18.1593
    18.2784  18.5474  18.9876  24.4439

          k = 0.0625 0.0625 0.3125 (  1552 PWs)   bands (ev):

   -70.2839 -67.9621 -36.3360 -36.2947 -36.2942 -34.0785 -34.0330 -34.0330
    11.3434  14.1291  14.3315  15.7954  15.8058  16.3302  17.4402  17.8489
    17.9738  18.2569  18.7836  21.7408

          k = 0.0625 0.0625 0.4375 (  1561 PWs)   bands (ev):

   -70.2823 -67.9613 -36.3503 -36.2921 -36.2907 -34.0981 -34.0344 -34.0336
    12.7074  13.8888  14.7205  15.7095  15.8595  16.3291  17.0885  17.6085
    17.6520  18.1721  18.5699  20.1519

          k = 0.0625 0.1875 0.1875 (  1558 PWs)   bands (ev):

   -70.2847 -67.9623 -36.3191 -36.3103 -36.2962 -34.0553 -34.0442 -34.0322
    10.7903  14.0646  14.1943  15.6579  15.7521  16.2579  17.8852  17.9682
    18.1182  18.2711  19.0496  24.6286

          k = 0.0625 0.1875 0.3125 (  1562 PWs)   bands (ev):

   -70.2826 -67.9609 -36.3375 -36.3117 -36.2927 -34.0756 -34.0468 -34.0327
    11.8293  14.1932  14.5920  15.5149  15.6479  16.0552  17.6926  17.7636
    18.0823  18.2674  18.9876  22.2378

          k = 0.0625 0.1875 0.4375 (  1561 PWs)   bands (ev):

   -70.2811 -67.9599 -36.3523 -36.3110 -36.2899 -34.0919 -34.0467 -34.0329
    13.0102  13.9230  14.8730  15.4490  15.7844  15.9059  17.4161  17.5920
    18.0381  18.5886  18.8550  20.3162

          k = 0.0625 0.3125 0.3125 (  1572 PWs)   bands (ev):

   -70.2807 -67.9593 -36.3422 -36.3335 -36.2900 -34.0743 -34.0634 -34.0320
    12.5936  14.0369  15.1707  15.2753  15.6345  15.7131  17.5601  18.0810
    18.1703  18.5021  19.1176  22.0239

          k = 0.0625 0.3125 0.4375 (  1563 PWs)   bands (ev):

   -70.2793 -67.9580 -36.3555 -36.3384 -36.2877 -34.0834 -34.0646 -34.0311
    13.2674  13.7203  15.1706  15.3277  15.5702  16.3799  17.4042  18.0971
    18.2509  19.0006  19.1345  20.4354

          k = 0.0625 0.4375 0.4375 (  1572 PWs)   bands (ev):

   -70.2780 -67.9567 -36.3587 -36.3571 -36.2863 -34.0783 -34.0766 -34.0299
    13.3498  13.5028  15.0000  15.0488  16.4824  17.0628  17.6844  18.0087
    18.4208  19.2348  19.4093  20.0189

          k = 0.1875 0.1875 0.1875 (  1562 PWs)   bands (ev):

   -70.2833 -67.9612 -36.3150 -36.3150 -36.3086 -34.0548 -34.0458 -34.0458
    11.3503  14.3382  14.3382  15.5292  15.5292  15.9388  18.0276  18.0276
    18.0430  18.6068  18.6068  25.6163

          k = 0.1875 0.1875 0.3125 (  1559 PWs)   bands (ev):

   -70.2812 -67.9596 -36.3364 -36.3110 -36.3089 -34.0727 -34.0480 -34.0463
    12.3294  14.5494  14.5759  15.3334  15.4180  15.6303  17.8418  18.0006
    18.1544  18.5208  18.8181  22.9615

          k = 0.1875 0.1875 0.4375 (  1561 PWs)   bands (ev):

   -70.2798 -67.9585 -36.3524 -36.3117 -36.3050 -34.0884 -34.0500 -34.0434
    13.3859  14.1624  14.8119  15.1426  15.4791  15.9204  17.5887  17.6432
    17.9440  18.9111  19.3280  20.8137

          k = 0.1875 0.3125 0.3125 (  1560 PWs)   bands (ev):

   -70.2794 -67.9579 -36.3372 -36.3330 -36.3066 -34.0716 -34.0659 -34.0467
    13.1017  14.4041  15.0533  15.2125  15.2369  15.3901  17.6793  17.9526
    18.3603  18.8714  19.1258  23.1355

          k = 0.1875 0.3125 0.4375 (  1558 PWs)   bands (ev):

   -70.2780 -67.9566 -36.3525 -36.3345 -36.3041 -34.0835 -34.0666 -34.0459
    13.6953  14.1169  14.9621  15.0968  15.3884  16.0988  17.4209  17.6956
    18.3854  19.0664  19.9969  21.4360

          k = 0.1875 0.4375 0.4375 (  1560 PWs)   bands (ev):

   -70.2767 -67.9553 -36.3529 -36.3522 -36.3017 -34.0806 -34.0796 -34.0463
    13.7027  13.9764  14.8771  14.9012  16.2981  16.5128  17.3652  17.4139
    18.6228  19.2497  20.7235  21.4686

          k = 0.3125 0.3125 0.3125 (  1556 PWs)   bands (ev):

   -70.2775 -67.9560 -36.3329 -36.3301 -36.3301 -34.0693 -34.0693 -34.0668
    13.8462  14.8641  14.8641  14.8732  15.1992  15.1992  17.6455  17.6455
    18.7792  18.7792  19.9910  24.7843

          k = 0.3125 0.3125 0.4375 (  1555 PWs)   bands (ev):

   -70.2762 -67.9547 -36.3482 -36.3315 -36.3249 -34.0837 -34.0717 -34.0651
    14.1290  14.7301  14.7319  14.9660  15.1660  15.9187  17.3006  17.4688
    18.7628  19.1176  21.0821  22.6974

          k = 0.3125 0.4375 0.4375 (  1560 PWs)   bands (ev):

   -70.2750 -67.9534 -36.3454 -36.3451 -36.3240 -34.0843 -34.0840 -34.0698
    14.1711  14.6832  14.7030  14.8380  15.9325  15.9346  17.0869  17.2841
    18.9750  19.2723  22.2709  23.3405

          k = 0.4375 0.4375 0.4375 (  1565 PWs)   bands (ev):

   -70.2738 -67.9521 -36.3411 -36.3395 -36.3395 -34.0875 -34.0875 -34.0857
    14.4527  14.5792  14.5792  15.6609  15.6718  15.6718  17.0199  17.0199
    19.2880  19.2880  23.8824  25.4718

     the Fermi energy is    18.0249 ev

!    total energy              =    -495.57267697 Ry
     Harris-Foulkes estimate   =    -495.57267711 Ry
     estimated scf accuracy    <       0.00000018 Ry

     The total energy is the sum of the following terms:

     one-electron contribution =    -227.17421780 Ry
     hartree contribution      =     131.74448529 Ry
     xc contribution           =     -55.38147904 Ry
     ewald contribution        =    -344.75849367 Ry
     smearing contrib. (-TS)   =      -0.00297175 Ry

     total magnetization       =     0.00 Bohr mag/cell
     absolute magnetization    =     4.03 Bohr mag/cell

     convergence has been achieved in  10 iterations

     Writing output data file fe-8.save/

     init_run     :      0.53s CPU      0.55s WALL (       1 calls)
     electrons    :      9.90s CPU     10.14s WALL (       1 calls)

     Called by init_run:
     wfcinit      :      0.20s CPU      0.21s WALL (       1 calls)
     potinit      :      0.06s CPU      0.06s WALL (       1 calls)
     hinit0       :      0.22s CPU      0.22s WALL (       1 calls)

     Called by electrons:
     c_bands      :      7.64s CPU      7.83s WALL (      11 calls)
     sum_band     :      1.61s CPU      1.64s WALL (      11 calls)
     v_of_rho     :      0.28s CPU      0.28s WALL (      11 calls)
     newd         :      0.38s CPU      0.39s WALL (      11 calls)
     mix_rho      :      0.02s CPU      0.02s WALL (      11 calls)

     Called by c_bands:
     init_us_2    :      0.09s CPU      0.09s WALL (     920 calls)
     cegterg      :      7.25s CPU      7.44s WALL (     440 calls)

     Called by sum_band:
     sum_band:bec :      0.01s CPU      0.01s WALL (     440 calls)
     addusdens    :      0.62s CPU      0.63s WALL (      11 calls)

     Called by *egterg:
     h_psi        :      4.11s CPU      4.22s WALL (    1662 calls)
     s_psi        :      0.37s CPU      0.38s WALL (    1662 calls)
     g_psi        :      0.04s CPU      0.04s WALL (    1182 calls)
     cdiaghg      :      1.05s CPU      1.07s WALL (    1582 calls)

     Called by h_psi:
     h_psi:pot    :      4.10s CPU      4.21s WALL (    1662 calls)
     h_psi:calbec :      0.50s CPU      0.52s WALL (    1662 calls)
     vloc_psi     :      3.22s CPU      3.31s WALL (    1662 calls)
     add_vuspsi   :      0.37s CPU      0.38s WALL (    1662 calls)

     General routines
     calbec       :      0.70s CPU      0.72s WALL (    2102 calls)
     fft          :      0.13s CPU      0.13s WALL (     271 calls)
     ffts         :      0.01s CPU      0.01s WALL (      44 calls)
     fftw         :      3.48s CPU      3.57s WALL (   55500 calls)
     interpolate  :      0.02s CPU      0.02s WALL (      22 calls)

     Parallel routines
     fft_scatt_xy :      0.31s CPU      0.32s WALL (   55815 calls)
     fft_scatt_yz :      1.47s CPU      1.51s WALL (   55815 calls)

     PWSCF        :     11.90s CPU     12.17s WALL


   This run was terminated on:  10:43:23  17Mar2022            

=------------------------------------------------------------------------------=
   JOB DONE.
=------------------------------------------------------------------------------=
