
     Program PWSCF v.6.4.1 starts on  5Sep2023 at 23:26:56 

     This program is part of the open-source Quantum ESPRESSO suite
     for quantum simulation of materials; please cite
         "P. Giannozzi et al., J. Phys.:Condens. Matter 21 395502 (2009);
         "P. Giannozzi et al., J. Phys.:Condens. Matter 29 465901 (2017);
          URL http://www.quantum-espresso.org", 
     in publications or presentations arising from this work. More details at
     http://www.quantum-espresso.org/quote

     Parallel version (MPI), running on     6 processors

     MPI processes distributed on     1 nodes
     R & G space division:  proc/nbgrp/npool/nimage =       6
     Reading input from ni-vcrelax-2.in

     Current dimensions of program PWSCF are:
     Max number of different atomic species (ntypx) = 10
     Max number of k-points (npk) =  40000
     Max angular momentum in pseudopotentials (lmaxx) =  3

     IMPORTANT: XC functional enforced from input :
     Exchange-correlation      = RVV10 ( 1  4 13  4 3 0)
     Any further DFT definition will be discarded
     Please, verify this is what you really want

               file H.pbe-rrkjus.UPF: wavefunction(s)  1S renormalized

     Subspace diagonalization in iterative solution of the eigenvalue problem:
     a serial algorithm will be used


     Parallelization info
     --------------------
     sticks:   dense  smooth     PW     G-vecs:    dense   smooth      PW
     Min        3051    1746    432               270999   117096   14629
     Max        3053    1747    437               271001   117099   14630
     Sum       18313   10477   2611              1626001   702581   87777



     bravais-lattice index     =            4
     lattice parameter (alat)  =      23.2937  a.u.
     unit-cell volume          =    8879.8548 (a.u.)^3
     number of atoms/cell      =           52
     number of atomic types    =            3
     number of electrons       =       216.00
     number of Kohn-Sham states=          130
     kinetic-energy cutoff     =      70.0000  Ry
     charge density cutoff     =     490.0000  Ry
     convergence threshold     =      1.0E-09
     mixing beta               =       0.7000
     number of iterations used =            8  plain     mixing
     Exchange-correlation      = RVV10 ( 1  4 13  4 3 0)
     nstep                     =           50


     celldm(1)=  23.293684  celldm(2)=   0.000000  celldm(3)=   0.811261
     celldm(4)=   0.000000  celldm(5)=   0.000000  celldm(6)=   0.000000

     crystal axes: (cart. coord. in units of alat)
               a(1) = (   1.000000   0.000000   0.000000 )  
               a(2) = (  -0.500000   0.866025   0.000000 )  
               a(3) = (   0.000000   0.000000   0.811261 )  

     reciprocal axes: (cart. coord. in units 2 pi/alat)
               b(1) = (  1.000000  0.577350 -0.000000 )  
               b(2) = (  0.000000  1.154701  0.000000 )  
               b(3) = (  0.000000 -0.000000  1.232649 )  


     PseudoPot. # 1 for H  read from file:
     /home/cristian/Escritorio/Proyecto_Grafeno/pseudopotenciales/H.pbe-rrkjus.UPF
     MD5 check sum: 7cc9d459525c9a0585f487a71c3c9563
     Pseudo is Ultrasoft, Zval =  1.0
     Generated by new atomic code, or converted to UPF format
     Using radial grid of 1061 points,  2 beta functions with: 
                l(1) =   0
                l(2) =   0
     Q(r) pseudized with 0 coefficients 


     PseudoPot. # 2 for C  read from file:
     /home/cristian/Escritorio/Proyecto_Grafeno/pseudopotenciales/C.pbe-n-rrkjus_psl.1.0.0.UPF
     MD5 check sum: 1fdd950c42eb37d8afe3dd2f8d12311e
     Pseudo is Ultrasoft + core correction, Zval =  4.0
     Generated using "atomic" code by A. Dal Corso v.6.3MaX
     Using radial grid of 1073 points,  4 beta functions with: 
                l(1) =   0
                l(2) =   0
                l(3) =   1
                l(4) =   1
     Q(r) pseudized with 0 coefficients 


     PseudoPot. # 3 for Ni read from file:
     /home/cristian/Escritorio/Proyecto_Grafeno/pseudopotenciales/Ni.pbe-spn-rrkjus_psl.1.0.0.UPF
     MD5 check sum: 8b3fc9aac6dafe35f580d41bb18c3945
     Pseudo is Ultrasoft + core correction, Zval = 18.0
     Generated using "atomic" code by A. Dal Corso v.6.3
     Using radial grid of 1195 points,  6 beta functions with: 
                l(1) =   0
                l(2) =   0
                l(3) =   1
                l(4) =   1
                l(5) =   2
                l(6) =   2
     Q(r) pseudized with 0 coefficients 


     vdW kernel table read from file rVV10_kernel_table
     MD5 check sum: b8e2538accc0c0b3206b45ba4daaba6c

     atomic species   valence    mass     pseudopotential
        H              1.00     1.00794     H ( 1.00)
        C              4.00    12.01070     C ( 1.00)
        Ni            18.00    58.69340     Ni( 1.00)

     Starting magnetic structure 
     atomic species   magnetization
        H            0.500
        C            0.300
        Ni           1.000

      2 Sym. Ops. (no inversion) found


                                    s                        frac. trans.

      isym =  1     identity                                     

 cryst.   s( 1) = (     1          0          0      )
                  (     0          1          0      )
                  (     0          0          1      )

 cart.    s( 1) = (  1.0000000  0.0000000  0.0000000 )
                  (  0.0000000  1.0000000  0.0000000 )
                  (  0.0000000  0.0000000  1.0000000 )


      isym =  2     inv. 180 deg rotation - cryst. axis [1,1,0]  

 cryst.   s( 2) = (     0         -1          0      )
                  (    -1          0          0      )
                  (     0          0          1      )

 cart.    s( 2) = (  0.5000000 -0.8660254  0.0000000 )
                  ( -0.8660254 -0.5000000  0.0000000 )
                  (  0.0000000  0.0000000  1.0000000 )


     point group C_s (m)    
     there are  2 classes
     the character table:

       E     s    
A'     1.00  1.00
A''    1.00 -1.00

     the symmetry operations in each class and the name of the first element:

     E        1
          identity                                               
     s        2
          inv. 180 deg rotation - cryst. axis [1,1,0]            

   Cartesian axes

     site n.     atom                  positions (alat units)
         1           H   tau(   1) = (   0.3158350   0.3950029   0.2810788  )
         2           H   tau(   2) = (   0.3052765   0.4010988   0.2209190  )
         3           C   tau(   3) = (   0.0002176  -0.0001256   0.0083991  )
         4           C   tau(   4) = (  -0.0006594   0.1148371   0.0052838  )
         5           C   tau(   5) = (  -0.1006181   0.1730085   0.0045597  )
         6           C   tau(   6) = (  -0.1003535   0.2887038   0.0028425  )
         7           C   tau(   7) = (  -0.2007231   0.3464615   0.0059803  )
         8           C   tau(   8) = (  -0.2011635   0.4621585   0.0064752  )
         9           C   tau(   9) = (  -0.3003804   0.5201934   0.0076727  )
        10           C   tau(  10) = (  -0.3000884   0.6353820   0.0074889  )
        11           C   tau(  11) = (  -0.3996076   0.6932348   0.0074031  )
        12           C   tau(  12) = (  -0.4000829   0.8083383   0.0089403  )
        13           C   tau(  13) = (   0.1998372  -0.0005471   0.0074031  )
        14           C   tau(  14) = (   0.1996629   0.1144421   0.0019244  )
        15           C   tau(  15) = (   0.0994204   0.1716575  -0.0002863  )
        16           C   tau(  16) = (   0.0985144   0.2868826  -0.0092068  )
        17           C   tau(  17) = (  -0.0013678   0.3454027  -0.0021043  )
        18           C   tau(  18) = (  -0.0018865   0.4616361   0.0005839  )
        19           C   tau(  19) = (  -0.1015197   0.5200695   0.0048727  )
        20           C   tau(  20) = (  -0.1008500   0.6355761   0.0051948  )
        21           C   tau(  21) = (  -0.2005734   0.6931514   0.0067421  )
        22           C   tau(  22) = (  -0.2003012   0.8082186   0.0074889  )
        23           C   tau(  23) = (   0.3993091   0.0000404   0.0076727  )
        24           C   tau(  24) = (   0.3996698   0.1150402   0.0063589  )
        25           C   tau(  25) = (   0.2996943   0.1721232   0.0006607  )
        26           C   tau(  26) = (   0.3004946   0.2874790  -0.0087915  )
        27           C   tau(  27) = (   0.1996384   0.3364327  -0.0254963  )
        28           Ni  tau(  28) = (   0.1931299   0.4658466  -0.0917458  )
        29           C   tau(  29) = (   0.0925856   0.5238960  -0.0046735  )
        30           C   tau(  30) = (   0.0992682   0.6368411   0.0005839  )
        31           C   tau(  31) = (  -0.0011533   0.6939093   0.0048727  )
        32           C   tau(  32) = (  -0.0008227   0.8091589   0.0064752  )
        33           C   tau(  33) = (   0.5995940   0.0006006   0.0059803  )
        34           C   tau(  34) = (   0.5996772   0.1159463   0.0083975  )
        35           C   tau(  35) = (   0.4995700   0.1733932   0.0074941  )
        36           C   tau(  36) = (   0.4991768   0.2891504   0.0051122  )
        37           C   tau(  37) = (   0.4004639   0.3461423  -0.0041453  )
        38           C   tau(  38) = (   0.4012832   0.4620499  -0.0087915  )
        39           C   tau(  39) = (   0.3084599   0.5249171  -0.0254963  )
        40           C   tau(  40) = (   0.3008096   0.6372682  -0.0092068  )
        41           C   tau(  41) = (   0.2001886   0.6945086  -0.0021043  )
        42           C   tau(  42) = (   0.1997984   0.8085822   0.0028425  )
        43           C   tau(  43) = (   0.7998612   0.0006336   0.0045597  )
        44           C   tau(  44) = (   0.7991815   0.1159426   0.0066620  )
        45           C   tau(  45) = (   0.6995035   0.1734917   0.0086089  )
        46           C   tau(  46) = (   0.6994261   0.2887165   0.0083975  )
        47           C   tau(  47) = (   0.5996221   0.3466885   0.0074941  )
        48           C   tau(  48) = (   0.6002072   0.4623811   0.0063589  )
        49           C   tau(  49) = (   0.5007841   0.5204210   0.0006607  )
        50           C   tau(  50) = (   0.5007217   0.6358912   0.0019244  )
        51           C   tau(  51) = (   0.4010504   0.6940960  -0.0002863  )
        52           C   tau(  52) = (   0.4002185   0.8091779   0.0052838  )

   Crystallographic axes

     site n.     atom                  positions (cryst. coord.)
         1           H   tau(   1) = (  0.5438900  0.4561100  0.3464714  )
         2           H   tau(   2) = (  0.5368510  0.4631490  0.2723156  )
         3           C   tau(   3) = (  0.0001451 -0.0001451  0.0103531  )
         4           C   tau(   4) = (  0.0656418  0.1326024  0.0065131  )
         5           C   tau(   5) = ( -0.0007316  0.1997730  0.0056205  )
         6           C   tau(   6) = (  0.0663297  0.3333665  0.0035037  )
         7           C   tau(   7) = ( -0.0006935  0.4000593  0.0073717  )
         8           C   tau(   8) = (  0.0656638  0.5336546  0.0079816  )
         9           C   tau(   9) = ( -0.0000466  0.6006676  0.0094577  )
        10           C   tau(  10) = (  0.0667495  0.7336760  0.0092312  )
        11           C   tau(  11) = (  0.0006318  0.8004786  0.0091254  )
        12           C   tau(  12) = (  0.0666114  0.9333886  0.0110203  )
        13           C   tau(  13) = (  0.1995214 -0.0006318  0.0091254  )
        14           C   tau(  14) = (  0.2657361  0.1321463  0.0023721  )
        15           C   tau(  15) = (  0.1985269  0.1982131 -0.0003528  )
        16           C   tau(  16) = (  0.2641461  0.3312635 -0.0113487  )
        17           C   tau(  17) = (  0.1980505  0.3988367 -0.0025938  )
        18           C   tau(  18) = (  0.2646392  0.5330514  0.0007197  )
        19           C   tau(  19) = (  0.1987425  0.6005245  0.0060063  )
        20           C   tau(  20) = (  0.2661000  0.7339000  0.0064033  )
        21           C   tau(  21) = (  0.1996177  0.8003823  0.0083106  )
        22           C   tau(  22) = (  0.2663240  0.9332505  0.0092312  )
        23           C   tau(  23) = (  0.3993324  0.0000466  0.0094577  )
        24           C   tau(  24) = (  0.4660883  0.1328370  0.0078383  )
        25           C   tau(  25) = (  0.3990696  0.1987507  0.0008144  )
        26           C   tau(  26) = (  0.4664707  0.3319522 -0.0108368  )
        27           C   tau(  27) = (  0.3938779  0.3884790 -0.0314280  )
        28           Ni  tau(  28) = (  0.4620866  0.5379134 -0.1130903  )
        29           C   tau(  29) = (  0.3950570  0.6049430 -0.0057608  )
        30           C   tau(  30) = (  0.4669486  0.7353608  0.0007197  )
        31           C   tau(  31) = (  0.3994755  0.8012575  0.0060063  )
        32           C   tau(  32) = (  0.4663454  0.9343362  0.0079816  )
        33           C   tau(  33) = (  0.5999407  0.0006935  0.0073717  )
        34           C   tau(  34) = (  0.6666189  0.1338833  0.0103511  )
        35           C   tau(  35) = (  0.5996786  0.2002172  0.0092376  )
        36           C   tau(  36) = (  0.6661178  0.3338822  0.0063015  )
        37           C   tau(  37) = (  0.6003093  0.3996907 -0.0051097  )
        38           C   tau(  38) = (  0.6680478  0.5335293 -0.0108368  )
        39           C   tau(  39) = (  0.6115210  0.6061221 -0.0314280  )
        40           C   tau(  40) = (  0.6687365  0.7358539 -0.0113487  )
        41           C   tau(  41) = (  0.6011633  0.8019495 -0.0025938  )
        42           C   tau(  42) = (  0.6666335  0.9336703  0.0035037  )
        43           C   tau(  43) = (  0.8002270  0.0007316  0.0056205  )
        44           C   tau(  44) = (  0.8661210  0.1338790  0.0082119  )
        45           C   tau(  45) = (  0.7996690  0.2003310  0.0106117  )
        46           C   tau(  46) = (  0.8661167  0.3333811  0.0103511  )
        47           C   tau(  47) = (  0.7997828  0.4003214  0.0092376  )
        48           C   tau(  48) = (  0.8671630  0.5339117  0.0078383  )
        49           C   tau(  49) = (  0.8012493  0.6009304  0.0008144  )
        50           C   tau(  50) = (  0.8678537  0.7342639  0.0023721  )
        51           C   tau(  51) = (  0.8017869  0.8014731 -0.0003528  )
        52           C   tau(  52) = (  0.8673976  0.9343582  0.0065131  )

     number of k points=     1  Marzari-Vanderbilt smearing, width (Ry)=  0.0100
                       cart. coord. in units 2pi/alat
        k(    1) = (   0.0000000   0.0000000   0.0000000), wk =   1.0000000

                       cryst. coord.
        k(    1) = (   0.0000000   0.0000000   0.0000000), wk =   1.0000000

     Dense  grid:  1626001 G-vectors     FFT dimensions: ( 180, 180, 135)

     Smooth grid:   702581 G-vectors     FFT dimensions: ( 125, 125, 108)

     Dynamical RAM for                 wfc:      29.03 MB

     Dynamical RAM for     wfc (w. buffer):      87.10 MB

     Dynamical RAM for           str. fact:      12.41 MB

     Dynamical RAM for           local pot:       0.00 MB

     Dynamical RAM for          nlocal pot:      92.46 MB

     Dynamical RAM for                qrad:      19.73 MB

     Dynamical RAM for          rho,v,vnew:      58.92 MB

     Dynamical RAM for               rhoin:      19.64 MB

     Dynamical RAM for            rho*nmix:     132.32 MB

     Dynamical RAM for           G-vectors:      16.40 MB

     Dynamical RAM for          h,s,v(r/c):      12.38 MB

     Dynamical RAM for          <psi|beta>:       0.82 MB

     Dynamical RAM for                 psi:     116.14 MB

     Dynamical RAM for                hpsi:     116.14 MB

     Dynamical RAM for                spsi:     116.14 MB

     Dynamical RAM for      wfcinit/wfcrot:      93.90 MB

     Dynamical RAM for           addusdens:     975.89 MB

     Dynamical RAM for          addusforce:    1410.48 MB

     Estimated static dynamical RAM per process >     489.64 MB

     Estimated max dynamical RAM per process >       1.86 GB

     Estimated total dynamical RAM >      11.13 GB
     Generating pointlists ...
     new r_m :   0.0253 (alat units)  0.5898 (a.u.) for type    1
     new r_m :   0.0467 (alat units)  1.0883 (a.u.) for type    2
     new r_m :   0.0599 (alat units)  1.3944 (a.u.) for type    3

     Check: negative core charge=   -0.000002

     Initial potential from superposition of free atoms

     starting charge  215.80530, renormalised to  216.00000

     negative rho (up, down):  1.499E-04 1.897E-02


---------------------------------------------------------------------------------
Carrying out rVV10 run using the following parameters:
Nqs =      20    Nr_points =    1024   r_max =   100.000
b_value =  6.30000    beta =  0.00901
     q_mesh =  0.00010000  0.00030000  0.00058939  0.00100810
               0.00161396  0.00249058  0.00375900  0.00559430
               0.00824984  0.01209221  0.01765183  0.02569619
               0.03733578  0.05417739  0.07854596  0.11380545
               0.16482331  0.23864234  0.34545298  0.50000000

Gradients computed in Reciprocal space

---------------------------------------------------------------------------------


     Starting wfcs are  208 randomized atomic wfcs

     total cpu time spent up to now is       77.1 secs

     Self-consistent Calculation

     iteration #  1     ecut=    70.00 Ry     beta= 0.70
     Davidson diagonalization with overlap
     ethr =  1.00E-02,  avg # of iterations =  7.0

     negative rho (up, down):  2.933E-04 1.803E-02

     total cpu time spent up to now is      213.0 secs

     total energy              =    -944.22097608 Ry
     Harris-Foulkes estimate   =    -947.47476751 Ry
     estimated scf accuracy    <      20.32289847 Ry

     total magnetization       =     7.48 Bohr mag/cell
     absolute magnetization    =     8.00 Bohr mag/cell

     iteration #  2     ecut=    70.00 Ry     beta= 0.70
     Davidson diagonalization with overlap
     ethr =  9.41E-03,  avg # of iterations =  4.0

     negative rho (up, down):  1.096E-01 3.809E-01

     total cpu time spent up to now is      356.0 secs

     total energy              =    -959.96043925 Ry
     Harris-Foulkes estimate   =    -966.93098245 Ry
     estimated scf accuracy    <     176.18501725 Ry

     total magnetization       =     4.76 Bohr mag/cell
     absolute magnetization    =    18.12 Bohr mag/cell

     iteration #  3     ecut=    70.00 Ry     beta= 0.70
     Davidson diagonalization with overlap
     ethr =  9.41E-03,  avg # of iterations =  3.5

     negative rho (up, down):  3.587E-02 5.357E-01

     total cpu time spent up to now is      454.1 secs

     total energy              =    -949.94975703 Ry
     Harris-Foulkes estimate   =    -972.12215641 Ry
     estimated scf accuracy    <     861.90660072 Ry

     total magnetization       =     0.40 Bohr mag/cell
     absolute magnetization    =    43.90 Bohr mag/cell

     iteration #  4     ecut=    70.00 Ry     beta= 0.70
     Davidson diagonalization with overlap
     ethr =  9.41E-03,  avg # of iterations =  3.0

     negative rho (up, down):  6.629E-02 4.985E-01

     total cpu time spent up to now is      558.3 secs

     total energy              =    -944.50065870 Ry
     Harris-Foulkes estimate   =    -956.34160145 Ry
     estimated scf accuracy    <     188.55705328 Ry

     total magnetization       =     0.69 Bohr mag/cell
     absolute magnetization    =    19.39 Bohr mag/cell

     iteration #  5     ecut=    70.00 Ry     beta= 0.70
     Davidson diagonalization with overlap
     ethr =  9.41E-03,  avg # of iterations =  2.5

     negative rho (up, down):  1.190E-01 3.825E-01

     total cpu time spent up to now is      670.2 secs

     total energy              =    -955.98079294 Ry
     Harris-Foulkes estimate   =    -955.13984942 Ry
     estimated scf accuracy    <     229.51184432 Ry

     total magnetization       =     0.00 Bohr mag/cell
     absolute magnetization    =    22.59 Bohr mag/cell

     iteration #  6     ecut=    70.00 Ry     beta= 0.70
     Davidson diagonalization with overlap
     ethr =  9.41E-03,  avg # of iterations =  1.5

     negative rho (up, down):  2.466E-01 4.464E-01

     total cpu time spent up to now is      761.8 secs

     total energy              =    -952.04930686 Ry
     Harris-Foulkes estimate   =    -956.05727749 Ry
     estimated scf accuracy    <     266.94179801 Ry

     total magnetization       =     0.01 Bohr mag/cell
     absolute magnetization    =    24.16 Bohr mag/cell

     iteration #  7     ecut=    70.00 Ry     beta= 0.70
     Davidson diagonalization with overlap
     ethr =  9.41E-03,  avg # of iterations =  2.0

     negative rho (up, down):  3.350E-01 3.455E-01

     total cpu time spent up to now is      861.0 secs

     total energy              =    -952.65845681 Ry
     Harris-Foulkes estimate   =    -954.35426697 Ry
     estimated scf accuracy    <     129.78407803 Ry

     total magnetization       =     3.40 Bohr mag/cell
     absolute magnetization    =    17.29 Bohr mag/cell

     iteration #  8     ecut=    70.00 Ry     beta= 0.70
     Davidson diagonalization with overlap
     ethr =  9.41E-03,  avg # of iterations =  2.5

     negative rho (up, down):  5.310E-01 2.234E-01

     total cpu time spent up to now is      960.9 secs

     total energy              =    -953.84393058 Ry
     Harris-Foulkes estimate   =    -958.36257866 Ry
     estimated scf accuracy    <     248.31938090 Ry

     total magnetization       =    -1.86 Bohr mag/cell
     absolute magnetization    =    18.25 Bohr mag/cell

     iteration #  9     ecut=    70.00 Ry     beta= 0.70
     Davidson diagonalization with overlap
     ethr =  9.41E-03,  avg # of iterations =  2.0

     negative rho (up, down):  4.114E-01 4.218E-01

     total cpu time spent up to now is     1055.3 secs

     total energy              =    -953.36374073 Ry
     Harris-Foulkes estimate   =    -955.11441079 Ry
     estimated scf accuracy    <     153.72848493 Ry

     total magnetization       =    -0.87 Bohr mag/cell
     absolute magnetization    =    17.45 Bohr mag/cell

     iteration # 10     ecut=    70.00 Ry     beta= 0.70
     Davidson diagonalization with overlap
     ethr =  9.41E-03,  avg # of iterations =  2.0

     negative rho (up, down):  4.433E-01 1.617E-01

     total cpu time spent up to now is     1149.8 secs

     total energy              =    -952.90779292 Ry
     Harris-Foulkes estimate   =    -954.52404644 Ry
     estimated scf accuracy    <     106.29258229 Ry

     total magnetization       =    -0.02 Bohr mag/cell
     absolute magnetization    =    11.06 Bohr mag/cell

     iteration # 11     ecut=    70.00 Ry     beta= 0.70
     Davidson diagonalization with overlap
     ethr =  9.41E-03,  avg # of iterations =  2.0

     negative rho (up, down):  3.176E-01 2.248E-01

     total cpu time spent up to now is     1242.7 secs

     total energy              =    -952.96169534 Ry
     Harris-Foulkes estimate   =    -953.47448718 Ry
     estimated scf accuracy    <      53.05649579 Ry

     total magnetization       =     0.01 Bohr mag/cell
     absolute magnetization    =     9.40 Bohr mag/cell

     iteration # 12     ecut=    70.00 Ry     beta= 0.70
     Davidson diagonalization with overlap
     ethr =  9.41E-03,  avg # of iterations =  1.5

     negative rho (up, down):  2.717E-01 2.037E-01

     total cpu time spent up to now is     1334.7 secs

     total energy              =    -952.85717908 Ry
     Harris-Foulkes estimate   =    -953.15487868 Ry
     estimated scf accuracy    <      39.23454262 Ry

     total magnetization       =    -0.17 Bohr mag/cell
     absolute magnetization    =     7.61 Bohr mag/cell

     iteration # 13     ecut=    70.00 Ry     beta= 0.70
     Davidson diagonalization with overlap
     ethr =  9.41E-03,  avg # of iterations =  1.0

     negative rho (up, down):  2.283E-01 1.512E-01

     total cpu time spent up to now is     1434.4 secs

     total energy              =    -952.52086413 Ry
     Harris-Foulkes estimate   =    -952.92094938 Ry
     estimated scf accuracy    <      24.16016199 Ry

     total magnetization       =    -0.03 Bohr mag/cell
     absolute magnetization    =     5.48 Bohr mag/cell

     iteration # 14     ecut=    70.00 Ry     beta= 0.70
     Davidson diagonalization with overlap
     ethr =  9.41E-03,  avg # of iterations =  1.5

     negative rho (up, down):  1.261E-01 1.564E-01

     total cpu time spent up to now is     1525.5 secs

     total energy              =    -952.16663051 Ry
     Harris-Foulkes estimate   =    -952.63403408 Ry
     estimated scf accuracy    <       6.84920026 Ry

     total magnetization       =    -0.03 Bohr mag/cell
     absolute magnetization    =     2.85 Bohr mag/cell

     iteration # 15     ecut=    70.00 Ry     beta= 0.70
     Davidson diagonalization with overlap
     ethr =  3.17E-03,  avg # of iterations =  2.0

     negative rho (up, down):  1.026E-01 4.012E-01

     total cpu time spent up to now is     1622.6 secs

     total energy              =    -952.21073684 Ry
     Harris-Foulkes estimate   =    -953.12270476 Ry
     estimated scf accuracy    <      48.30743261 Ry

     total magnetization       =     1.79 Bohr mag/cell
     absolute magnetization    =    11.25 Bohr mag/cell

     iteration # 16     ecut=    70.00 Ry     beta= 0.70
     Davidson diagonalization with overlap
     ethr =  3.17E-03,  avg # of iterations =  2.0

     negative rho (up, down):  7.782E-02 3.628E-01

     total cpu time spent up to now is     1716.0 secs

     total energy              =    -952.45679606 Ry
     Harris-Foulkes estimate   =    -952.58415496 Ry
     estimated scf accuracy    <       6.71589446 Ry

     total magnetization       =     0.16 Bohr mag/cell
     absolute magnetization    =     3.80 Bohr mag/cell

     iteration # 17     ecut=    70.00 Ry     beta= 0.70
     Davidson diagonalization with overlap
     ethr =  3.11E-03,  avg # of iterations =  1.5

     negative rho (up, down):  1.392E-01 6.676E-02

     total cpu time spent up to now is     1808.0 secs

     total energy              =    -952.90546459 Ry
     Harris-Foulkes estimate   =    -952.60961669 Ry
     estimated scf accuracy    <       6.52109738 Ry

     total magnetization       =    -0.16 Bohr mag/cell
     absolute magnetization    =     1.69 Bohr mag/cell

     iteration # 18     ecut=    70.00 Ry     beta= 0.70
     Davidson diagonalization with overlap
     ethr =  3.02E-03,  avg # of iterations =  2.0

     negative rho (up, down):  2.968E-01 8.133E-02

     total cpu time spent up to now is     1901.6 secs

     total energy              =    -952.62831951 Ry
     Harris-Foulkes estimate   =    -954.15858492 Ry
     estimated scf accuracy    <      44.01968354 Ry

     total magnetization       =    -0.43 Bohr mag/cell
     absolute magnetization    =     3.66 Bohr mag/cell

     iteration # 19     ecut=    70.00 Ry     beta= 0.70
     Davidson diagonalization with overlap
     ethr =  3.02E-03,  avg # of iterations =  2.0

     negative rho (up, down):  4.061E-01 7.098E-02

     total cpu time spent up to now is     1994.2 secs

     total energy              =    -953.69478766 Ry
     Harris-Foulkes estimate   =    -953.38505690 Ry
     estimated scf accuracy    <      47.68217893 Ry

     total magnetization       =    -1.84 Bohr mag/cell
     absolute magnetization    =     4.84 Bohr mag/cell

     iteration # 20     ecut=    70.00 Ry     beta= 0.70
     Davidson diagonalization with overlap
     ethr =  3.02E-03,  avg # of iterations =  2.0

     negative rho (up, down):  5.130E-01 4.207E-02

     total cpu time spent up to now is     2086.1 secs

     total energy              =    -953.16433821 Ry
     Harris-Foulkes estimate   =    -953.81715878 Ry
     estimated scf accuracy    <      70.86985949 Ry

     total magnetization       =    -1.97 Bohr mag/cell
     absolute magnetization    =     5.28 Bohr mag/cell

     iteration # 21     ecut=    70.00 Ry     beta= 0.70
     Davidson diagonalization with overlap
     ethr =  3.02E-03,  avg # of iterations =  1.5

     negative rho (up, down):  4.673E-01 6.834E-02

     total cpu time spent up to now is     2177.8 secs

     total energy              =    -953.52849824 Ry
     Harris-Foulkes estimate   =    -953.25624589 Ry
     estimated scf accuracy    <      47.15405540 Ry

     total magnetization       =    -1.96 Bohr mag/cell
     absolute magnetization    =     5.17 Bohr mag/cell

     iteration # 22     ecut=    70.00 Ry     beta= 0.70
     Davidson diagonalization with overlap
     ethr =  3.02E-03,  avg # of iterations =  1.5

     negative rho (up, down):  5.076E-01 6.231E-02

     total cpu time spent up to now is     2268.8 secs

     total energy              =    -953.31721255 Ry
     Harris-Foulkes estimate   =    -953.55808728 Ry
     estimated scf accuracy    <      59.12816822 Ry

     total magnetization       =    -1.92 Bohr mag/cell
     absolute magnetization    =     4.37 Bohr mag/cell

     iteration # 23     ecut=    70.00 Ry     beta= 0.70
     Davidson diagonalization with overlap
     ethr =  3.02E-03,  avg # of iterations =  1.0

     negative rho (up, down):  5.094E-01 4.175E-02

     total cpu time spent up to now is     2359.5 secs

     total energy              =    -953.97681675 Ry
     Harris-Foulkes estimate   =    -953.37862535 Ry
     estimated scf accuracy    <      51.59001856 Ry

     total magnetization       =    -0.17 Bohr mag/cell
     absolute magnetization    =     1.93 Bohr mag/cell

     iteration # 24     ecut=    70.00 Ry     beta= 0.70
     Davidson diagonalization with overlap
     ethr =  3.02E-03,  avg # of iterations =  2.0

     negative rho (up, down):  5.744E-01 1.745E-02

     total cpu time spent up to now is     2451.2 secs

     total energy              =    -951.44041401 Ry
     Harris-Foulkes estimate   =    -954.07397393 Ry
     estimated scf accuracy    <      82.99772293 Ry

     total magnetization       =     0.15 Bohr mag/cell
     absolute magnetization    =     1.65 Bohr mag/cell

     iteration # 25     ecut=    70.00 Ry     beta= 0.70
     Davidson diagonalization with overlap
     ethr =  3.02E-03,  avg # of iterations =  2.5

     negative rho (up, down):  2.418E-01 7.967E-02

     total cpu time spent up to now is     2547.8 secs

     total energy              =    -952.39573852 Ry
     Harris-Foulkes estimate   =    -952.61792879 Ry
     estimated scf accuracy    <      11.70248421 Ry

     total magnetization       =    -0.00 Bohr mag/cell
     absolute magnetization    =     4.36 Bohr mag/cell

     iteration # 26     ecut=    70.00 Ry     beta= 0.70
     Davidson diagonalization with overlap
     ethr =  3.02E-03,  avg # of iterations =  1.0

     negative rho (up, down):  1.436E-01 1.423E-01

     total cpu time spent up to now is     2639.3 secs

     total energy              =    -952.52914658 Ry
     Harris-Foulkes estimate   =    -952.63233753 Ry
     estimated scf accuracy    <      10.23163898 Ry

     total magnetization       =    -1.96 Bohr mag/cell
     absolute magnetization    =     5.54 Bohr mag/cell

     iteration # 27     ecut=    70.00 Ry     beta= 0.70
     Davidson diagonalization with overlap
     ethr =  3.02E-03,  avg # of iterations =  1.0

     negative rho (up, down):  1.478E-01 1.669E-01

     total cpu time spent up to now is     2729.9 secs

     total energy              =    -952.48578069 Ry
     Harris-Foulkes estimate   =    -952.71701879 Ry
     estimated scf accuracy    <      14.07247444 Ry

     total magnetization       =    -0.56 Bohr mag/cell
     absolute magnetization    =     5.23 Bohr mag/cell

     iteration # 28     ecut=    70.00 Ry     beta= 0.70
     Davidson diagonalization with overlap
     ethr =  3.02E-03,  avg # of iterations =  1.0

     negative rho (up, down):  1.425E-01 1.482E-01

     total cpu time spent up to now is     2820.5 secs

     total energy              =    -952.56641537 Ry
     Harris-Foulkes estimate   =    -952.59153534 Ry
     estimated scf accuracy    <      11.23459520 Ry

     total magnetization       =    -2.00 Bohr mag/cell
     absolute magnetization    =     5.46 Bohr mag/cell

     iteration # 29     ecut=    70.00 Ry     beta= 0.70
     Davidson diagonalization with overlap
     ethr =  3.02E-03,  avg # of iterations =  1.0

     negative rho (up, down):  1.312E-01 1.188E-01

     total cpu time spent up to now is     2911.2 secs

     total energy              =    -952.90120890 Ry
     Harris-Foulkes estimate   =    -952.58427069 Ry
     estimated scf accuracy    <      11.90938948 Ry

     total magnetization       =    -1.33 Bohr mag/cell
     absolute magnetization    =     5.57 Bohr mag/cell

     iteration # 30     ecut=    70.00 Ry     beta= 0.70
     Davidson diagonalization with overlap
     ethr =  3.02E-03,  avg # of iterations =  2.5

     negative rho (up, down):  7.951E-02 3.994E-01

     total cpu time spent up to now is     3013.2 secs

     total energy              =    -952.00479864 Ry
     Harris-Foulkes estimate   =    -954.26299908 Ry
     estimated scf accuracy    <      88.53566352 Ry

     total magnetization       =    -0.27 Bohr mag/cell
     absolute magnetization    =    14.85 Bohr mag/cell

     iteration # 31     ecut=    70.00 Ry     beta= 0.70
     Davidson diagonalization with overlap
     ethr =  3.02E-03,  avg # of iterations =  2.0

     negative rho (up, down):  1.600E-01 2.652E-01

     total cpu time spent up to now is     3111.7 secs

     total energy              =    -952.27463925 Ry
     Harris-Foulkes estimate   =    -952.98333845 Ry
     estimated scf accuracy    <      24.74506631 Ry

     total magnetization       =    -0.78 Bohr mag/cell
     absolute magnetization    =     5.47 Bohr mag/cell

     iteration # 32     ecut=    70.00 Ry     beta= 0.70
     Davidson diagonalization with overlap
     ethr =  3.02E-03,  avg # of iterations =  2.0

     negative rho (up, down):  1.638E-01 1.298E-01

     total cpu time spent up to now is     3204.4 secs

     total energy              =    -952.73664734 Ry
     Harris-Foulkes estimate   =    -952.67617369 Ry
     estimated scf accuracy    <      12.86670015 Ry

     total magnetization       =    -1.80 Bohr mag/cell
     absolute magnetization    =     3.69 Bohr mag/cell

     iteration # 33     ecut=    70.00 Ry     beta= 0.70
     Davidson diagonalization with overlap
     ethr =  3.02E-03,  avg # of iterations =  2.0

     negative rho (up, down):  1.140E-01 3.698E-01

     total cpu time spent up to now is     3296.9 secs

     total energy              =    -951.04952693 Ry
     Harris-Foulkes estimate   =    -952.97578936 Ry
     estimated scf accuracy    <      25.45169232 Ry

     total magnetization       =    -1.76 Bohr mag/cell
     absolute magnetization    =     8.00 Bohr mag/cell

     iteration # 34     ecut=    70.00 Ry     beta= 0.70
     Davidson diagonalization with overlap
     ethr =  3.02E-03,  avg # of iterations =  3.0

     negative rho (up, down):  6.647E-02 3.525E-01

     total cpu time spent up to now is     3398.7 secs

     total energy              =    -952.12436855 Ry
     Harris-Foulkes estimate   =    -953.55245056 Ry
     estimated scf accuracy    <      39.78914178 Ry

     total magnetization       =    -0.02 Bohr mag/cell
     absolute magnetization    =    10.47 Bohr mag/cell

     iteration # 35     ecut=    70.00 Ry     beta= 0.70
     Davidson diagonalization with overlap
     ethr =  3.02E-03,  avg # of iterations =  2.0

     negative rho (up, down):  3.498E-02 3.779E-01

     total cpu time spent up to now is     3492.6 secs

     total energy              =    -952.53414128 Ry
     Harris-Foulkes estimate   =    -952.61708404 Ry
     estimated scf accuracy    <       9.31291520 Ry

     total magnetization       =    -0.03 Bohr mag/cell
     absolute magnetization    =     5.41 Bohr mag/cell

     iteration # 36     ecut=    70.00 Ry     beta= 0.70
     Davidson diagonalization with overlap
     ethr =  3.02E-03,  avg # of iterations =  1.0

     negative rho (up, down):  2.626E-02 3.724E-01

     total cpu time spent up to now is     3583.3 secs

     total energy              =    -952.48978551 Ry
     Harris-Foulkes estimate   =    -952.57734347 Ry
     estimated scf accuracy    <       5.93310976 Ry

     total magnetization       =    -0.16 Bohr mag/cell
     absolute magnetization    =     4.33 Bohr mag/cell

     iteration # 37     ecut=    70.00 Ry     beta= 0.70
     Davidson diagonalization with overlap
     ethr =  2.75E-03,  avg # of iterations =  1.0

     negative rho (up, down):  2.090E-02 3.417E-01

     total cpu time spent up to now is     3674.0 secs

     total energy              =    -952.53187089 Ry
     Harris-Foulkes estimate   =    -952.55780403 Ry
     estimated scf accuracy    <       2.73171864 Ry

     total magnetization       =    -0.16 Bohr mag/cell
     absolute magnetization    =     2.87 Bohr mag/cell

     iteration # 38     ecut=    70.00 Ry     beta= 0.70
     Davidson diagonalization with overlap
     ethr =  1.26E-03,  avg # of iterations =  1.0

     negative rho (up, down):  1.757E-02 3.483E-01

     total cpu time spent up to now is     3765.0 secs

     total energy              =    -952.50478099 Ry
     Harris-Foulkes estimate   =    -952.57165298 Ry
     estimated scf accuracy    <       3.53733661 Ry

     total magnetization       =    -0.09 Bohr mag/cell
     absolute magnetization    =     3.36 Bohr mag/cell

     iteration # 39     ecut=    70.00 Ry     beta= 0.70
     Davidson diagonalization with overlap
     ethr =  1.26E-03,  avg # of iterations =  1.5

     negative rho (up, down):  1.750E-02 2.730E-01

     total cpu time spent up to now is     3856.1 secs

     total energy              =    -952.69080671 Ry
     Harris-Foulkes estimate   =    -952.54545407 Ry
     estimated scf accuracy    <       1.81965091 Ry

     total magnetization       =    -0.14 Bohr mag/cell
     absolute magnetization    =     2.37 Bohr mag/cell

     iteration # 40     ecut=    70.00 Ry     beta= 0.70
     Davidson diagonalization with overlap
     ethr =  8.42E-04,  avg # of iterations =  2.5

     negative rho (up, down):  4.092E-02 3.765E-01

     total cpu time spent up to now is     3953.9 secs

     total energy              =    -952.25858479 Ry
     Harris-Foulkes estimate   =    -952.97698827 Ry
     estimated scf accuracy    <      30.96281937 Ry

     total magnetization       =    -1.22 Bohr mag/cell
     absolute magnetization    =     9.31 Bohr mag/cell

     iteration # 41     ecut=    70.00 Ry     beta= 0.70
     Davidson diagonalization with overlap
     ethr =  8.42E-04,  avg # of iterations =  2.0

     negative rho (up, down):  1.878E-02 3.453E-01

     total cpu time spent up to now is     4049.9 secs

     total energy              =    -952.54114165 Ry
     Harris-Foulkes estimate   =    -952.52437580 Ry
     estimated scf accuracy    <       2.96816755 Ry

     total magnetization       =    -0.12 Bohr mag/cell
     absolute magnetization    =     2.88 Bohr mag/cell

     iteration # 42     ecut=    70.00 Ry     beta= 0.70
     Davidson diagonalization with overlap
     ethr =  8.42E-04,  avg # of iterations =  2.0

     negative rho (up, down):  1.323E-02 3.631E-01

     total cpu time spent up to now is     4141.8 secs

     total energy              =    -952.55216973 Ry
     Harris-Foulkes estimate   =    -952.67469050 Ry
     estimated scf accuracy    <       5.43576456 Ry

     total magnetization       =    -0.07 Bohr mag/cell
     absolute magnetization    =     3.48 Bohr mag/cell

     iteration # 43     ecut=    70.00 Ry     beta= 0.70
     Davidson diagonalization with overlap
     ethr =  8.42E-04,  avg # of iterations =  1.5

     negative rho (up, down):  2.116E-02 3.727E-01

     total cpu time spent up to now is     4232.9 secs

     total energy              =    -952.61581779 Ry
     Harris-Foulkes estimate   =    -952.64514165 Ry
     estimated scf accuracy    <       7.79341599 Ry

     total magnetization       =    -0.24 Bohr mag/cell
     absolute magnetization    =     4.27 Bohr mag/cell

     iteration # 44     ecut=    70.00 Ry     beta= 0.70
     Davidson diagonalization with overlap
     ethr =  8.42E-04,  avg # of iterations =  1.0

     negative rho (up, down):  2.920E-02 3.759E-01

     total cpu time spent up to now is     4323.6 secs

     total energy              =    -952.68992713 Ry
     Harris-Foulkes estimate   =    -952.65118922 Ry
     estimated scf accuracy    <       9.32646911 Ry

     total magnetization       =    -0.80 Bohr mag/cell
     absolute magnetization    =     4.96 Bohr mag/cell

     iteration # 45     ecut=    70.00 Ry     beta= 0.70
     Davidson diagonalization with overlap
     ethr =  8.42E-04,  avg # of iterations =  1.5

     negative rho (up, down):  2.433E-02 4.046E-01

     total cpu time spent up to now is     4414.8 secs

     total energy              =    -952.70140117 Ry
     Harris-Foulkes estimate   =    -952.72279542 Ry
     estimated scf accuracy    <      13.54117327 Ry

     total magnetization       =    -1.02 Bohr mag/cell
     absolute magnetization    =     6.01 Bohr mag/cell

     iteration # 46     ecut=    70.00 Ry     beta= 0.70
     Davidson diagonalization with overlap
     ethr =  8.42E-04,  avg # of iterations =  2.0

     negative rho (up, down):  1.981E-02 3.983E-01

     total cpu time spent up to now is     4506.0 secs

     total energy              =    -952.68039954 Ry
     Harris-Foulkes estimate   =    -952.72060388 Ry
     estimated scf accuracy    <      12.99152871 Ry

     total magnetization       =    -1.27 Bohr mag/cell
     absolute magnetization    =     6.04 Bohr mag/cell

     iteration # 47     ecut=    70.00 Ry     beta= 0.70
     Davidson diagonalization with overlap
     ethr =  8.42E-04,  avg # of iterations =  1.0

     negative rho (up, down):  1.536E-02 3.927E-01

     total cpu time spent up to now is     4596.7 secs

     total energy              =    -952.72961529 Ry
     Harris-Foulkes estimate   =    -952.68489896 Ry
     estimated scf accuracy    <      10.82398979 Ry

     total magnetization       =    -0.81 Bohr mag/cell
     absolute magnetization    =     5.29 Bohr mag/cell

     iteration # 48     ecut=    70.00 Ry     beta= 0.70
     Davidson diagonalization with overlap
     ethr =  8.42E-04,  avg # of iterations =  1.0

     negative rho (up, down):  1.960E-02 3.919E-01

     total cpu time spent up to now is     4687.5 secs

     total energy              =    -952.72577952 Ry
     Harris-Foulkes estimate   =    -952.75460536 Ry
     estimated scf accuracy    <      14.98852687 Ry

     total magnetization       =    -1.39 Bohr mag/cell
     absolute magnetization    =     6.42 Bohr mag/cell

     iteration # 49     ecut=    70.00 Ry     beta= 0.70
     Davidson diagonalization with overlap
     ethr =  8.42E-04,  avg # of iterations =  1.0

     negative rho (up, down):  2.060E-02 3.867E-01

     total cpu time spent up to now is     4778.3 secs

     total energy              =    -952.46915105 Ry
     Harris-Foulkes estimate   =    -952.73182760 Ry
     estimated scf accuracy    <      13.68948071 Ry

     total magnetization       =    -1.03 Bohr mag/cell
     absolute magnetization    =     6.07 Bohr mag/cell

     iteration # 50     ecut=    70.00 Ry     beta= 0.70
     Davidson diagonalization with overlap
     ethr =  8.42E-04,  avg # of iterations =  2.0

     negative rho (up, down):  1.262E-02 3.575E-01

     total cpu time spent up to now is     4871.1 secs

     total energy              =    -952.40754401 Ry
     Harris-Foulkes estimate   =    -952.55580401 Ry
     estimated scf accuracy    <       3.29624963 Ry

     total magnetization       =     0.05 Bohr mag/cell
     absolute magnetization    =     3.08 Bohr mag/cell

     iteration # 51     ecut=    70.00 Ry     beta= 0.70
     Davidson diagonalization with overlap
     ethr =  8.42E-04,  avg # of iterations =  2.0

     negative rho (up, down):  1.442E-02 1.308E-01

     total cpu time spent up to now is     4965.4 secs

     total energy              =    -952.56122592 Ry
     Harris-Foulkes estimate   =    -952.52700999 Ry
     estimated scf accuracy    <       0.79487924 Ry

     total magnetization       =     0.12 Bohr mag/cell
     absolute magnetization    =     1.54 Bohr mag/cell

     iteration # 52     ecut=    70.00 Ry     beta= 0.70
     Davidson diagonalization with overlap
     ethr =  3.68E-04,  avg # of iterations =  3.0

     negative rho (up, down):  2.058E-02 1.387E-01

     total cpu time spent up to now is     5057.8 secs

     total energy              =    -952.56225467 Ry
     Harris-Foulkes estimate   =    -952.58979315 Ry
     estimated scf accuracy    <       1.48071705 Ry

     total magnetization       =     0.09 Bohr mag/cell
     absolute magnetization    =     1.84 Bohr mag/cell

     iteration # 53     ecut=    70.00 Ry     beta= 0.70
     Davidson diagonalization with overlap
     ethr =  3.68E-04,  avg # of iterations =  2.0

     negative rho (up, down):  3.229E-02 1.666E-01

     total cpu time spent up to now is     5151.0 secs

     total energy              =    -952.50999438 Ry
     Harris-Foulkes estimate   =    -952.60357409 Ry
     estimated scf accuracy    <       2.48039866 Ry

     total magnetization       =     0.17 Bohr mag/cell
     absolute magnetization    =     1.98 Bohr mag/cell

     iteration # 54     ecut=    70.00 Ry     beta= 0.70
     Davidson diagonalization with overlap
     ethr =  3.68E-04,  avg # of iterations =  2.0

     negative rho (up, down):  3.915E-02 1.459E-01

     total cpu time spent up to now is     5245.5 secs

     total energy              =    -952.51057329 Ry
     Harris-Foulkes estimate   =    -952.57555034 Ry
     estimated scf accuracy    <       2.15116139 Ry

     total magnetization       =     0.03 Bohr mag/cell
     absolute magnetization    =     2.17 Bohr mag/cell

     iteration # 55     ecut=    70.00 Ry     beta= 0.70
     Davidson diagonalization with overlap
     ethr =  3.68E-04,  avg # of iterations =  2.0

     negative rho (up, down):  3.350E-02 1.453E-02

     total cpu time spent up to now is     5339.7 secs

     total energy              =    -952.57170443 Ry
     Harris-Foulkes estimate   =    -952.56742184 Ry
     estimated scf accuracy    <       1.16063862 Ry

     total magnetization       =     0.10 Bohr mag/cell
     absolute magnetization    =     1.69 Bohr mag/cell

     iteration # 56     ecut=    70.00 Ry     beta= 0.70
     Davidson diagonalization with overlap
     ethr =  3.68E-04,  avg # of iterations =  1.0

     negative rho (up, down):  4.393E-02 6.821E-02

     total cpu time spent up to now is     5430.3 secs

     total energy              =    -952.49911352 Ry
     Harris-Foulkes estimate   =    -952.57588072 Ry
     estimated scf accuracy    <       1.42184125 Ry

     total magnetization       =     0.13 Bohr mag/cell
     absolute magnetization    =     1.62 Bohr mag/cell

     iteration # 57     ecut=    70.00 Ry     beta= 0.70
     Davidson diagonalization with overlap
     ethr =  3.68E-04,  avg # of iterations =  3.0

     negative rho (up, down):  3.265E-02 1.358E-01

     total cpu time spent up to now is     5527.4 secs

     total energy              =    -952.44938198 Ry
     Harris-Foulkes estimate   =    -952.61366530 Ry
     estimated scf accuracy    <       1.75867795 Ry

     total magnetization       =     0.07 Bohr mag/cell
     absolute magnetization    =     2.00 Bohr mag/cell

     iteration # 58     ecut=    70.00 Ry     beta= 0.70
     Davidson diagonalization with overlap
     ethr =  3.68E-04,  avg # of iterations =  3.0

     negative rho (up, down):  1.855E-02 1.303E-01

     total cpu time spent up to now is     5623.1 secs

     total energy              =    -952.50917741 Ry
     Harris-Foulkes estimate   =    -952.54742323 Ry
     estimated scf accuracy    <       0.61695460 Ry

     total magnetization       =     0.16 Bohr mag/cell
     absolute magnetization    =     1.47 Bohr mag/cell

     iteration # 59     ecut=    70.00 Ry     beta= 0.70
     Davidson diagonalization with overlap
     ethr =  2.86E-04,  avg # of iterations =  2.0

     negative rho (up, down):  5.268E-03 2.333E-01

     total cpu time spent up to now is     5715.8 secs

     total energy              =    -952.53630039 Ry
     Harris-Foulkes estimate   =    -952.54800058 Ry
     estimated scf accuracy    <       0.52256396 Ry

     total magnetization       =     0.07 Bohr mag/cell
     absolute magnetization    =     1.37 Bohr mag/cell

     iteration # 60     ecut=    70.00 Ry     beta= 0.70
     Davidson diagonalization with overlap
     ethr =  2.42E-04,  avg # of iterations =  1.5

     negative rho (up, down):  5.490E-03 2.665E-01

     total cpu time spent up to now is     5807.1 secs

     total energy              =    -952.55306477 Ry
     Harris-Foulkes estimate   =    -952.54236262 Ry
     estimated scf accuracy    <       0.35011050 Ry

     total magnetization       =     0.08 Bohr mag/cell
     absolute magnetization    =     1.17 Bohr mag/cell

     iteration # 61     ecut=    70.00 Ry     beta= 0.70
     Davidson diagonalization with overlap
     ethr =  1.62E-04,  avg # of iterations =  2.0

     negative rho (up, down):  8.644E-03 2.877E-01

     total cpu time spent up to now is     5900.0 secs

     total energy              =    -952.57747295 Ry
     Harris-Foulkes estimate   =    -952.56931685 Ry
     estimated scf accuracy    <       1.43269063 Ry

     total magnetization       =     0.05 Bohr mag/cell
     absolute magnetization    =     1.85 Bohr mag/cell

     iteration # 62     ecut=    70.00 Ry     beta= 0.70
     Davidson diagonalization with overlap
     ethr =  1.62E-04,  avg # of iterations =  1.5

     negative rho (up, down):  1.252E-02 3.164E-01

     total cpu time spent up to now is     5991.8 secs

     total energy              =    -952.53971467 Ry
     Harris-Foulkes estimate   =    -952.58505317 Ry
     estimated scf accuracy    <       2.53129935 Ry

     total magnetization       =     0.03 Bohr mag/cell
     absolute magnetization    =     2.60 Bohr mag/cell

     iteration # 63     ecut=    70.00 Ry     beta= 0.70
     Davidson diagonalization with overlap
     ethr =  1.62E-04,  avg # of iterations =  1.5

     negative rho (up, down):  2.399E-02 2.170E-01

     total cpu time spent up to now is     6084.6 secs

     total energy              =    -952.55653170 Ry
     Harris-Foulkes estimate   =    -952.56015345 Ry
     estimated scf accuracy    <       1.52204880 Ry

     total magnetization       =     0.06 Bohr mag/cell
     absolute magnetization    =     1.53 Bohr mag/cell

     iteration # 64     ecut=    70.00 Ry     beta= 0.70
     Davidson diagonalization with overlap
     ethr =  1.62E-04,  avg # of iterations =  2.0

     negative rho (up, down):  6.363E-03 3.380E-01

     total cpu time spent up to now is     6179.7 secs

     total energy              =    -952.60178997 Ry
     Harris-Foulkes estimate   =    -952.60631562 Ry
     estimated scf accuracy    <       3.18683476 Ry

     total magnetization       =    -0.03 Bohr mag/cell
     absolute magnetization    =     2.82 Bohr mag/cell

     iteration # 65     ecut=    70.00 Ry     beta= 0.70
     Davidson diagonalization with overlap
     ethr =  1.62E-04,  avg # of iterations =  2.0

     negative rho (up, down):  2.794E-03 3.651E-01

     total cpu time spent up to now is     6272.2 secs

     total energy              =    -952.62356074 Ry
     Harris-Foulkes estimate   =    -952.61816766 Ry
     estimated scf accuracy    <       4.25151352 Ry

     total magnetization       =    -0.09 Bohr mag/cell
     absolute magnetization    =     3.20 Bohr mag/cell

     iteration # 66     ecut=    70.00 Ry     beta= 0.70
     Davidson diagonalization with overlap
     ethr =  1.62E-04,  avg # of iterations =  1.0

     negative rho (up, down):  6.007E-03 3.788E-01

     total cpu time spent up to now is     6362.9 secs

     total energy              =    -952.53421726 Ry
     Harris-Foulkes estimate   =    -952.62669778 Ry
     estimated scf accuracy    <       5.17694918 Ry

     total magnetization       =    -0.20 Bohr mag/cell
     absolute magnetization    =     3.57 Bohr mag/cell

     iteration # 67     ecut=    70.00 Ry     beta= 0.70
     Davidson diagonalization with overlap
     ethr =  1.62E-04,  avg # of iterations =  2.0

     negative rho (up, down):  7.637E-03 3.484E-01

     total cpu time spent up to now is     6456.8 secs

     total energy              =    -952.51570798 Ry
     Harris-Foulkes estimate   =    -952.56213638 Ry
     estimated scf accuracy    <       1.80404479 Ry

     total magnetization       =     0.01 Bohr mag/cell
     absolute magnetization    =     2.10 Bohr mag/cell

     iteration # 68     ecut=    70.00 Ry     beta= 0.70
     Davidson diagonalization with overlap
     ethr =  1.62E-04,  avg # of iterations =  1.5

     negative rho (up, down):  1.943E-02 2.767E-01

     total cpu time spent up to now is     6549.1 secs

     total energy              =    -952.54441792 Ry
     Harris-Foulkes estimate   =    -952.53892919 Ry
     estimated scf accuracy    <       0.76946653 Ry

     total magnetization       =     0.04 Bohr mag/cell
     absolute magnetization    =     1.16 Bohr mag/cell

     iteration # 69     ecut=    70.00 Ry     beta= 0.70
     Davidson diagonalization with overlap
     ethr =  1.62E-04,  avg # of iterations =  1.5

     negative rho (up, down):  2.880E-02 1.032E-01

     total cpu time spent up to now is     6640.8 secs

     total energy              =    -952.54742577 Ry
     Harris-Foulkes estimate   =    -952.54784653 Ry
     estimated scf accuracy    <       0.78824457 Ry

     total magnetization       =     0.05 Bohr mag/cell
     absolute magnetization    =     0.93 Bohr mag/cell

     iteration # 70     ecut=    70.00 Ry     beta= 0.70
     Davidson diagonalization with overlap
     ethr =  1.62E-04,  avg # of iterations =  1.0

     negative rho (up, down):  3.584E-02 4.220E-02

     total cpu time spent up to now is     6731.6 secs

     total energy              =    -952.54370696 Ry
     Harris-Foulkes estimate   =    -952.55022981 Ry
     estimated scf accuracy    <       0.72320887 Ry

     total magnetization       =     0.05 Bohr mag/cell
     absolute magnetization    =     0.71 Bohr mag/cell

     iteration # 71     ecut=    70.00 Ry     beta= 0.70
     Davidson diagonalization with overlap
     ethr =  1.62E-04,  avg # of iterations =  1.5

     negative rho (up, down):  2.461E-02 2.792E-01

     total cpu time spent up to now is     6824.1 secs

     total energy              =    -952.53767658 Ry
     Harris-Foulkes estimate   =    -952.55747878 Ry
     estimated scf accuracy    <       1.62497264 Ry

     total magnetization       =    -0.07 Bohr mag/cell
     absolute magnetization    =     1.86 Bohr mag/cell

     iteration # 72     ecut=    70.00 Ry     beta= 0.70
     Davidson diagonalization with overlap
     ethr =  1.62E-04,  avg # of iterations =  1.5

     negative rho (up, down):  5.101E-02 4.946E-02

     total cpu time spent up to now is     6916.9 secs

     total energy              =    -952.56979926 Ry
     Harris-Foulkes estimate   =    -952.55424808 Ry
     estimated scf accuracy    <       1.12343457 Ry

     total magnetization       =     0.05 Bohr mag/cell
     absolute magnetization    =     0.69 Bohr mag/cell

     iteration # 73     ecut=    70.00 Ry     beta= 0.70
     Davidson diagonalization with overlap
     ethr =  1.62E-04,  avg # of iterations =  2.0

     negative rho (up, down):  6.905E-02 2.644E-02

     total cpu time spent up to now is     7008.9 secs

     total energy              =    -952.57727525 Ry
     Harris-Foulkes estimate   =    -952.57932813 Ry
     estimated scf accuracy    <       2.28053380 Ry

     total magnetization       =     0.03 Bohr mag/cell
     absolute magnetization    =     0.92 Bohr mag/cell

     iteration # 74     ecut=    70.00 Ry     beta= 0.70
     Davidson diagonalization with overlap
     ethr =  1.62E-04,  avg # of iterations =  1.5

     negative rho (up, down):  6.814E-02 3.783E-02

     total cpu time spent up to now is     7100.0 secs

     total energy              =    -952.53012523 Ry
     Harris-Foulkes estimate   =    -952.58279978 Ry
     estimated scf accuracy    <       2.29832115 Ry

     total magnetization       =    -0.01 Bohr mag/cell
     absolute magnetization    =     1.05 Bohr mag/cell

     iteration # 75     ecut=    70.00 Ry     beta= 0.70
     Davidson diagonalization with overlap
     ethr =  1.62E-04,  avg # of iterations =  2.0

     negative rho (up, down):  1.553E-02 2.342E-01

     total cpu time spent up to now is     7196.4 secs

     total energy              =    -952.43325749 Ry
     Harris-Foulkes estimate   =    -952.59436266 Ry
     estimated scf accuracy    <       1.47536275 Ry

     total magnetization       =     0.04 Bohr mag/cell
     absolute magnetization    =     1.69 Bohr mag/cell

     iteration # 76     ecut=    70.00 Ry     beta= 0.70
     Davidson diagonalization with overlap
     ethr =  1.62E-04,  avg # of iterations =  4.0

     negative rho (up, down):  6.631E-03 3.228E-01

     total cpu time spent up to now is     7309.1 secs

     total energy              =    -952.53412942 Ry
     Harris-Foulkes estimate   =    -952.63891054 Ry
     estimated scf accuracy    <       3.17774716 Ry

     total magnetization       =    -0.09 Bohr mag/cell
     absolute magnetization    =     2.62 Bohr mag/cell

     iteration # 77     ecut=    70.00 Ry     beta= 0.70
     Davidson diagonalization with overlap
     ethr =  1.62E-04,  avg # of iterations =  3.0

     negative rho (up, down):  3.907E-03 3.383E-01

     total cpu time spent up to now is     7402.3 secs

     total energy              =    -952.56388392 Ry
     Harris-Foulkes estimate   =    -952.57178733 Ry
     estimated scf accuracy    <       2.38626499 Ry

     total magnetization       =    -0.04 Bohr mag/cell
     absolute magnetization    =     2.43 Bohr mag/cell

     iteration # 78     ecut=    70.00 Ry     beta= 0.70
     Davidson diagonalization with overlap
     ethr =  1.62E-04,  avg # of iterations =  1.0

     negative rho (up, down):  3.116E-03 3.341E-01

     total cpu time spent up to now is     7493.3 secs

     total energy              =    -952.52526792 Ry
     Harris-Foulkes estimate   =    -952.56533940 Ry
     estimated scf accuracy    <       2.09643645 Ry

     total magnetization       =    -0.05 Bohr mag/cell
     absolute magnetization    =     2.28 Bohr mag/cell

     iteration # 79     ecut=    70.00 Ry     beta= 0.70
     Davidson diagonalization with overlap
     ethr =  1.62E-04,  avg # of iterations =  2.5

     negative rho (up, down):  5.126E-03 3.237E-01

     total cpu time spent up to now is     7589.5 secs

     total energy              =    -952.55798518 Ry
     Harris-Foulkes estimate   =    -952.58242365 Ry
     estimated scf accuracy    <       2.39817618 Ry

     total magnetization       =    -0.09 Bohr mag/cell
     absolute magnetization    =     2.32 Bohr mag/cell

     iteration # 80     ecut=    70.00 Ry     beta= 0.70
     Davidson diagonalization with overlap
     ethr =  1.62E-04,  avg # of iterations =  3.0

     negative rho (up, down):  1.034E-02 3.454E-01

     total cpu time spent up to now is     7691.1 secs

     total energy              =    -952.89740093 Ry
     Harris-Foulkes estimate   =    -952.64085235 Ry
     estimated scf accuracy    <       5.37120931 Ry

     total magnetization       =    -0.16 Bohr mag/cell
     absolute magnetization    =     3.51 Bohr mag/cell

     iteration # 81     ecut=    70.00 Ry     beta= 0.70
     Davidson diagonalization with overlap
     ethr =  1.62E-04,  avg # of iterations =  5.5

     negative rho (up, down):  3.554E-02 4.148E-01

     total cpu time spent up to now is     7804.3 secs

     total energy              =    -951.78385612 Ry
     Harris-Foulkes estimate   =    -953.13286547 Ry
     estimated scf accuracy    <      36.10842713 Ry

     total magnetization       =    -1.51 Bohr mag/cell
     absolute magnetization    =     9.68 Bohr mag/cell

     iteration # 82     ecut=    70.00 Ry     beta= 0.70
     Davidson diagonalization with overlap
     ethr =  1.62E-04,  avg # of iterations =  4.0

     negative rho (up, down):  8.613E-03 3.172E-01

     total cpu time spent up to now is     7925.7 secs

     total energy              =    -952.51722066 Ry
     Harris-Foulkes estimate   =    -952.46608651 Ry
     estimated scf accuracy    <       0.11437448 Ry

     total magnetization       =     0.05 Bohr mag/cell
     absolute magnetization    =     0.62 Bohr mag/cell

     iteration # 83     ecut=    70.00 Ry     beta= 0.70
     Davidson diagonalization with overlap
     ethr =  5.30E-05,  avg # of iterations =  9.5

     negative rho (up, down):  2.490E-03 1.779E-01

     total cpu time spent up to now is     8025.3 secs

     total energy              =    -952.53663640 Ry
     Harris-Foulkes estimate   =    -952.52841895 Ry
     estimated scf accuracy    <       0.06622816 Ry

     total magnetization       =     0.10 Bohr mag/cell
     absolute magnetization    =     0.50 Bohr mag/cell

     iteration # 84     ecut=    70.00 Ry     beta= 0.70
     Davidson diagonalization with overlap
     ethr =  3.07E-05,  avg # of iterations =  6.0

     negative rho (up, down):  1.156E-03 9.892E-02

     total cpu time spent up to now is     8125.7 secs

     total energy              =    -952.54153566 Ry
     Harris-Foulkes estimate   =    -952.54277523 Ry
     estimated scf accuracy    <       0.01446091 Ry

     total magnetization       =     0.08 Bohr mag/cell
     absolute magnetization    =     0.24 Bohr mag/cell

     iteration # 85     ecut=    70.00 Ry     beta= 0.70
     Davidson diagonalization with overlap
     ethr =  6.69E-06,  avg # of iterations = 11.0

     negative rho (up, down):  1.080E-03 3.696E-02

     total cpu time spent up to now is     8228.1 secs

     total energy              =    -952.54317101 Ry
     Harris-Foulkes estimate   =    -952.54306344 Ry
     estimated scf accuracy    <       0.00119357 Ry

     total magnetization       =     0.06 Bohr mag/cell
     absolute magnetization    =     0.12 Bohr mag/cell

     iteration # 86     ecut=    70.00 Ry     beta= 0.70
     Davidson diagonalization with overlap
     ethr =  5.53E-07,  avg # of iterations =  6.5

     negative rho (up, down):  1.260E-03 4.571E-02

     total cpu time spent up to now is     8337.0 secs

     total energy              =    -952.54326872 Ry
     Harris-Foulkes estimate   =    -952.54342959 Ry
     estimated scf accuracy    <       0.00344627 Ry

     total magnetization       =     0.05 Bohr mag/cell
     absolute magnetization    =     0.14 Bohr mag/cell

     iteration # 87     ecut=    70.00 Ry     beta= 0.70
     Davidson diagonalization with overlap
     ethr =  5.53E-07,  avg # of iterations =  2.0

     negative rho (up, down):  1.441E-03 3.433E-02

     total cpu time spent up to now is     8428.7 secs

     total energy              =    -952.54327324 Ry
     Harris-Foulkes estimate   =    -952.54336259 Ry
     estimated scf accuracy    <       0.00295437 Ry

     total magnetization       =     0.05 Bohr mag/cell
     absolute magnetization    =     0.12 Bohr mag/cell

     iteration # 88     ecut=    70.00 Ry     beta= 0.70
     Davidson diagonalization with overlap
     ethr =  5.53E-07,  avg # of iterations =  2.0

     negative rho (up, down):  1.676E-03 1.036E-01

     total cpu time spent up to now is     8524.6 secs

     total energy              =    -952.54272336 Ry
     Harris-Foulkes estimate   =    -952.54352879 Ry
     estimated scf accuracy    <       0.01695278 Ry

     total magnetization       =     0.05 Bohr mag/cell
     absolute magnetization    =     0.26 Bohr mag/cell

     iteration # 89     ecut=    70.00 Ry     beta= 0.70
     Davidson diagonalization with overlap
     ethr =  5.53E-07,  avg # of iterations =  3.0

     negative rho (up, down):  1.623E-03 6.153E-02

     total cpu time spent up to now is     8623.8 secs

     total energy              =    -952.54279479 Ry
     Harris-Foulkes estimate   =    -952.54304472 Ry
     estimated scf accuracy    <       0.00535437 Ry

     total magnetization       =     0.05 Bohr mag/cell
     absolute magnetization    =     0.15 Bohr mag/cell

     iteration # 90     ecut=    70.00 Ry     beta= 0.70
     Davidson diagonalization with overlap
     ethr =  5.53E-07,  avg # of iterations =  3.0

     negative rho (up, down):  1.460E-03 1.590E-02

     total cpu time spent up to now is     8724.8 secs

     total energy              =    -952.54310213 Ry
     Harris-Foulkes estimate   =    -952.54317926 Ry
     estimated scf accuracy    <       0.00239801 Ry

     total magnetization       =     0.05 Bohr mag/cell
     absolute magnetization    =     0.11 Bohr mag/cell

     iteration # 91     ecut=    70.00 Ry     beta= 0.70
     Davidson diagonalization with overlap
     ethr =  5.53E-07,  avg # of iterations =  3.0

     negative rho (up, down):  1.370E-03 6.444E-02

     total cpu time spent up to now is     8823.9 secs

     total energy              =    -952.54327220 Ry
     Harris-Foulkes estimate   =    -952.54333044 Ry
     estimated scf accuracy    <       0.00648151 Ry

     total magnetization       =     0.06 Bohr mag/cell
     absolute magnetization    =     0.20 Bohr mag/cell

     iteration # 92     ecut=    70.00 Ry     beta= 0.70
     Davidson diagonalization with overlap
     ethr =  5.53E-07,  avg # of iterations =  5.5

     negative rho (up, down):  1.306E-03 8.036E-02

     total cpu time spent up to now is     8923.9 secs

     total energy              =    -952.54294406 Ry
     Harris-Foulkes estimate   =    -952.54342785 Ry
     estimated scf accuracy    <       0.00455943 Ry

     total magnetization       =     0.06 Bohr mag/cell
     absolute magnetization    =     0.19 Bohr mag/cell

     iteration # 93     ecut=    70.00 Ry     beta= 0.70
     Davidson diagonalization with overlap
     ethr =  5.53E-07,  avg # of iterations =  2.0

     negative rho (up, down):  1.445E-03 3.395E-02

     total cpu time spent up to now is     9022.7 secs

     total energy              =    -952.54321367 Ry
     Harris-Foulkes estimate   =    -952.54317955 Ry
     estimated scf accuracy    <       0.00212945 Ry

     total magnetization       =     0.06 Bohr mag/cell
     absolute magnetization    =     0.12 Bohr mag/cell

     iteration # 94     ecut=    70.00 Ry     beta= 0.70
     Davidson diagonalization with overlap
     ethr =  5.53E-07,  avg # of iterations =  2.5

     negative rho (up, down):  1.258E-03 2.221E-02

     total cpu time spent up to now is     9114.7 secs

     total energy              =    -952.54340549 Ry
     Harris-Foulkes estimate   =    -952.54326102 Ry
     estimated scf accuracy    <       0.00244848 Ry

     total magnetization       =     0.06 Bohr mag/cell
     absolute magnetization    =     0.12 Bohr mag/cell

     iteration # 95     ecut=    70.00 Ry     beta= 0.70
     Davidson diagonalization with overlap
     ethr =  5.53E-07,  avg # of iterations =  2.0

     negative rho (up, down):  1.235E-03 7.130E-02

     total cpu time spent up to now is     9216.5 secs

     total energy              =    -952.54310241 Ry
     Harris-Foulkes estimate   =    -952.54368783 Ry
     estimated scf accuracy    <       0.00498486 Ry

     total magnetization       =     0.06 Bohr mag/cell
     absolute magnetization    =     0.18 Bohr mag/cell

     iteration # 96     ecut=    70.00 Ry     beta= 0.70
     Davidson diagonalization with overlap
     ethr =  5.53E-07,  avg # of iterations =  2.5

     negative rho (up, down):  1.274E-03 4.440E-02

     total cpu time spent up to now is     9319.3 secs

     total energy              =    -952.54338495 Ry
     Harris-Foulkes estimate   =    -952.54335184 Ry
     estimated scf accuracy    <       0.00180445 Ry

     total magnetization       =     0.05 Bohr mag/cell
     absolute magnetization    =     0.12 Bohr mag/cell

     iteration # 97     ecut=    70.00 Ry     beta= 0.70
     Davidson diagonalization with overlap
     ethr =  5.53E-07,  avg # of iterations =  1.5

     negative rho (up, down):  1.277E-03 5.824E-02

     total cpu time spent up to now is     9410.5 secs

     total energy              =    -952.54338654 Ry
     Harris-Foulkes estimate   =    -952.54341358 Ry
     estimated scf accuracy    <       0.00217147 Ry

     total magnetization       =     0.05 Bohr mag/cell
     absolute magnetization    =     0.14 Bohr mag/cell

     iteration # 98     ecut=    70.00 Ry     beta= 0.70
     Davidson diagonalization with overlap
     ethr =  5.53E-07,  avg # of iterations =  1.0

     negative rho (up, down):  1.265E-03 6.882E-02

     total cpu time spent up to now is     9501.3 secs

     total energy              =    -952.54329657 Ry
     Harris-Foulkes estimate   =    -952.54339072 Ry
     estimated scf accuracy    <       0.00268826 Ry

     total magnetization       =     0.05 Bohr mag/cell
     absolute magnetization    =     0.15 Bohr mag/cell

     iteration # 99     ecut=    70.00 Ry     beta= 0.70
     Davidson diagonalization with overlap
     ethr =  5.53E-07,  avg # of iterations =  3.0

     negative rho (up, down):  1.195E-03 7.288E-02

     total cpu time spent up to now is     9597.9 secs

     total energy              =    -952.54313577 Ry
     Harris-Foulkes estimate   =    -952.54365557 Ry
     estimated scf accuracy    <       0.00540917 Ry

     total magnetization       =     0.05 Bohr mag/cell
     absolute magnetization    =     0.15 Bohr mag/cell

     iteration #100     ecut=    70.00 Ry     beta= 0.70
     Davidson diagonalization with overlap
     ethr =  5.53E-07,  avg # of iterations =  3.0

     negative rho (up, down):  1.192E-03 9.383E-02

     Magnetic moment per site:
     atom:    1    charge:    0.2129    magn:    0.0000    constr:    0.0000
     atom:    2    charge:    0.2123    magn:   -0.0000    constr:    0.0000
     atom:    3    charge:    1.6476    magn:    0.0005    constr:    0.0000
     atom:    4    charge:    1.6415    magn:   -0.0003    constr:    0.0000
     atom:    5    charge:    1.6391    magn:    0.0008    constr:    0.0000
     atom:    6    charge:    1.6422    magn:   -0.0004    constr:    0.0000
     atom:    7    charge:    1.6371    magn:    0.0008    constr:    0.0000
     atom:    8    charge:    1.6418    magn:   -0.0003    constr:    0.0000
     atom:    9    charge:    1.6465    magn:    0.0005    constr:    0.0000
     atom:   10    charge:    1.6458    magn:   -0.0003    constr:    0.0000
     atom:   11    charge:    1.6462    magn:    0.0002    constr:    0.0000
     atom:   12    charge:    1.6464    magn:   -0.0002    constr:    0.0000
     atom:   13    charge:    1.6462    magn:    0.0002    constr:    0.0000
     atom:   14    charge:    1.6419    magn:   -0.0002    constr:    0.0000
     atom:   15    charge:    1.6391    magn:    0.0002    constr:    0.0000
     atom:   16    charge:    1.6405    magn:   -0.0004    constr:    0.0000
     atom:   17    charge:    1.6429    magn:    0.0018    constr:    0.0000
     atom:   18    charge:    1.6415    magn:   -0.0006    constr:    0.0000
     atom:   19    charge:    1.6386    magn:    0.0003    constr:    0.0000
     atom:   20    charge:    1.6412    magn:   -0.0003    constr:    0.0000
     atom:   21    charge:    1.6465    magn:    0.0002    constr:    0.0000
     atom:   22    charge:    1.6458    magn:   -0.0003    constr:    0.0000
     atom:   23    charge:    1.6465    magn:    0.0005    constr:    0.0000
     atom:   24    charge:    1.6410    magn:   -0.0003    constr:    0.0000
     atom:   25    charge:    1.6373    magn:    0.0002    constr:    0.0000
     atom:   26    charge:    1.6403    magn:   -0.0004    constr:    0.0000
     atom:   27    charge:    1.6050    magn:    0.0010    constr:    0.0000
     atom:   28    charge:   14.9819    magn:    0.0043    constr:    0.0000
     atom:   29    charge:    1.6136    magn:    0.0026    constr:    0.0000
     atom:   30    charge:    1.6415    magn:   -0.0006    constr:    0.0000
     atom:   31    charge:    1.6386    magn:    0.0003    constr:    0.0000
     atom:   32    charge:    1.6418    magn:   -0.0003    constr:    0.0000
     atom:   33    charge:    1.6371    magn:    0.0008    constr:    0.0000
     atom:   34    charge:    1.6400    magn:   -0.0005    constr:    0.0000
     atom:   35    charge:    1.6370    magn:    0.0008    constr:    0.0000
     atom:   36    charge:    1.6399    magn:   -0.0003    constr:    0.0000
     atom:   37    charge:    1.6404    magn:    0.0017    constr:    0.0000
     atom:   38    charge:    1.6403    magn:   -0.0004    constr:    0.0000
     atom:   39    charge:    1.6050    magn:    0.0010    constr:    0.0000
     atom:   40    charge:    1.6405    magn:   -0.0004    constr:    0.0000
     atom:   41    charge:    1.6429    magn:    0.0018    constr:    0.0000
     atom:   42    charge:    1.6422    magn:   -0.0004    constr:    0.0000
     atom:   43    charge:    1.6391    magn:    0.0008    constr:    0.0000
     atom:   44    charge:    1.6414    magn:   -0.0005    constr:    0.0000
     atom:   45    charge:    1.6506    magn:    0.0028    constr:    0.0000
     atom:   46    charge:    1.6400    magn:   -0.0005    constr:    0.0000
     atom:   47    charge:    1.6370    magn:    0.0008    constr:    0.0000
     atom:   48    charge:    1.6410    magn:   -0.0003    constr:    0.0000
     atom:   49    charge:    1.6373    magn:    0.0002    constr:    0.0000
     atom:   50    charge:    1.6419    magn:   -0.0002    constr:    0.0000
     atom:   51    charge:    1.6391    magn:    0.0002    constr:    0.0000
     atom:   52    charge:    1.6415    magn:   -0.0003    constr:    0.0000

     total cpu time spent up to now is     9698.5 secs

     total energy              =    -952.54404387 Ry
     Harris-Foulkes estimate   =    -952.54355467 Ry
     estimated scf accuracy    <       0.00670508 Ry

     total magnetization       =     0.05 Bohr mag/cell
     absolute magnetization    =     0.20 Bohr mag/cell

     iteration #101     ecut=    70.00 Ry     beta= 0.70
     Davidson diagonalization with overlap
     ethr =  5.53E-07,  avg # of iterations =  3.0

     negative rho (up, down):  2.217E-03 2.355E-01

     total cpu time spent up to now is     9811.0 secs

     total energy              =    -952.53974915 Ry
     Harris-Foulkes estimate   =    -952.54595023 Ry
     estimated scf accuracy    <       0.16759994 Ry

     total magnetization       =     0.10 Bohr mag/cell
     absolute magnetization    =     0.72 Bohr mag/cell

     iteration #102     ecut=    70.00 Ry     beta= 0.70
     Davidson diagonalization with overlap
     ethr =  5.53E-07,  avg # of iterations =  9.5

     negative rho (up, down):  3.111E-03 1.209E-01

     total cpu time spent up to now is     9934.8 secs

     total energy              =    -952.54189137 Ry
     Harris-Foulkes estimate   =    -952.54202183 Ry
     estimated scf accuracy    <       0.02825998 Ry

     total magnetization       =     0.04 Bohr mag/cell
     absolute magnetization    =     0.15 Bohr mag/cell

     iteration #103     ecut=    70.00 Ry     beta= 0.70
     Davidson diagonalization with overlap
     ethr =  5.53E-07,  avg # of iterations =  9.0

     negative rho (up, down):  1.369E-03 8.572E-02

     total cpu time spent up to now is    10045.4 secs

     total energy              =    -952.54315527 Ry
     Harris-Foulkes estimate   =    -952.54240087 Ry
     estimated scf accuracy    <       0.00077042 Ry

     total magnetization       =     0.04 Bohr mag/cell
     absolute magnetization    =     0.11 Bohr mag/cell

     iteration #104     ecut=    70.00 Ry     beta= 0.70
     Davidson diagonalization with overlap
     ethr =  3.57E-07,  avg # of iterations =  6.5

     negative rho (up, down):  1.168E-03 3.208E-02

     total cpu time spent up to now is    10146.7 secs

     total energy              =    -952.54343678 Ry
     Harris-Foulkes estimate   =    -952.54324807 Ry
     estimated scf accuracy    <       0.00049753 Ry

     total magnetization       =     0.04 Bohr mag/cell
     absolute magnetization    =     0.08 Bohr mag/cell

     iteration #105     ecut=    70.00 Ry     beta= 0.70
     Davidson diagonalization with overlap
     ethr =  2.30E-07,  avg # of iterations =  4.0

     negative rho (up, down):  1.186E-03 2.172E-03

     total cpu time spent up to now is    10241.8 secs

     total energy              =    -952.54346300 Ry
     Harris-Foulkes estimate   =    -952.54346013 Ry
     estimated scf accuracy    <       0.00054327 Ry

     total magnetization       =     0.03 Bohr mag/cell
     absolute magnetization    =     0.07 Bohr mag/cell

     iteration #106     ecut=    70.00 Ry     beta= 0.70
     Davidson diagonalization with overlap
     ethr =  2.30E-07,  avg # of iterations =  3.0

     negative rho (up, down):  1.200E-03 4.415E-03

     total cpu time spent up to now is    10334.9 secs

     total energy              =    -952.54345985 Ry
     Harris-Foulkes estimate   =    -952.54347434 Ry
     estimated scf accuracy    <       0.00023034 Ry

     total magnetization       =     0.03 Bohr mag/cell
     absolute magnetization    =     0.06 Bohr mag/cell

     iteration #107     ecut=    70.00 Ry     beta= 0.70
     Davidson diagonalization with overlap
     ethr =  1.07E-07,  avg # of iterations =  2.5

     negative rho (up, down):  1.199E-03 5.666E-02

     total cpu time spent up to now is    10430.8 secs

     total energy              =    -952.54338709 Ry
     Harris-Foulkes estimate   =    -952.54350551 Ry
     estimated scf accuracy    <       0.00280568 Ry

     total magnetization       =     0.03 Bohr mag/cell
     absolute magnetization    =     0.13 Bohr mag/cell

     iteration #108     ecut=    70.00 Ry     beta= 0.70
     Davidson diagonalization with overlap
     ethr =  1.07E-07,  avg # of iterations =  3.0

     negative rho (up, down):  1.193E-03 3.907E-02

     total cpu time spent up to now is    10528.2 secs

     total energy              =    -952.54341091 Ry
     Harris-Foulkes estimate   =    -952.54340466 Ry
     estimated scf accuracy    <       0.00055469 Ry

     total magnetization       =     0.03 Bohr mag/cell
     absolute magnetization    =     0.08 Bohr mag/cell

     iteration #109     ecut=    70.00 Ry     beta= 0.70
     Davidson diagonalization with overlap
     ethr =  1.07E-07,  avg # of iterations =  3.0

     negative rho (up, down):  1.171E-03 1.927E-02

     total cpu time spent up to now is    10624.8 secs

     total energy              =    -952.54340949 Ry
     Harris-Foulkes estimate   =    -952.54347415 Ry
     estimated scf accuracy    <       0.00062327 Ry

     total magnetization       =     0.03 Bohr mag/cell
     absolute magnetization    =     0.07 Bohr mag/cell

     iteration #110     ecut=    70.00 Ry     beta= 0.70
     Davidson diagonalization with overlap
     ethr =  1.07E-07,  avg # of iterations =  3.0

     negative rho (up, down):  1.170E-03 1.285E-02

     total cpu time spent up to now is    10725.7 secs

     total energy              =    -952.54343946 Ry
     Harris-Foulkes estimate   =    -952.54349105 Ry
     estimated scf accuracy    <       0.00023816 Ry

[...]
     estimated scf accuracy    <       0.00000001 Ry

     total magnetization       =     0.00 Bohr mag/cell
     absolute magnetization    =     0.00 Bohr mag/cell

     iteration #108     ecut=    70.00 Ry     beta= 0.70
     Davidson diagonalization with overlap
     ethr =  1.00E-13,  avg # of iterations =  3.0

     negative rho (up, down):  1.114E-03 1.660E-04

     total cpu time spent up to now is   113084.7 secs

     total energy              =    -952.54858729 Ry
     Harris-Foulkes estimate   =    -952.54858729 Ry
     estimated scf accuracy    <       0.00000001 Ry

     total magnetization       =     0.00 Bohr mag/cell
     absolute magnetization    =     0.00 Bohr mag/cell

     iteration #109     ecut=    70.00 Ry     beta= 0.70
     Davidson diagonalization with overlap
     ethr =  1.00E-13,  avg # of iterations =  3.5

     negative rho (up, down):  1.114E-03 2.238E-04

     total cpu time spent up to now is   113206.1 secs

     total energy              =    -952.54858729 Ry
     Harris-Foulkes estimate   =    -952.54858729 Ry
     estimated scf accuracy    <       0.00000003 Ry

     total magnetization       =     0.00 Bohr mag/cell
     absolute magnetization    =     0.00 Bohr mag/cell

     iteration #110     ecut=    70.00 Ry     beta= 0.70
     Davidson diagonalization with overlap
     ethr =  1.00E-13,  avg # of iterations =  3.0

     negative rho (up, down):  1.114E-03 2.398E-04

     total cpu time spent up to now is   113308.7 secs

     total energy              =    -952.54858729 Ry
     Harris-Foulkes estimate   =    -952.54858729 Ry
     estimated scf accuracy    <       0.00000003 Ry

     total magnetization       =     0.00 Bohr mag/cell
     absolute magnetization    =     0.00 Bohr mag/cell

     iteration #111     ecut=    70.00 Ry     beta= 0.70
     Davidson diagonalization with overlap
     ethr =  1.00E-13,  avg # of iterations =  4.0

     negative rho (up, down):  1.114E-03 2.977E-04

     total cpu time spent up to now is   113443.2 secs

     total energy              =    -952.54858729 Ry
     Harris-Foulkes estimate   =    -952.54858729 Ry
     estimated scf accuracy    <       0.00000004 Ry

     total magnetization       =     0.00 Bohr mag/cell
     absolute magnetization    =     0.00 Bohr mag/cell

     iteration #112     ecut=    70.00 Ry     beta= 0.70
     Davidson diagonalization with overlap
     ethr =  1.00E-13,  avg # of iterations =  4.0

     negative rho (up, down):  1.114E-03 3.475E-04

     total cpu time spent up to now is   113564.3 secs

     total energy              =    -952.54858729 Ry
     Harris-Foulkes estimate   =    -952.54858729 Ry
     estimated scf accuracy    <       0.00000006 Ry

     total magnetization       =     0.00 Bohr mag/cell
     absolute magnetization    =     0.00 Bohr mag/cell

     iteration #113     ecut=    70.00 Ry     beta= 0.70
     Davidson diagonalization with overlap
     ethr =  1.00E-13,  avg # of iterations =  3.0

     negative rho (up, down):  1.114E-03 3.852E-04

     total cpu time spent up to now is   113692.6 secs

     total energy              =    -952.54858729 Ry
     Harris-Foulkes estimate   =    -952.54858729 Ry
     estimated scf accuracy    <       0.00000007 Ry

     total magnetization       =     0.00 Bohr mag/cell
     absolute magnetization    =     0.00 Bohr mag/cell

     iteration #114     ecut=    70.00 Ry     beta= 0.70
     Davidson diagonalization with overlap
     ethr =  1.00E-13,  avg # of iterations =  3.5

     negative rho (up, down):  1.114E-03 4.646E-04

     total cpu time spent up to now is   113809.5 secs

     total energy              =    -952.54858729 Ry
     Harris-Foulkes estimate   =    -952.54858729 Ry
     estimated scf accuracy    <       0.00000010 Ry

     total magnetization       =     0.00 Bohr mag/cell
     absolute magnetization    =     0.00 Bohr mag/cell

     iteration #115     ecut=    70.00 Ry     beta= 0.70
     Davidson diagonalization with overlap
     ethr =  1.00E-13,  avg # of iterations =  3.0

     negative rho (up, down):  1.114E-03 4.925E-04

     total cpu time spent up to now is   113912.4 secs

     total energy              =    -952.54858729 Ry
     Harris-Foulkes estimate   =    -952.54858729 Ry
     estimated scf accuracy    <       0.00000010 Ry

     total magnetization       =     0.00 Bohr mag/cell
     absolute magnetization    =     0.00 Bohr mag/cell

     iteration #116     ecut=    70.00 Ry     beta= 0.70
     Davidson diagonalization with overlap
     ethr =  1.00E-13,  avg # of iterations =  2.0

     negative rho (up, down):  1.114E-03 4.874E-04

     total cpu time spent up to now is   114011.4 secs

     total energy              =    -952.54858729 Ry
     Harris-Foulkes estimate   =    -952.54858729 Ry
     estimated scf accuracy    <       0.00000010 Ry

     total magnetization       =     0.00 Bohr mag/cell
     absolute magnetization    =     0.00 Bohr mag/cell

     iteration #117     ecut=    70.00 Ry     beta= 0.70
     Davidson diagonalization with overlap
     ethr =  1.00E-13,  avg # of iterations =  4.0

     negative rho (up, down):  1.114E-03 5.816E-04

     total cpu time spent up to now is   114155.3 secs

     total energy              =    -952.54858729 Ry
     Harris-Foulkes estimate   =    -952.54858729 Ry
     estimated scf accuracy    <       0.00000017 Ry

     total magnetization       =     0.00 Bohr mag/cell
     absolute magnetization    =     0.00 Bohr mag/cell

     iteration #118     ecut=    70.00 Ry     beta= 0.70
     Davidson diagonalization with overlap
     ethr =  1.00E-13,  avg # of iterations =  4.0

     negative rho (up, down):  1.114E-03 6.898E-04

     total cpu time spent up to now is   114296.6 secs

     total energy              =    -952.54858729 Ry
     Harris-Foulkes estimate   =    -952.54858729 Ry
     estimated scf accuracy    <       0.00000023 Ry

     total magnetization       =     0.00 Bohr mag/cell
     absolute magnetization    =     0.00 Bohr mag/cell

     iteration #119     ecut=    70.00 Ry     beta= 0.70
     Davidson diagonalization with overlap
     ethr =  1.00E-13,  avg # of iterations =  3.0

     negative rho (up, down):  1.114E-03 7.410E-04

     total cpu time spent up to now is   114401.7 secs

     total energy              =    -952.54858728 Ry
     Harris-Foulkes estimate   =    -952.54858729 Ry
     estimated scf accuracy    <       0.00000024 Ry

     total magnetization       =     0.00 Bohr mag/cell
     absolute magnetization    =     0.00 Bohr mag/cell

     iteration #120     ecut=    70.00 Ry     beta= 0.70
     Davidson diagonalization with overlap
     ethr =  1.00E-13,  avg # of iterations =  4.5

     negative rho (up, down):  1.114E-03 9.031E-04

     total cpu time spent up to now is   114568.9 secs

     total energy              =    -952.54858728 Ry
     Harris-Foulkes estimate   =    -952.54858729 Ry
     estimated scf accuracy    <       0.00000045 Ry

     total magnetization       =     0.00 Bohr mag/cell
     absolute magnetization    =     0.00 Bohr mag/cell

     iteration #121     ecut=    70.00 Ry     beta= 0.70
     Davidson diagonalization with overlap
     ethr =  1.00E-13,  avg # of iterations =  4.0

     negative rho (up, down):  1.114E-03 9.646E-04

     total cpu time spent up to now is   114726.1 secs

     total energy              =    -952.54858728 Ry
     Harris-Foulkes estimate   =    -952.54858729 Ry
     estimated scf accuracy    <       0.00000045 Ry

     total magnetization       =    -0.00 Bohr mag/cell
     absolute magnetization    =     0.00 Bohr mag/cell

     iteration #122     ecut=    70.00 Ry     beta= 0.70
     Davidson diagonalization with overlap
     ethr =  1.00E-13,  avg # of iterations =  4.0

     negative rho (up, down):  1.114E-03 7.350E-04

     total cpu time spent up to now is   114868.4 secs

     total energy              =    -952.54858728 Ry
     Harris-Foulkes estimate   =    -952.54858728 Ry
     estimated scf accuracy    <       0.00000018 Ry

     total magnetization       =    -0.00 Bohr mag/cell
     absolute magnetization    =     0.00 Bohr mag/cell

     iteration #123     ecut=    70.00 Ry     beta= 0.70
     Davidson diagonalization with overlap
     ethr =  1.00E-13,  avg # of iterations =  4.0

     negative rho (up, down):  1.114E-03 3.249E-04

     total cpu time spent up to now is   115024.8 secs

     total energy              =    -952.54858729 Ry
     Harris-Foulkes estimate   =    -952.54858728 Ry
     estimated scf accuracy    <       0.00000002 Ry

     total magnetization       =    -0.00 Bohr mag/cell
     absolute magnetization    =     0.00 Bohr mag/cell

     iteration #124     ecut=    70.00 Ry     beta= 0.70
     Davidson diagonalization with overlap
     ethr =  1.00E-13,  avg # of iterations =  4.5

     negative rho (up, down):  1.114E-03 1.390E-04

     total cpu time spent up to now is   115185.3 secs

     total energy              =    -952.54858729 Ry
     Harris-Foulkes estimate   =    -952.54858729 Ry
     estimated scf accuracy    <          6.0E-09 Ry

     total magnetization       =    -0.00 Bohr mag/cell
     absolute magnetization    =     0.00 Bohr mag/cell

     iteration #125     ecut=    70.00 Ry     beta= 0.70
     Davidson diagonalization with overlap
     ethr =  1.00E-13,  avg # of iterations =  4.0

     negative rho (up, down):  1.114E-03 2.378E-05

     total cpu time spent up to now is   115320.9 secs

     total energy              =    -952.54858729 Ry
     Harris-Foulkes estimate   =    -952.54858729 Ry
     estimated scf accuracy    <          5.9E-10 Ry

     total magnetization       =    -0.00 Bohr mag/cell
     absolute magnetization    =     0.00 Bohr mag/cell

     iteration #126     ecut=    70.00 Ry     beta= 0.70
     Davidson diagonalization with overlap
     ethr =  1.00E-13,  avg # of iterations =  3.0

     negative rho (up, down):  1.114E-03 1.189E-05

     total cpu time spent up to now is   115425.2 secs

     total energy              =    -952.54858729 Ry
     Harris-Foulkes estimate   =    -952.54858729 Ry
     estimated scf accuracy    <          1.1E-10 Ry

     total magnetization       =    -0.00 Bohr mag/cell
     absolute magnetization    =     0.00 Bohr mag/cell

     iteration #127     ecut=    70.00 Ry     beta= 0.70
     Davidson diagonalization with overlap
     ethr =  1.00E-13,  avg # of iterations =  2.0

     negative rho (up, down):  1.114E-03 1.417E-05

     total cpu time spent up to now is   115517.8 secs

     total energy              =    -952.54858729 Ry
     Harris-Foulkes estimate   =    -952.54858729 Ry
     estimated scf accuracy    <          1.3E-10 Ry

     total magnetization       =    -0.00 Bohr mag/cell
     absolute magnetization    =     0.00 Bohr mag/cell

     iteration #128     ecut=    70.00 Ry     beta= 0.70
     Davidson diagonalization with overlap
     ethr =  1.00E-13,  avg # of iterations =  3.0

     negative rho (up, down):  1.114E-03 4.572E-06

     total cpu time spent up to now is   115618.9 secs

     total energy              =    -952.54858729 Ry
     Harris-Foulkes estimate   =    -952.54858729 Ry
     estimated scf accuracy    <          4.1E-11 Ry

     total magnetization       =    -0.00 Bohr mag/cell
     absolute magnetization    =     0.00 Bohr mag/cell

     iteration #129     ecut=    70.00 Ry     beta= 0.70
     Davidson diagonalization with overlap
     ethr =  1.00E-13,  avg # of iterations =  2.0

     negative rho (up, down):  1.114E-03 3.109E-05

     total cpu time spent up to now is   115715.4 secs

     total energy              =    -952.54858729 Ry
     Harris-Foulkes estimate   =    -952.54858729 Ry
     estimated scf accuracy    <          1.1E-09 Ry

     total magnetization       =    -0.00 Bohr mag/cell
     absolute magnetization    =     0.00 Bohr mag/cell

     iteration #130     ecut=    70.00 Ry     beta= 0.70
     Davidson diagonalization with overlap
     ethr =  1.00E-13,  avg # of iterations =  2.0

     negative rho (up, down):  1.114E-03 3.567E-05

     total cpu time spent up to now is   115812.7 secs

     total energy              =    -952.54858729 Ry
     Harris-Foulkes estimate   =    -952.54858729 Ry
     estimated scf accuracy    <          8.2E-10 Ry

     total magnetization       =    -0.00 Bohr mag/cell
     absolute magnetization    =     0.00 Bohr mag/cell

     iteration #131     ecut=    70.00 Ry     beta= 0.70
     Davidson diagonalization with overlap
     ethr =  1.00E-13,  avg # of iterations =  2.0

     negative rho (up, down):  1.114E-03 2.286E-05

     total cpu time spent up to now is   115912.3 secs

     total energy              =    -952.54858729 Ry
     Harris-Foulkes estimate   =    -952.54858729 Ry
     estimated scf accuracy    <          2.3E-10 Ry

     total magnetization       =    -0.00 Bohr mag/cell
     absolute magnetization    =     0.00 Bohr mag/cell

     iteration #132     ecut=    70.00 Ry     beta= 0.70
     Davidson diagonalization with overlap
     ethr =  1.00E-13,  avg # of iterations =  2.0

     negative rho (up, down):  1.114E-03 1.875E-05

     total cpu time spent up to now is   116004.4 secs

     total energy              =    -952.54858729 Ry
     Harris-Foulkes estimate   =    -952.54858729 Ry
     estimated scf accuracy    <          1.1E-10 Ry

     total magnetization       =    -0.00 Bohr mag/cell
     absolute magnetization    =     0.00 Bohr mag/cell

     iteration #133     ecut=    70.00 Ry     beta= 0.70
     Davidson diagonalization with overlap
     ethr =  1.00E-13,  avg # of iterations =  2.0

     negative rho (up, down):  1.114E-03 1.875E-05

     total cpu time spent up to now is   116096.1 secs

     total energy              =    -952.54858729 Ry
     Harris-Foulkes estimate   =    -952.54858729 Ry
     estimated scf accuracy    <          1.7E-10 Ry

     total magnetization       =    -0.00 Bohr mag/cell
     absolute magnetization    =     0.00 Bohr mag/cell

     iteration #134     ecut=    70.00 Ry     beta= 0.70
     Davidson diagonalization with overlap
     ethr =  1.00E-13,  avg # of iterations =  1.0

     negative rho (up, down):  1.114E-03 1.417E-05

     total cpu time spent up to now is   116187.4 secs

     total energy              =    -952.54858729 Ry
     Harris-Foulkes estimate   =    -952.54858729 Ry
     estimated scf accuracy    <          7.8E-11 Ry

     total magnetization       =    -0.00 Bohr mag/cell
     absolute magnetization    =     0.00 Bohr mag/cell

     iteration #135     ecut=    70.00 Ry     beta= 0.70
     Davidson diagonalization with overlap
     ethr =  1.00E-13,  avg # of iterations =  1.5

     negative rho (up, down):  1.114E-03 1.600E-05

     total cpu time spent up to now is   116279.0 secs

     total energy              =    -952.54858729 Ry
     Harris-Foulkes estimate   =    -952.54858729 Ry
     estimated scf accuracy    <          1.4E-10 Ry

     total magnetization       =    -0.00 Bohr mag/cell
     absolute magnetization    =     0.00 Bohr mag/cell

     iteration #136     ecut=    70.00 Ry     beta= 0.70
     Davidson diagonalization with overlap
     ethr =  1.00E-13,  avg # of iterations =  1.0

     negative rho (up, down):  1.114E-03 1.829E-05

     total cpu time spent up to now is   116370.3 secs

     total energy              =    -952.54858729 Ry
     Harris-Foulkes estimate   =    -952.54858729 Ry
     estimated scf accuracy    <          2.0E-10 Ry

     total magnetization       =    -0.00 Bohr mag/cell
     absolute magnetization    =     0.00 Bohr mag/cell

     iteration #137     ecut=    70.00 Ry     beta= 0.70
     Davidson diagonalization with overlap
     ethr =  1.00E-13,  avg # of iterations =  1.5

     negative rho (up, down):  1.114E-03 1.875E-05

     total cpu time spent up to now is   116461.8 secs

     total energy              =    -952.54858729 Ry
     Harris-Foulkes estimate   =    -952.54858729 Ry
     estimated scf accuracy    <          1.4E-10 Ry

     total magnetization       =    -0.00 Bohr mag/cell
     absolute magnetization    =     0.00 Bohr mag/cell

     iteration #138     ecut=    70.00 Ry     beta= 0.70
     Davidson diagonalization with overlap
     ethr =  1.00E-13,  avg # of iterations =  1.5

     negative rho (up, down):  1.114E-03 1.372E-05

     total cpu time spent up to now is   116553.3 secs

     total energy              =    -952.54858729 Ry
     Harris-Foulkes estimate   =    -952.54858729 Ry
     estimated scf accuracy    <          1.1E-10 Ry

     total magnetization       =    -0.00 Bohr mag/cell
     absolute magnetization    =     0.00 Bohr mag/cell

     iteration #139     ecut=    70.00 Ry     beta= 0.70
     Davidson diagonalization with overlap
     ethr =  1.00E-13,  avg # of iterations =  2.0

     negative rho (up, down):  1.114E-03 3.292E-05

     total cpu time spent up to now is   116648.3 secs

     total energy              =    -952.54858729 Ry
     Harris-Foulkes estimate   =    -952.54858729 Ry
     estimated scf accuracy    <          1.1E-09 Ry

     total magnetization       =    -0.00 Bohr mag/cell
     absolute magnetization    =     0.00 Bohr mag/cell

     iteration #140     ecut=    70.00 Ry     beta= 0.70
     Davidson diagonalization with overlap
     ethr =  1.00E-13,  avg # of iterations =  2.0

     negative rho (up, down):  1.114E-03 3.841E-05

     total cpu time spent up to now is   116740.7 secs

     total energy              =    -952.54858729 Ry
     Harris-Foulkes estimate   =    -952.54858729 Ry
     estimated scf accuracy    <          7.9E-10 Ry

     total magnetization       =    -0.00 Bohr mag/cell
     absolute magnetization    =     0.00 Bohr mag/cell

     iteration #141     ecut=    70.00 Ry     beta= 0.70
     Davidson diagonalization with overlap
     ethr =  1.00E-13,  avg # of iterations =  2.0

     negative rho (up, down):  1.114E-03 2.332E-05

     total cpu time spent up to now is   116834.1 secs

     total energy              =    -952.54858729 Ry
     Harris-Foulkes estimate   =    -952.54858729 Ry
     estimated scf accuracy    <          1.8E-10 Ry

     total magnetization       =    -0.00 Bohr mag/cell
     absolute magnetization    =     0.00 Bohr mag/cell

     iteration #142     ecut=    70.00 Ry     beta= 0.70
     Davidson diagonalization with overlap
     ethr =  1.00E-13,  avg # of iterations =  1.5

     negative rho (up, down):  1.114E-03 2.103E-05

     total cpu time spent up to now is   116925.5 secs

     total energy              =    -952.54858729 Ry
     Harris-Foulkes estimate   =    -952.54858729 Ry
     estimated scf accuracy    <          1.5E-10 Ry

     total magnetization       =    -0.00 Bohr mag/cell
     absolute magnetization    =     0.00 Bohr mag/cell

     iteration #143     ecut=    70.00 Ry     beta= 0.70
     Davidson diagonalization with overlap
     ethr =  1.00E-13,  avg # of iterations =  2.0

     negative rho (up, down):  1.114E-03 1.875E-05

     total cpu time spent up to now is   117017.4 secs

     total energy              =    -952.54858729 Ry
     Harris-Foulkes estimate   =    -952.54858729 Ry
     estimated scf accuracy    <          2.1E-10 Ry

     total magnetization       =    -0.00 Bohr mag/cell
     absolute magnetization    =     0.00 Bohr mag/cell

     iteration #144     ecut=    70.00 Ry     beta= 0.70
     Davidson diagonalization with overlap
     ethr =  1.00E-13,  avg # of iterations =  2.0

     negative rho (up, down):  1.114E-03 1.646E-05

     total cpu time spent up to now is   117110.3 secs

     total energy              =    -952.54858729 Ry
     Harris-Foulkes estimate   =    -952.54858729 Ry
     estimated scf accuracy    <          1.0E-10 Ry

     total magnetization       =    -0.00 Bohr mag/cell
     absolute magnetization    =     0.00 Bohr mag/cell

     iteration #145     ecut=    70.00 Ry     beta= 0.70
     Davidson diagonalization with overlap
