
     Program PWSCF v.6.4.1 starts on 17Mar2022 at  8:31:40 

     This program is part of the open-source Quantum ESPRESSO suite
     for quantum simulation of materials; please cite
         "P. Giannozzi et al., J. Phys.:Condens. Matter 21 395502 (2009);
         "P. Giannozzi et al., J. Phys.:Condens. Matter 29 465901 (2017);
          URL http://www.quantum-espresso.org", 
     in publications or presentations arising from this work. More details at
     http://www.quantum-espresso.org/quote

     Parallel version (MPI), running on     6 processors

     MPI processes distributed on     1 nodes
     R & G space division:  proc/nbgrp/npool/nimage =       6
     Reading input from v-2.89.in

     Current dimensions of program PWSCF are:
     Max number of different atomic species (ntypx) = 10
     Max number of k-points (npk) =  40000
     Max angular momentum in pseudopotentials (lmaxx) =  3
               file V.pbe-spnl-rrkjus_psl.1.0.0.UPF: wavefunction(s)  3P 3D renormalized
               file V.pbe-spnl-rrkjus_psl.1.0.0.UPF: wavefunction(s)  3P 3D renormalized

     Subspace diagonalization in iterative solution of the eigenvalue problem:
     a serial algorithm will be used

     Message from routine setup:
     DEPRECATED: symmetry with ibrav=0, use correct ibrav instead

     Parallelization info
     --------------------
     sticks:   dense  smooth     PW     G-vecs:    dense   smooth      PW
     Min         165     110     32                 3950     2160     351
     Max         167     111     33                 3951     2161     353
     Sum         997     665    197                23703    12965    2109



     bravais-lattice index     =            0
     lattice parameter (alat)  =       5.4613  a.u.
     unit-cell volume          =     162.8884 (a.u.)^3
     number of atoms/cell      =            2
     number of atomic types    =            2
     number of electrons       =        26.00
     number of Kohn-Sham states=           17
     kinetic-energy cutoff     =      70.0000  Ry
     charge density cutoff     =     420.0000  Ry
     convergence threshold     =      1.0E-06
     mixing beta               =       0.7000
     number of iterations used =            8  plain     mixing
     Exchange-correlation      = PBE ( 1  4  3  4 0 0)

     celldm(1)=   5.461309  celldm(2)=   0.000000  celldm(3)=   0.000000
     celldm(4)=   0.000000  celldm(5)=   0.000000  celldm(6)=   0.000000

     crystal axes: (cart. coord. in units of alat)
               a(1) = (   1.000000   0.000000   0.000000 )  
               a(2) = (   0.000000   1.000000   0.000000 )  
               a(3) = (   0.000000   0.000000   1.000000 )  

     reciprocal axes: (cart. coord. in units 2 pi/alat)
               b(1) = (  1.000000  0.000000  0.000000 )  
               b(2) = (  0.000000  1.000000  0.000000 )  
               b(3) = (  0.000000  0.000000  1.000000 )  


     PseudoPot. # 1 for V  read from file:
     /home/cristian/Escritorio/Proyecto_Grafeno/pseudopotenciales/V.pbe-spnl-rrkjus_psl.1.0.0.UPF
     MD5 check sum: 79b3eb63147daf0b665d9f1bcc691206
     Pseudo is Ultrasoft + core correction, Zval = 13.0
     Generated using "atomic" code by A. Dal Corso v.6.2.2
     Using radial grid of 1181 points,  6 beta functions with: 
                l(1) =   0
                l(2) =   0
                l(3) =   1
                l(4) =   1
                l(5) =   2
                l(6) =   2
     Q(r) pseudized with 0 coefficients 


     PseudoPot. # 2 for V  read from file:
     /home/cristian/Escritorio/Proyecto_Grafeno/pseudopotenciales/V.pbe-spnl-rrkjus_psl.1.0.0.UPF
     MD5 check sum: 79b3eb63147daf0b665d9f1bcc691206
     Pseudo is Ultrasoft + core correction, Zval = 13.0
     Generated using "atomic" code by A. Dal Corso v.6.2.2
     Using radial grid of 1181 points,  6 beta functions with: 
                l(1) =   0
                l(2) =   0
                l(3) =   1
                l(4) =   1
                l(5) =   2
                l(6) =   2
     Q(r) pseudized with 0 coefficients 


     atomic species   valence    mass     pseudopotential
        V1            13.00    50.94150     V ( 1.00)
        V2            13.00    50.94150     V ( 1.00)

     Starting magnetic structure 
     atomic species   magnetization
        V1           0.100
        V2          -0.100

     48 Sym. Ops., with inversion, found



   Cartesian axes

     site n.     atom                  positions (alat units)
         1           V1  tau(   1) = (   0.0000000   0.0000000   0.0000000  )
         2           V2  tau(   2) = (   0.5000000   0.5000000   0.5000000  )

     number of k points=    20  Methfessel-Paxton smearing, width (Ry)=  0.0300
                       cart. coord. in units 2pi/alat
        k(    1) = (   0.0625000   0.0625000   0.0625000), wk =   0.0156250
        k(    2) = (   0.0625000   0.0625000   0.1875000), wk =   0.0468750
        k(    3) = (   0.0625000   0.0625000   0.3125000), wk =   0.0468750
        k(    4) = (   0.0625000   0.0625000   0.4375000), wk =   0.0468750
        k(    5) = (   0.0625000   0.1875000   0.1875000), wk =   0.0468750
        k(    6) = (   0.0625000   0.1875000   0.3125000), wk =   0.0937500
        k(    7) = (   0.0625000   0.1875000   0.4375000), wk =   0.0937500
        k(    8) = (   0.0625000   0.3125000   0.3125000), wk =   0.0468750
        k(    9) = (   0.0625000   0.3125000   0.4375000), wk =   0.0937500
        k(   10) = (   0.0625000   0.4375000   0.4375000), wk =   0.0468750
        k(   11) = (   0.1875000   0.1875000   0.1875000), wk =   0.0156250
        k(   12) = (   0.1875000   0.1875000   0.3125000), wk =   0.0468750
        k(   13) = (   0.1875000   0.1875000   0.4375000), wk =   0.0468750
        k(   14) = (   0.1875000   0.3125000   0.3125000), wk =   0.0468750
        k(   15) = (   0.1875000   0.3125000   0.4375000), wk =   0.0937500
        k(   16) = (   0.1875000   0.4375000   0.4375000), wk =   0.0468750
        k(   17) = (   0.3125000   0.3125000   0.3125000), wk =   0.0156250
        k(   18) = (   0.3125000   0.3125000   0.4375000), wk =   0.0468750
        k(   19) = (   0.3125000   0.4375000   0.4375000), wk =   0.0468750
        k(   20) = (   0.4375000   0.4375000   0.4375000), wk =   0.0156250

     Dense  grid:    23703 G-vectors     FFT dimensions: (  36,  36,  36)

     Smooth grid:    12965 G-vectors     FFT dimensions: (  30,  30,  30)

     Estimated max dynamical RAM per process >      20.98 MB

     Estimated total dynamical RAM >     125.86 MB
     Generating pointlists ...
     new r_m :   0.3572 (alat units)  1.9510 (a.u.) for type    1
     new r_m :   0.3572 (alat units)  1.9510 (a.u.) for type    2

     Check: negative core charge=   -0.000013

     Initial potential from superposition of free atoms

     starting charge   25.99818, renormalised to   26.00000
     Starting wfcs are   20 randomized atomic wfcs

     total cpu time spent up to now is        2.1 secs

     Self-consistent Calculation

     iteration #  1     ecut=    70.00 Ry     beta= 0.70
     Davidson diagonalization with overlap
     ethr =  1.00E-02,  avg # of iterations =  2.5

     Threshold (ethr) on eigenvalues was too large:
     Diagonalizing with lowered threshold

     Davidson diagonalization with overlap
     ethr =  4.61E-04,  avg # of iterations =  2.4

     total cpu time spent up to now is        3.9 secs

     total energy              =    -291.02311460 Ry
     Harris-Foulkes estimate   =    -291.08630438 Ry
     estimated scf accuracy    <       0.12617449 Ry

     total magnetization       =     0.00 Bohr mag/cell
     absolute magnetization    =     1.14 Bohr mag/cell

     iteration #  2     ecut=    70.00 Ry     beta= 0.70
     Davidson diagonalization with overlap
     ethr =  4.85E-04,  avg # of iterations =  3.0

     total cpu time spent up to now is        5.0 secs

     total energy              =    -291.05288950 Ry
     Harris-Foulkes estimate   =    -291.09083028 Ry
     estimated scf accuracy    <       0.07384264 Ry

     total magnetization       =    -0.00 Bohr mag/cell
     absolute magnetization    =     1.07 Bohr mag/cell

     iteration #  3     ecut=    70.00 Ry     beta= 0.70
     Davidson diagonalization with overlap
     ethr =  2.84E-04,  avg # of iterations =  3.0

     total cpu time spent up to now is        5.8 secs

     total energy              =    -291.07250514 Ry
     Harris-Foulkes estimate   =    -291.07120667 Ry
     estimated scf accuracy    <       0.00401681 Ry

     total magnetization       =     0.01 Bohr mag/cell
     absolute magnetization    =     0.85 Bohr mag/cell

     iteration #  4     ecut=    70.00 Ry     beta= 0.70
     Davidson diagonalization with overlap
     ethr =  1.54E-05,  avg # of iterations =  4.0

     total cpu time spent up to now is        6.8 secs

     total energy              =    -291.07155423 Ry
     Harris-Foulkes estimate   =    -291.07974466 Ry
     estimated scf accuracy    <       0.06020809 Ry

     total magnetization       =    -0.04 Bohr mag/cell
     absolute magnetization    =     0.49 Bohr mag/cell

     iteration #  5     ecut=    70.00 Ry     beta= 0.70
     Davidson diagonalization with overlap
     ethr =  1.54E-05,  avg # of iterations =  4.5

     total cpu time spent up to now is        7.8 secs

     total energy              =    -291.07263579 Ry
     Harris-Foulkes estimate   =    -291.07590205 Ry
     estimated scf accuracy    <       0.00050901 Ry

     total magnetization       =     0.00 Bohr mag/cell
     absolute magnetization    =     0.42 Bohr mag/cell

     iteration #  6     ecut=    70.00 Ry     beta= 0.70
     Davidson diagonalization with overlap
     ethr =  1.96E-06,  avg # of iterations =  5.7

     total cpu time spent up to now is        9.0 secs

     total energy              =    -291.07697476 Ry
     Harris-Foulkes estimate   =    -291.07719416 Ry
     estimated scf accuracy    <       0.00026539 Ry

     total magnetization       =     0.00 Bohr mag/cell
     absolute magnetization    =     0.15 Bohr mag/cell

     iteration #  7     ecut=    70.00 Ry     beta= 0.70
     Davidson diagonalization with overlap
     ethr =  1.02E-06,  avg # of iterations =  4.6

     total cpu time spent up to now is       10.0 secs

     total energy              =    -291.07743211 Ry
     Harris-Foulkes estimate   =    -291.07742969 Ry
     estimated scf accuracy    <       0.00000395 Ry

     total magnetization       =     0.00 Bohr mag/cell
     absolute magnetization    =     0.03 Bohr mag/cell

     iteration #  8     ecut=    70.00 Ry     beta= 0.70
     Davidson diagonalization with overlap
     ethr =  1.52E-08,  avg # of iterations =  4.8

     total cpu time spent up to now is       11.2 secs

     total energy              =    -291.07743581 Ry
     Harris-Foulkes estimate   =    -291.07743797 Ry
     estimated scf accuracy    <       0.00000115 Ry

     total magnetization       =     0.00 Bohr mag/cell
     absolute magnetization    =     0.01 Bohr mag/cell

     iteration #  9     ecut=    70.00 Ry     beta= 0.70
     Davidson diagonalization with overlap
     ethr =  4.41E-09,  avg # of iterations =  5.2

     Magnetic moment per site:
     atom:    1    charge:   11.2341    magn:   -0.0004    constr:    0.0000
     atom:    2    charge:   11.2342    magn:    0.0012    constr:    0.0000

     total cpu time spent up to now is       12.1 secs

     End of self-consistent calculation

 ------ SPIN UP ------------


          k = 0.0625 0.0625 0.0625 (  1611 PWs)   bands (ev):

   -44.7096 -44.2298 -18.6634 -18.6634 -18.5944 -17.8864 -17.8120 -17.8120
    12.3059  15.4862  15.4862  19.2137  19.2137  19.5357  21.5473  21.5473
    22.4685

          k = 0.0625 0.0625 0.1875 (  1620 PWs)   bands (ev):

   -44.6671 -44.2600 -18.7049 -18.5954 -18.4978 -18.0443 -17.8734 -17.8393
    12.9689  15.8468  15.8982  19.0456  19.1339  19.9288  21.0466  21.4564
    21.7835

          k = 0.0625 0.0625 0.3125 (  1615 PWs)   bands (ev):

   -44.5911 -44.3186 -18.7048 -18.4711 -18.3686 -18.2644 -17.9883 -17.9297
    14.1327  16.3898  16.5353  18.9981  19.0396  20.2607  20.4472  20.4806
    21.0926

          k = 0.0625 0.0625 0.4375 (  1619 PWs)   bands (ev):

   -44.4965 -44.4007 -18.6343 -18.4801 -18.3112 -18.2171 -18.1415 -18.0630
    15.4432  16.3399  17.4728  18.4640  19.2795  19.7372  19.8794  20.2678
    21.1554

          k = 0.0625 0.1875 0.1875 (  1618 PWs)   bands (ev):

   -44.6298 -44.2842 -18.7776 -18.5598 -18.3618 -18.2351 -17.9178 -17.8170
    13.5634  16.1052  16.3453  18.6604  18.9088  20.3809  20.5672  21.2291
    21.6183

          k = 0.0625 0.1875 0.3125 (  1603 PWs)   bands (ev):

   -44.5635 -44.3322 -18.8278 -18.4686 -18.4484 -18.2149 -18.0156 -17.8525
    14.5573  16.4046  17.0308  18.4236  18.7150  19.4806  20.8839  20.9035
    21.3195

          k = 0.0625 0.1875 0.4375 (  1610 PWs)   bands (ev):

   -44.4820 -44.4006 -18.7990 -18.6734 -18.3028 -18.1503 -18.0704 -17.9434
    15.5863  16.2872  17.7099  18.2477  18.6555  18.9342  20.6149  20.6453
    21.9971

          k = 0.0625 0.3125 0.3125 (  1607 PWs)   bands (ev):

   -44.5153 -44.3605 -18.9362 -18.7000 -18.3687 -18.0754 -18.0656 -17.8236
    15.1060  16.1921  17.9469  17.9834  18.6507  18.8594  20.7602  21.3956
    21.8436

          k = 0.0625 0.3125 0.4375 (  1612 PWs)   bands (ev):

   -44.4581 -44.4037 -18.9621 -18.8798 -18.2657 -18.1622 -17.9419 -17.8569
    15.5117  15.8559  17.8521  18.0732  18.8365  19.1955  21.0697  21.3613
    22.2448

          k = 0.0625 0.4375 0.4375 (  1617 PWs)   bands (ev):

   -44.4331 -44.4139 -19.0464 -19.0176 -18.2223 -18.1858 -17.8584 -17.8286
    15.3936  15.4963  17.5549  17.6379  20.0359  20.3531  21.4827  21.6524
    22.0282

          k = 0.1875 0.1875 0.1875 (  1614 PWs)   bands (ev):

   -44.5970 -44.3036 -18.7016 -18.7016 -18.3838 -18.2190 -17.8867 -17.8867
    14.1413  16.5712  16.5712  18.4515  18.4515  19.2523  21.3110  21.4941
    21.4941

          k = 0.1875 0.1875 0.3125 (  1606 PWs)   bands (ev):

   -44.5390 -44.3426 -18.8036 -18.5781 -18.5621 -18.0901 -18.0170 -17.8824
    15.0688  16.9644  17.0007  18.1433  18.2531  18.5614  21.2067  21.4876
    21.8881

          k = 0.1875 0.1875 0.4375 (  1603 PWs)   bands (ev):

   -44.4686 -44.3995 -18.8226 -18.7414 -18.3822 -18.1907 -17.9875 -17.9167
    15.9523  16.6341  17.4122  17.8063  18.4817  18.6429  20.9517  20.9926
    22.1661

          k = 0.1875 0.3125 0.3125 (  1615 PWs)   bands (ev):

   -44.4966 -44.3652 -18.8493 -18.7306 -18.5252 -18.0780 -17.9926 -17.9055
    15.7246  16.7403  17.8093  17.8878  17.9449  18.1696  21.4220  21.5406
    21.8518

          k = 0.1875 0.3125 0.4375 (  1612 PWs)   bands (ev):

   -44.4469 -44.4007 -18.8928 -18.8518 -18.3784 -18.2133 -17.9354 -17.9123
    16.0851  16.3682  17.6487  17.6864  18.5946  18.6180  21.3841  21.4746
    22.1087

          k = 0.1875 0.4375 0.4375 (  1606 PWs)   bands (ev):

   -44.4247 -44.4084 -18.9520 -18.9387 -18.3097 -18.2438 -17.9204 -17.9189
    15.9778  16.0451  17.4552  17.5062  19.3705  19.3837  21.6698  21.7489
    22.0521

          k = 0.3125 0.3125 0.3125 (  1610 PWs)   bands (ev):

   -44.4649 -44.3769 -18.7842 -18.6893 -18.6893 -18.0581 -18.0581 -17.9575
    16.6455  17.1340  17.6049  17.6049  17.7502  17.7502  21.8248  21.8248
    21.9437

          k = 0.3125 0.3125 0.4375 (  1604 PWs)   bands (ev):

   -44.4293 -44.3983 -18.8218 -18.7961 -18.4820 -18.2604 -18.0142 -17.9710
    16.8096  16.8255  17.5147  17.5860  18.0440  18.2928  21.7439  21.7596
    22.0693

          k = 0.3125 0.4375 0.4375 (  1612 PWs)   bands (ev):

   -44.4122 -44.4012 -18.8038 -18.7782 -18.4359 -18.3115 -18.0872 -18.0421
    16.8124  16.8962  17.3808  17.4927  18.4163  18.5287  21.9216  21.9407
    22.0812

          k = 0.4375 0.4375 0.4375 (  1610 PWs)   bands (ev):

   -44.4018 -44.3977 -18.6624 -18.5522 -18.5522 -18.3094 -18.3094 -18.1956
    17.1988  17.4843  17.4843  17.8629  17.8629  17.8958  22.0956  22.0958
    22.0970

 ------ SPIN DOWN ----------


          k = 0.0625 0.0625 0.0625 (  1611 PWs)   bands (ev):

   -44.7090 -44.2293 -18.6628 -18.6628 -18.5938 -17.8858 -17.8114 -17.8114
    12.3064  15.4865  15.4865  19.2145  19.2145  19.5365  21.5477  21.5477
    22.4692

          k = 0.0625 0.0625 0.1875 (  1620 PWs)   bands (ev):

   -44.6666 -44.2594 -18.7043 -18.5948 -18.4972 -18.0437 -17.8728 -17.8387
    12.9694  15.8471  15.8986  19.0463  19.1347  19.9296  21.0470  21.4571
    21.7838

          k = 0.0625 0.0625 0.3125 (  1615 PWs)   bands (ev):

   -44.5905 -44.3180 -18.7042 -18.4705 -18.3680 -18.2638 -17.9877 -17.9291
    14.1332  16.3902  16.5357  18.9988  19.0403  20.2611  20.4479  20.4813
    21.0933

          k = 0.0625 0.0625 0.4375 (  1619 PWs)   bands (ev):

   -44.4959 -44.4001 -18.6337 -18.4795 -18.3106 -18.2165 -18.1409 -18.0624
    15.4437  16.3404  17.4732  18.4644  19.2802  19.7379  19.8801  20.2685
    21.1561

          k = 0.0625 0.1875 0.1875 (  1618 PWs)   bands (ev):

   -44.6293 -44.2837 -18.7770 -18.5592 -18.3612 -18.2345 -17.9172 -17.8164
    13.5640  16.1055  16.3457  18.6612  18.9095  20.3816  20.5680  21.2295
    21.6190

          k = 0.0625 0.1875 0.3125 (  1603 PWs)   bands (ev):

   -44.5629 -44.3316 -18.8272 -18.4680 -18.4478 -18.2143 -18.0150 -17.8519
    14.5579  16.4050  17.0312  18.4244  18.7156  19.4813  20.8845  20.9039
    21.3202

          k = 0.0625 0.1875 0.4375 (  1610 PWs)   bands (ev):

   -44.4814 -44.4000 -18.7984 -18.6728 -18.3022 -18.1497 -18.0698 -17.9428
    15.5868  16.2877  17.7103  18.2483  18.6561  18.9349  20.6155  20.6459
    21.9978

          k = 0.0625 0.3125 0.3125 (  1607 PWs)   bands (ev):

   -44.5147 -44.3599 -18.9356 -18.6994 -18.3681 -18.0748 -18.0650 -17.8230
    15.1065  16.1926  17.9473  17.9842  18.6514  18.8599  20.7608  21.3961
    21.8439

          k = 0.0625 0.3125 0.4375 (  1612 PWs)   bands (ev):

   -44.4575 -44.4031 -18.9615 -18.8792 -18.2651 -18.1616 -17.9413 -17.8563
    15.5123  15.8564  17.8529  18.0740  18.8369  19.1960  21.0703  21.3618
    22.2452

          k = 0.0625 0.4375 0.4375 (  1617 PWs)   bands (ev):

   -44.4325 -44.4134 -19.0458 -19.0170 -18.2216 -18.1852 -17.8578 -17.8280
    15.3942  15.4968  17.5556  17.6386  20.0363  20.3536  21.4832  21.6529
    22.0285

          k = 0.1875 0.1875 0.1875 (  1614 PWs)   bands (ev):

   -44.5964 -44.3031 -18.7010 -18.7010 -18.3832 -18.2184 -17.8861 -17.8861
    14.1418  16.5716  16.5716  18.4522  18.4522  19.2530  21.3118  21.4945
    21.4945

          k = 0.1875 0.1875 0.3125 (  1606 PWs)   bands (ev):

   -44.5384 -44.3420 -18.8030 -18.5775 -18.5615 -18.0895 -18.0164 -17.8819
    15.0694  16.9648  17.0012  18.1439  18.2538  18.5621  21.2071  21.4883
    21.8885

          k = 0.1875 0.1875 0.4375 (  1603 PWs)   bands (ev):

   -44.4680 -44.3990 -18.8220 -18.7408 -18.3816 -18.1901 -17.9869 -17.9161
    15.9529  16.6346  17.4127  17.8068  18.4824  18.6436  20.9522  20.9932
    22.1665

          k = 0.1875 0.3125 0.3125 (  1615 PWs)   bands (ev):

   -44.4960 -44.3646 -18.8487 -18.7300 -18.5246 -18.0774 -17.9920 -17.9049
    15.7252  16.7408  17.8100  17.8882  17.9456  18.1702  21.4226  21.5410
    21.8522

          k = 0.1875 0.3125 0.4375 (  1612 PWs)   bands (ev):

   -44.4464 -44.4001 -18.8922 -18.8512 -18.3778 -18.2127 -17.9348 -17.9117
    16.0856  16.3688  17.6494  17.6870  18.5952  18.6185  21.3847  21.4751
    22.1091

          k = 0.1875 0.4375 0.4375 (  1606 PWs)   bands (ev):

   -44.4241 -44.4078 -18.9514 -18.9381 -18.3091 -18.2433 -17.9198 -17.9183
    15.9784  16.0456  17.4560  17.5069  19.3710  19.3843  21.6703  21.7494
    22.0524

          k = 0.3125 0.3125 0.3125 (  1610 PWs)   bands (ev):

   -44.4643 -44.3763 -18.7836 -18.6887 -18.6887 -18.0575 -18.0575 -17.9569
    16.6461  17.1347  17.6056  17.6056  17.7507  17.7507  21.8251  21.8252
    21.9442

          k = 0.3125 0.3125 0.4375 (  1604 PWs)   bands (ev):

   -44.4287 -44.3978 -18.8212 -18.7955 -18.4814 -18.2598 -18.0136 -17.9704
    16.8102  16.8261  17.5153  17.5866  18.0446  18.2934  21.7444  21.7600
    22.0697

          k = 0.3125 0.4375 0.4375 (  1612 PWs)   bands (ev):

   -44.4116 -44.4007 -18.8032 -18.7776 -18.4353 -18.3109 -18.0866 -18.0415
    16.8131  16.8969  17.3815  17.4934  18.4170  18.5293  21.9220  21.9411
    22.0816

          k = 0.4375 0.4375 0.4375 (  1610 PWs)   bands (ev):

   -44.4012 -44.3971 -18.6618 -18.5516 -18.5516 -18.3088 -18.3088 -18.1951
    17.1994  17.4849  17.4849  17.8635  17.8635  17.8964  22.0960  22.0962
    22.0973

     the Fermi energy is    18.8868 ev

!    total energy              =    -291.07743949 Ry
     Harris-Foulkes estimate   =    -291.07743947 Ry
     estimated scf accuracy    <       0.00000002 Ry

     The total energy is the sum of the following terms:

     one-electron contribution =     -79.56448714 Ry
     hartree contribution      =      54.62929412 Ry
     xc contribution           =     -40.90930662 Ry
     ewald contribution        =    -225.23190194 Ry
     smearing contrib. (-TS)   =      -0.00103791 Ry

     total magnetization       =     0.00 Bohr mag/cell
     absolute magnetization    =     0.00 Bohr mag/cell

     convergence has been achieved in   9 iterations

     Writing output data file v-2.89.save/

     init_run     :      0.67s CPU      0.71s WALL (       1 calls)
     electrons    :      9.69s CPU      9.96s WALL (       1 calls)

     Called by init_run:
     wfcinit      :      0.24s CPU      0.25s WALL (       1 calls)
     potinit      :      0.04s CPU      0.04s WALL (       1 calls)
     hinit0       :      0.20s CPU      0.20s WALL (       1 calls)

     Called by electrons:
     c_bands      :      7.63s CPU      7.81s WALL (      10 calls)
     sum_band     :      1.54s CPU      1.63s WALL (      10 calls)
     v_of_rho     :      0.13s CPU      0.14s WALL (      10 calls)
     newd         :      0.54s CPU      0.57s WALL (      10 calls)
     mix_rho      :      0.02s CPU      0.02s WALL (      10 calls)

     Called by c_bands:
     init_us_2    :      0.09s CPU      0.09s WALL (     840 calls)
     cegterg      :      7.23s CPU      7.40s WALL (     400 calls)

     Called by sum_band:
     sum_band:bec :      0.01s CPU      0.01s WALL (     400 calls)
     addusdens    :      0.69s CPU      0.74s WALL (      10 calls)

     Called by *egterg:
     h_psi        :      4.08s CPU      4.19s WALL (    2018 calls)
     s_psi        :      0.34s CPU      0.35s WALL (    2018 calls)
     g_psi        :      0.03s CPU      0.03s WALL (    1578 calls)
     cdiaghg      :      1.21s CPU      1.22s WALL (    1938 calls)

     Called by h_psi:
     h_psi:pot    :      4.06s CPU      4.17s WALL (    2018 calls)
     h_psi:calbec :      0.52s CPU      0.53s WALL (    2018 calls)
     vloc_psi     :      3.21s CPU      3.30s WALL (    2018 calls)
     add_vuspsi   :      0.33s CPU      0.34s WALL (    2018 calls)

     General routines
     calbec       :      0.69s CPU      0.71s WALL (    2418 calls)
     fft          :      0.08s CPU      0.08s WALL (     246 calls)
     ffts         :      0.01s CPU      0.01s WALL (      40 calls)
     fftw         :      3.43s CPU      3.53s WALL (   47186 calls)
     interpolate  :      0.01s CPU      0.01s WALL (      20 calls)

     Parallel routines
     fft_scatt_xy :      0.28s CPU      0.28s WALL (   47472 calls)
     fft_scatt_yz :      1.63s CPU      1.68s WALL (   47472 calls)

     PWSCF        :     11.93s CPU     12.35s WALL


   This run was terminated on:   8:31:52  17Mar2022            

=------------------------------------------------------------------------------=
   JOB DONE.
=------------------------------------------------------------------------------=
