
     Program PWSCF v.6.4.1 starts on 17Mar2022 at  8:32:51 

     This program is part of the open-source Quantum ESPRESSO suite
     for quantum simulation of materials; please cite
         "P. Giannozzi et al., J. Phys.:Condens. Matter 21 395502 (2009);
         "P. Giannozzi et al., J. Phys.:Condens. Matter 29 465901 (2017);
          URL http://www.quantum-espresso.org", 
     in publications or presentations arising from this work. More details at
     http://www.quantum-espresso.org/quote

     Parallel version (MPI), running on     6 processors

     MPI processes distributed on     1 nodes
     R & G space division:  proc/nbgrp/npool/nimage =       6
     Reading input from v-3.01.in

     Current dimensions of program PWSCF are:
     Max number of different atomic species (ntypx) = 10
     Max number of k-points (npk) =  40000
     Max angular momentum in pseudopotentials (lmaxx) =  3
               file V.pbe-spnl-rrkjus_psl.1.0.0.UPF: wavefunction(s)  3P 3D renormalized
               file V.pbe-spnl-rrkjus_psl.1.0.0.UPF: wavefunction(s)  3P 3D renormalized

     Subspace diagonalization in iterative solution of the eigenvalue problem:
     a serial algorithm will be used

     Message from routine setup:
     DEPRECATED: symmetry with ibrav=0, use correct ibrav instead

     Parallelization info
     --------------------
     sticks:   dense  smooth     PW     G-vecs:    dense   smooth      PW
     Min         180     120     36                 4476     2421     410
     Max         181     122     37                 4481     2422     413
     Sum        1085     725    221                26865    14531    2469



     bravais-lattice index     =            0
     lattice parameter (alat)  =       5.6881  a.u.
     unit-cell volume          =     184.0332 (a.u.)^3
     number of atoms/cell      =            2
     number of atomic types    =            2
     number of electrons       =        26.00
     number of Kohn-Sham states=           17
     kinetic-energy cutoff     =      70.0000  Ry
     charge density cutoff     =     420.0000  Ry
     convergence threshold     =      1.0E-06
     mixing beta               =       0.7000
     number of iterations used =            8  plain     mixing
     Exchange-correlation      = PBE ( 1  4  3  4 0 0)

     celldm(1)=   5.688076  celldm(2)=   0.000000  celldm(3)=   0.000000
     celldm(4)=   0.000000  celldm(5)=   0.000000  celldm(6)=   0.000000

     crystal axes: (cart. coord. in units of alat)
               a(1) = (   1.000000   0.000000   0.000000 )  
               a(2) = (   0.000000   1.000000   0.000000 )  
               a(3) = (   0.000000   0.000000   1.000000 )  

     reciprocal axes: (cart. coord. in units 2 pi/alat)
               b(1) = (  1.000000  0.000000  0.000000 )  
               b(2) = (  0.000000  1.000000  0.000000 )  
               b(3) = (  0.000000  0.000000  1.000000 )  


     PseudoPot. # 1 for V  read from file:
     /home/cristian/Escritorio/Proyecto_Grafeno/pseudopotenciales/V.pbe-spnl-rrkjus_psl.1.0.0.UPF
     MD5 check sum: 79b3eb63147daf0b665d9f1bcc691206
     Pseudo is Ultrasoft + core correction, Zval = 13.0
     Generated using "atomic" code by A. Dal Corso v.6.2.2
     Using radial grid of 1181 points,  6 beta functions with: 
                l(1) =   0
                l(2) =   0
                l(3) =   1
                l(4) =   1
                l(5) =   2
                l(6) =   2
     Q(r) pseudized with 0 coefficients 


     PseudoPot. # 2 for V  read from file:
     /home/cristian/Escritorio/Proyecto_Grafeno/pseudopotenciales/V.pbe-spnl-rrkjus_psl.1.0.0.UPF
     MD5 check sum: 79b3eb63147daf0b665d9f1bcc691206
     Pseudo is Ultrasoft + core correction, Zval = 13.0
     Generated using "atomic" code by A. Dal Corso v.6.2.2
     Using radial grid of 1181 points,  6 beta functions with: 
                l(1) =   0
                l(2) =   0
                l(3) =   1
                l(4) =   1
                l(5) =   2
                l(6) =   2
     Q(r) pseudized with 0 coefficients 


     atomic species   valence    mass     pseudopotential
        V1            13.00    50.94150     V ( 1.00)
        V2            13.00    50.94150     V ( 1.00)

     Starting magnetic structure 
     atomic species   magnetization
        V1           0.100
        V2          -0.100

     48 Sym. Ops., with inversion, found



   Cartesian axes

     site n.     atom                  positions (alat units)
         1           V1  tau(   1) = (   0.0000000   0.0000000   0.0000000  )
         2           V2  tau(   2) = (   0.5000000   0.5000000   0.5000000  )

     number of k points=    20  Methfessel-Paxton smearing, width (Ry)=  0.0300
                       cart. coord. in units 2pi/alat
        k(    1) = (   0.0625000   0.0625000   0.0625000), wk =   0.0156250
        k(    2) = (   0.0625000   0.0625000   0.1875000), wk =   0.0468750
        k(    3) = (   0.0625000   0.0625000   0.3125000), wk =   0.0468750
        k(    4) = (   0.0625000   0.0625000   0.4375000), wk =   0.0468750
        k(    5) = (   0.0625000   0.1875000   0.1875000), wk =   0.0468750
        k(    6) = (   0.0625000   0.1875000   0.3125000), wk =   0.0937500
        k(    7) = (   0.0625000   0.1875000   0.4375000), wk =   0.0937500
        k(    8) = (   0.0625000   0.3125000   0.3125000), wk =   0.0468750
        k(    9) = (   0.0625000   0.3125000   0.4375000), wk =   0.0937500
        k(   10) = (   0.0625000   0.4375000   0.4375000), wk =   0.0468750
        k(   11) = (   0.1875000   0.1875000   0.1875000), wk =   0.0156250
        k(   12) = (   0.1875000   0.1875000   0.3125000), wk =   0.0468750
        k(   13) = (   0.1875000   0.1875000   0.4375000), wk =   0.0468750
        k(   14) = (   0.1875000   0.3125000   0.3125000), wk =   0.0468750
        k(   15) = (   0.1875000   0.3125000   0.4375000), wk =   0.0937500
        k(   16) = (   0.1875000   0.4375000   0.4375000), wk =   0.0468750
        k(   17) = (   0.3125000   0.3125000   0.3125000), wk =   0.0156250
        k(   18) = (   0.3125000   0.3125000   0.4375000), wk =   0.0468750
        k(   19) = (   0.3125000   0.4375000   0.4375000), wk =   0.0468750
        k(   20) = (   0.4375000   0.4375000   0.4375000), wk =   0.0156250

     Dense  grid:    26865 G-vectors     FFT dimensions: (  40,  40,  40)

     Smooth grid:    14531 G-vectors     FFT dimensions: (  32,  32,  32)

     Estimated max dynamical RAM per process >      23.77 MB

     Estimated total dynamical RAM >     142.62 MB
     Generating pointlists ...
     new r_m :   0.3572 (alat units)  2.0320 (a.u.) for type    1
     new r_m :   0.3572 (alat units)  2.0320 (a.u.) for type    2

     Check: negative core charge=   -0.000011

     Initial potential from superposition of free atoms

     starting charge   25.99818, renormalised to   26.00000
     Starting wfcs are   20 randomized atomic wfcs

     total cpu time spent up to now is        2.0 secs

     Self-consistent Calculation

     iteration #  1     ecut=    70.00 Ry     beta= 0.70
     Davidson diagonalization with overlap
     ethr =  1.00E-02,  avg # of iterations =  2.5

     Threshold (ethr) on eigenvalues was too large:
     Diagonalizing with lowered threshold

     Davidson diagonalization with overlap
     ethr =  4.98E-04,  avg # of iterations =  2.2

     total cpu time spent up to now is        3.6 secs

     total energy              =    -291.03125652 Ry
     Harris-Foulkes estimate   =    -291.10831027 Ry
     estimated scf accuracy    <       0.13945816 Ry

     total magnetization       =    -0.00 Bohr mag/cell
     absolute magnetization    =     1.28 Bohr mag/cell

     iteration #  2     ecut=    70.00 Ry     beta= 0.70
     Davidson diagonalization with overlap
     ethr =  5.36E-04,  avg # of iterations =  3.1

     total cpu time spent up to now is        4.7 secs

     total energy              =    -291.05993067 Ry
     Harris-Foulkes estimate   =    -291.11857276 Ry
     estimated scf accuracy    <       0.11581345 Ry

     total magnetization       =    -0.00 Bohr mag/cell
     absolute magnetization    =     1.35 Bohr mag/cell

     iteration #  3     ecut=    70.00 Ry     beta= 0.70
     Davidson diagonalization with overlap
     ethr =  4.45E-04,  avg # of iterations =  3.0

     total cpu time spent up to now is        5.6 secs

     total energy              =    -291.08813843 Ry
     Harris-Foulkes estimate   =    -291.08703496 Ry
     estimated scf accuracy    <       0.00332474 Ry

     total magnetization       =     0.00 Bohr mag/cell
     absolute magnetization    =     1.09 Bohr mag/cell

     iteration #  4     ecut=    70.00 Ry     beta= 0.70
     Davidson diagonalization with overlap
     ethr =  1.28E-05,  avg # of iterations =  4.5

     total cpu time spent up to now is        6.7 secs

     total energy              =    -291.09098773 Ry
     Harris-Foulkes estimate   =    -291.09103874 Ry
     estimated scf accuracy    <       0.00212231 Ry

     total magnetization       =    -0.01 Bohr mag/cell
     absolute magnetization    =     0.70 Bohr mag/cell

     iteration #  5     ecut=    70.00 Ry     beta= 0.70
     Davidson diagonalization with overlap
     ethr =  8.16E-06,  avg # of iterations =  1.1

     total cpu time spent up to now is        7.4 secs

     total energy              =    -291.09122767 Ry
     Harris-Foulkes estimate   =    -291.09107670 Ry
     estimated scf accuracy    <       0.00061433 Ry

     total magnetization       =     0.00 Bohr mag/cell
     absolute magnetization    =     0.69 Bohr mag/cell

     iteration #  6     ecut=    70.00 Ry     beta= 0.70
     Davidson diagonalization with overlap
     ethr =  2.36E-06,  avg # of iterations =  4.7

     total cpu time spent up to now is        8.5 secs

     total energy              =    -291.09226189 Ry
     Harris-Foulkes estimate   =    -291.09295575 Ry
     estimated scf accuracy    <       0.00051270 Ry

     total magnetization       =     0.01 Bohr mag/cell
     absolute magnetization    =     0.32 Bohr mag/cell

     iteration #  7     ecut=    70.00 Ry     beta= 0.70
     Davidson diagonalization with overlap
     ethr =  1.97E-06,  avg # of iterations =  4.9

     total cpu time spent up to now is        9.5 secs

     total energy              =    -291.09341428 Ry
     Harris-Foulkes estimate   =    -291.09347825 Ry
     estimated scf accuracy    <       0.00044238 Ry

     total magnetization       =     0.00 Bohr mag/cell
     absolute magnetization    =     0.01 Bohr mag/cell

     iteration #  8     ecut=    70.00 Ry     beta= 0.70
     Davidson diagonalization with overlap
     ethr =  1.70E-06,  avg # of iterations =  2.0

     Magnetic moment per site:
     atom:    1    charge:   11.3020    magn:    0.0186    constr:    0.0000
     atom:    2    charge:   11.3030    magn:   -0.0163    constr:    0.0000

     total cpu time spent up to now is       10.2 secs

     End of self-consistent calculation

 ------ SPIN UP ------------


          k = 0.0625 0.0625 0.0625 (  1815 PWs)   bands (ev):

   -47.3156 -47.0135 -21.2340 -21.2340 -21.1865 -20.6912 -20.6410 -20.6410
    10.0392  13.5858  13.5858  16.7371  16.7371  17.0079  18.7432  18.7432
    19.4907

          k = 0.0625 0.0625 0.1875 (  1828 PWs)   bands (ev):

   -47.2891 -47.0325 -21.2600 -21.1867 -21.1192 -20.7976 -20.6834 -20.6593
    10.6366  13.8931  13.9021  16.5963  16.6719  17.3413  18.3341  18.6311
    18.9343

          k = 0.0625 0.0625 0.3125 (  1823 PWs)   bands (ev):

   -47.2419 -47.0693 -21.2556 -21.1001 -21.0297 -20.9453 -20.7629 -20.7217
    11.7097  14.2033  14.5036  16.5660  16.5875  17.6759  17.7722  17.8137
    18.3207

          k = 0.0625 0.0625 0.4375 (  1828 PWs)   bands (ev):

   -47.1844 -47.1193 -21.2034 -21.0948 -20.9895 -20.9220 -20.8686 -20.8139
    12.9809  13.9643  15.3141  16.1494  16.7843  17.1743  17.3168  17.6261
    18.3874

          k = 0.0625 0.1875 0.1875 (  1831 PWs)   bands (ev):

   -47.2660 -47.0480 -21.3086 -21.1611 -21.0254 -20.9267 -20.7142 -20.6433
    11.1847  14.0962  14.2679  16.2735  16.4783  17.7150  17.8796  18.4757
    18.7656

          k = 0.0625 0.1875 0.3125 (  1822 PWs)   bands (ev):

   -47.2251 -47.0780 -21.3400 -21.0893 -21.0831 -20.9196 -20.7822 -20.6673
    12.1369  14.2856  14.8270  16.0728  16.2926  16.9561  18.1477  18.2001
    18.5153

          k = 0.0625 0.1875 0.4375 (  1825 PWs)   bands (ev):

   -47.1761 -47.1193 -21.3171 -21.2288 -20.9838 -20.8750 -20.8188 -20.7302
    13.1989  14.0101  15.4238  15.9075  16.2354  16.4907  17.9321  17.9664
    19.0934

          k = 0.0625 0.3125 0.3125 (  1829 PWs)   bands (ev):

   -47.1959 -47.0958 -21.4127 -21.2468 -21.0292 -20.8246 -20.8148 -20.6466
    12.7666  14.0860  15.5614  15.6985  16.2556  16.3167  18.0553  18.5971
    18.9822

          k = 0.0625 0.3125 0.4375 (  1815 PWs)   bands (ev):

   -47.1629 -47.1206 -21.4283 -21.3705 -20.9595 -20.8834 -20.7285 -20.6693
    13.3091  13.7311  15.5838  15.7641  16.2870  16.5457  18.3202  18.5612
    19.2923

          k = 0.0625 0.4375 0.4375 (  1809 PWs)   bands (ev):

   -47.1515 -47.1237 -21.4853 -21.4651 -20.9334 -20.8973 -20.6699 -20.6489
    13.3121  13.4358  15.3315  15.3999  17.2663  17.4703  18.6614  18.7992
    19.1273

          k = 0.1875 0.1875 0.1875 (  1833 PWs)   bands (ev):

   -47.2458 -47.0603 -21.2558 -21.2558 -21.0323 -20.9239 -20.6913 -20.6913
    11.7146  14.4643  14.4643  16.0957  16.0957  16.7449  18.4986  18.6948
    18.6948

          k = 0.1875 0.1875 0.3125 (  1826 PWs)   bands (ev):

   -47.2102 -47.0848 -21.3228 -21.1644 -21.1591 -20.8345 -20.7812 -20.6879
    12.6093  14.7423  14.8048  15.8283  15.9073  16.1636  18.4525  18.6615
    19.0125

          k = 0.1875 0.1875 0.4375 (  1816 PWs)   bands (ev):

   -47.1686 -47.1186 -21.3333 -21.2763 -21.0352 -20.9003 -20.7623 -20.7121
    13.5527  14.3104  15.1909  15.5328  16.0557  16.2054  18.2337  18.2564
    19.2318

          k = 0.1875 0.3125 0.3125 (  1824 PWs)   bands (ev):

   -47.1848 -47.0988 -21.3524 -21.2689 -21.1324 -20.8231 -20.7661 -20.7026
    13.2987  14.5501  15.5059  15.5404  15.6388  15.7742  18.6113  18.7227
    18.9852

          k = 0.1875 0.3125 0.4375 (  1815 PWs)   bands (ev):

   -47.1569 -47.1186 -21.3805 -21.3517 -21.0320 -20.9156 -20.7250 -20.7074
    13.8116  14.1772  15.3914  15.4081  16.0492  16.0972  18.5858  18.6656
    19.1861

          k = 0.1875 0.4375 0.4375 (  1803 PWs)   bands (ev):

   -47.1471 -47.1200 -21.4199 -21.4107 -20.9875 -20.9359 -20.7125 -20.7105
    13.8180  13.9097  15.2297  15.2687  16.6697  16.6880  18.8197  18.8867
    19.1478

          k = 0.3125 0.3125 0.3125 (  1815 PWs)   bands (ev):

   -47.1663 -47.1058 -21.3058 -21.2418 -21.2418 -20.8070 -20.8070 -20.7412
    14.1102  14.9234  15.3437  15.3437  15.3892  15.3892  18.9585  18.9585
    19.0480

          k = 0.3125 0.3125 0.4375 (  1811 PWs)   bands (ev):

   -47.1478 -47.1161 -21.3312 -21.3134 -21.0996 -20.9449 -20.7766 -20.7484
    14.4887  14.6139  15.2352  15.2659  15.5892  15.8111  18.8841  18.9067
    19.1616

          k = 0.3125 0.4375 0.4375 (  1808 PWs)   bands (ev):

   -47.1409 -47.1149 -21.3176 -21.2998 -21.0683 -20.9793 -20.8252 -20.7953
    14.5915  14.6226  15.1338  15.2028  15.8707  15.9864  19.0285  19.0547
    19.1811

          k = 0.4375 0.4375 0.4375 (  1820 PWs)   bands (ev):

   -47.1365 -47.1112 -21.2202 -21.1449 -21.1449 -20.9764 -20.9764 -20.8993
    14.9424  15.1778  15.1778  15.4334  15.4551  15.4551  19.1661  19.1662
    19.1933

 ------ SPIN DOWN ----------


          k = 0.0625 0.0625 0.0625 (  1815 PWs)   bands (ev):

   -47.3135 -47.0120 -21.2320 -21.2320 -21.1845 -20.6895 -20.6393 -20.6393
    10.0400  13.5867  13.5867  16.7389  16.7389  17.0099  18.7443  18.7443
    19.4927

          k = 0.0625 0.0625 0.1875 (  1828 PWs)   bands (ev):

   -47.2870 -47.0311 -21.2580 -21.1847 -21.1171 -20.7960 -20.6817 -20.6576
    10.6374  13.8940  13.9030  16.5982  16.6739  17.3433  18.3353  18.6330
    18.9355

          k = 0.0625 0.0625 0.3125 (  1823 PWs)   bands (ev):

   -47.2396 -47.0680 -21.2536 -21.0980 -21.0271 -20.9443 -20.7613 -20.7200
    11.7105  14.2042  14.5045  16.5677  16.5894  17.6771  17.7750  17.8147
    18.3225

          k = 0.0625 0.0625 0.4375 (  1828 PWs)   bands (ev):

   -47.1813 -47.1189 -21.2012 -21.0929 -20.9870 -20.9202 -20.8675 -20.8125
    12.9818  13.9652  15.3151  16.1506  16.7860  17.1761  17.3185  17.6279
    18.3890

          k = 0.0625 0.1875 0.1875 (  1831 PWs)   bands (ev):

   -47.2639 -47.0465 -21.3066 -21.1591 -21.0227 -20.9257 -20.7126 -20.6416
    11.1856  14.0971  14.2689  16.2754  16.4801  17.7171  17.8813  18.4770
    18.7674

          k = 0.0625 0.1875 0.3125 (  1822 PWs)   bands (ev):

   -47.2227 -47.0768 -21.3380 -21.0867 -21.0814 -20.9183 -20.7807 -20.6656
    12.1378  14.2866  14.8280  16.0747  16.2941  16.9580  18.1495  18.2015
    18.5172

          k = 0.0625 0.1875 0.4375 (  1825 PWs)   bands (ev):

   -47.1728 -47.1190 -21.3151 -21.2269 -20.9812 -20.8739 -20.8171 -20.7285
    13.1999  14.0112  15.4249  15.9088  16.2371  16.4924  17.9338  17.9679
    19.0952

          k = 0.0625 0.3125 0.3125 (  1829 PWs)   bands (ev):

   -47.1932 -47.0948 -21.4108 -21.2448 -21.0269 -20.8230 -20.8134 -20.6449
    12.7676  14.0871  15.5624  15.7003  16.2575  16.3181  18.0568  18.5986
    18.9834

          k = 0.0625 0.3125 0.4375 (  1815 PWs)   bands (ev):

   -47.1590 -47.1209 -21.4264 -21.3686 -20.9566 -20.8827 -20.7268 -20.6676
    13.3103  13.7323  15.5857  15.7659  16.2880  16.5467  18.3218  18.5627
    19.2935

          k = 0.0625 0.4375 0.4375 (  1809 PWs)   bands (ev):

   -47.1462 -47.1253 -21.4834 -21.4632 -20.9291 -20.8979 -20.6682 -20.6472
    13.3134  13.4371  15.3333  15.4017  17.2673  17.4713  18.6630  18.8006
    19.1280

          k = 0.1875 0.1875 0.1875 (  1833 PWs)   bands (ev):

   -47.2435 -47.0590 -21.2538 -21.2538 -21.0298 -20.9228 -20.6896 -20.6896
    11.7155  14.4653  14.4653  16.0976  16.0976  16.7466  18.5006  18.6961
    18.6961

          k = 0.1875 0.1875 0.3125 (  1826 PWs)   bands (ev):

   -47.2078 -47.0836 -21.3209 -21.1623 -21.1571 -20.8329 -20.7796 -20.6862
    12.6102  14.7434  14.8058  15.8299  15.9091  16.1653  18.4539  18.6633
    19.0138

          k = 0.1875 0.1875 0.4375 (  1816 PWs)   bands (ev):

   -47.1650 -47.1185 -21.3313 -21.2744 -21.0327 -20.8991 -20.7606 -20.7105
    13.5537  14.3116  15.1921  15.5342  16.0575  16.2070  18.2351  18.2581
    19.2322

          k = 0.1875 0.3125 0.3125 (  1824 PWs)   bands (ev):

   -47.1820 -47.0980 -21.3505 -21.2669 -21.1304 -20.8215 -20.7645 -20.7009
    13.2997  14.5514  15.5070  15.5421  15.6405  15.7757  18.6130  18.7240
    18.9865

          k = 0.1875 0.3125 0.4375 (  1815 PWs)   bands (ev):

   -47.1527 -47.1191 -21.3786 -21.3498 -21.0294 -20.9145 -20.7233 -20.7057
    13.8128  14.1785  15.3931  15.4096  16.0507  16.0983  18.5874  18.6669
    19.1878

          k = 0.1875 0.4375 0.4375 (  1803 PWs)   bands (ev):

   -47.1417 -47.1218 -21.4180 -21.4088 -20.9841 -20.9357 -20.7108 -20.7088
    13.8193  13.9110  15.2315  15.2705  16.6709  16.6891  18.8215  18.8878
    19.1466

          k = 0.3125 0.3125 0.3125 (  1815 PWs)   bands (ev):

   -47.1630 -47.1054 -21.3038 -21.2398 -21.2398 -20.8053 -20.8053 -20.7395
    14.1112  14.9251  15.3453  15.3453  15.3903  15.3903  18.9601  18.9603
    19.0494

          k = 0.3125 0.3125 0.4375 (  1811 PWs)   bands (ev):

   -47.1431 -47.1172 -21.3292 -21.3115 -21.0972 -20.9436 -20.7749 -20.7468
    14.4901  14.6154  15.2368  15.2672  15.5907  15.8124  18.8868  18.9069
    19.1568

          k = 0.3125 0.4375 0.4375 (  1808 PWs)   bands (ev):

   -47.1353 -47.1169 -21.3157 -21.2979 -21.0656 -20.9785 -20.8235 -20.7936
    14.5931  14.6239  15.1355  15.2044  15.8720  15.9877  19.0316  19.0543
    19.1685

          k = 0.4375 0.4375 0.4375 (  1820 PWs)   bands (ev):

   -47.1308 -47.1134 -21.2181 -21.1426 -21.1426 -20.9751 -20.9751 -20.8977
    14.9440  15.1794  15.1794  15.4348  15.4565  15.4566  19.1707  19.1707
    19.1914

     the Fermi energy is    16.4100 ev

!    total energy              =    -291.09345739 Ry
     Harris-Foulkes estimate   =    -291.09345358 Ry
     estimated scf accuracy    <       0.00000089 Ry

     The total energy is the sum of the following terms:

     one-electron contribution =     -92.87199177 Ry
     hartree contribution      =      58.69659271 Ry
     xc contribution           =     -40.66378098 Ry
     ewald contribution        =    -216.25255701 Ry
     smearing contrib. (-TS)   =      -0.00172034 Ry

     total magnetization       =     0.00 Bohr mag/cell
     absolute magnetization    =     0.04 Bohr mag/cell

     convergence has been achieved in   8 iterations

     Writing output data file v-3.01.save/

     init_run     :      0.51s CPU      0.52s WALL (       1 calls)
     electrons    :      8.14s CPU      8.28s WALL (       1 calls)

     Called by init_run:
     wfcinit      :      0.24s CPU      0.24s WALL (       1 calls)
     potinit      :      0.04s CPU      0.04s WALL (       1 calls)
     hinit0       :      0.20s CPU      0.20s WALL (       1 calls)

     Called by electrons:
     c_bands      :      6.19s CPU      6.32s WALL (       9 calls)
     sum_band     :      1.27s CPU      1.28s WALL (       9 calls)
     v_of_rho     :      0.17s CPU      0.17s WALL (       9 calls)
     newd         :      0.48s CPU      0.49s WALL (       9 calls)
     mix_rho      :      0.01s CPU      0.01s WALL (       9 calls)

     Called by c_bands:
     init_us_2    :      0.09s CPU      0.09s WALL (     760 calls)
     cegterg      :      5.83s CPU      5.95s WALL (     360 calls)

     Called by sum_band:
     sum_band:bec :      0.01s CPU      0.01s WALL (     360 calls)
     addusdens    :      0.34s CPU      0.34s WALL (       9 calls)

     Called by *egterg:
     h_psi        :      3.39s CPU      3.46s WALL (    1518 calls)
     s_psi        :      0.33s CPU      0.33s WALL (    1518 calls)
     g_psi        :      0.03s CPU      0.03s WALL (    1118 calls)
     cdiaghg      :      0.82s CPU      0.83s WALL (    1438 calls)

     Called by h_psi:
     h_psi:pot    :      3.37s CPU      3.45s WALL (    1518 calls)
     h_psi:calbec :      0.49s CPU      0.50s WALL (    1518 calls)
     vloc_psi     :      2.56s CPU      2.62s WALL (    1518 calls)
     add_vuspsi   :      0.32s CPU      0.33s WALL (    1518 calls)

     General routines
     calbec       :      0.65s CPU      0.66s WALL (    1878 calls)
     fft          :      0.08s CPU      0.08s WALL (     221 calls)
     ffts         :      0.00s CPU      0.00s WALL (      36 calls)
     fftw         :      2.68s CPU      2.73s WALL (   39644 calls)
     interpolate  :      0.01s CPU      0.01s WALL (      18 calls)

     Parallel routines
     fft_scatt_xy :      0.32s CPU      0.33s WALL (   39901 calls)
     fft_scatt_yz :      1.51s CPU      1.54s WALL (   39901 calls)

     PWSCF        :     10.41s CPU     10.63s WALL


   This run was terminated on:   8:33: 2  17Mar2022            

=------------------------------------------------------------------------------=
   JOB DONE.
=------------------------------------------------------------------------------=
