
     Program PWSCF v.6.4.1 starts on 17Mar2022 at  8:33:43 

     This program is part of the open-source Quantum ESPRESSO suite
     for quantum simulation of materials; please cite
         "P. Giannozzi et al., J. Phys.:Condens. Matter 21 395502 (2009);
         "P. Giannozzi et al., J. Phys.:Condens. Matter 29 465901 (2017);
          URL http://www.quantum-espresso.org", 
     in publications or presentations arising from this work. More details at
     http://www.quantum-espresso.org/quote

     Parallel version (MPI), running on     6 processors

     MPI processes distributed on     1 nodes
     R & G space division:  proc/nbgrp/npool/nimage =       6
     Reading input from v-3.09.in

     Current dimensions of program PWSCF are:
     Max number of different atomic species (ntypx) = 10
     Max number of k-points (npk) =  40000
     Max angular momentum in pseudopotentials (lmaxx) =  3
               file V.pbe-spnl-rrkjus_psl.1.0.0.UPF: wavefunction(s)  3P 3D renormalized
               file V.pbe-spnl-rrkjus_psl.1.0.0.UPF: wavefunction(s)  3P 3D renormalized

     Subspace diagonalization in iterative solution of the eigenvalue problem:
     a serial algorithm will be used

     Message from routine setup:
     DEPRECATED: symmetry with ibrav=0, use correct ibrav instead

     Parallelization info
     --------------------
     sticks:   dense  smooth     PW     G-vecs:    dense   smooth      PW
     Min         189     126     37                 4814     2609     425
     Max         190     127     39                 4815     2610     427
     Sum        1137     757    225                28887    15659    2553



     bravais-lattice index     =            0
     lattice parameter (alat)  =       5.8393  a.u.
     unit-cell volume          =     199.1004 (a.u.)^3
     number of atoms/cell      =            2
     number of atomic types    =            2
     number of electrons       =        26.00
     number of Kohn-Sham states=           17
     kinetic-energy cutoff     =      70.0000  Ry
     charge density cutoff     =     420.0000  Ry
     convergence threshold     =      1.0E-06
     mixing beta               =       0.7000
     number of iterations used =            8  plain     mixing
     Exchange-correlation      = PBE ( 1  4  3  4 0 0)

     celldm(1)=   5.839254  celldm(2)=   0.000000  celldm(3)=   0.000000
     celldm(4)=   0.000000  celldm(5)=   0.000000  celldm(6)=   0.000000

     crystal axes: (cart. coord. in units of alat)
               a(1) = (   1.000000   0.000000   0.000000 )  
               a(2) = (   0.000000   1.000000   0.000000 )  
               a(3) = (   0.000000   0.000000   1.000000 )  

     reciprocal axes: (cart. coord. in units 2 pi/alat)
               b(1) = (  1.000000  0.000000  0.000000 )  
               b(2) = (  0.000000  1.000000  0.000000 )  
               b(3) = (  0.000000  0.000000  1.000000 )  


     PseudoPot. # 1 for V  read from file:
     /home/cristian/Escritorio/Proyecto_Grafeno/pseudopotenciales/V.pbe-spnl-rrkjus_psl.1.0.0.UPF
     MD5 check sum: 79b3eb63147daf0b665d9f1bcc691206
     Pseudo is Ultrasoft + core correction, Zval = 13.0
     Generated using "atomic" code by A. Dal Corso v.6.2.2
     Using radial grid of 1181 points,  6 beta functions with: 
                l(1) =   0
                l(2) =   0
                l(3) =   1
                l(4) =   1
                l(5) =   2
                l(6) =   2
     Q(r) pseudized with 0 coefficients 


     PseudoPot. # 2 for V  read from file:
     /home/cristian/Escritorio/Proyecto_Grafeno/pseudopotenciales/V.pbe-spnl-rrkjus_psl.1.0.0.UPF
     MD5 check sum: 79b3eb63147daf0b665d9f1bcc691206
     Pseudo is Ultrasoft + core correction, Zval = 13.0
     Generated using "atomic" code by A. Dal Corso v.6.2.2
     Using radial grid of 1181 points,  6 beta functions with: 
                l(1) =   0
                l(2) =   0
                l(3) =   1
                l(4) =   1
                l(5) =   2
                l(6) =   2
     Q(r) pseudized with 0 coefficients 


     atomic species   valence    mass     pseudopotential
        V1            13.00    50.94150     V ( 1.00)
        V2            13.00    50.94150     V ( 1.00)

     Starting magnetic structure 
     atomic species   magnetization
        V1           0.100
        V2          -0.100

     48 Sym. Ops., with inversion, found



   Cartesian axes

     site n.     atom                  positions (alat units)
         1           V1  tau(   1) = (   0.0000000   0.0000000   0.0000000  )
         2           V2  tau(   2) = (   0.5000000   0.5000000   0.5000000  )

     number of k points=    20  Methfessel-Paxton smearing, width (Ry)=  0.0300
                       cart. coord. in units 2pi/alat
        k(    1) = (   0.0625000   0.0625000   0.0625000), wk =   0.0156250
        k(    2) = (   0.0625000   0.0625000   0.1875000), wk =   0.0468750
        k(    3) = (   0.0625000   0.0625000   0.3125000), wk =   0.0468750
        k(    4) = (   0.0625000   0.0625000   0.4375000), wk =   0.0468750
        k(    5) = (   0.0625000   0.1875000   0.1875000), wk =   0.0468750
        k(    6) = (   0.0625000   0.1875000   0.3125000), wk =   0.0937500
        k(    7) = (   0.0625000   0.1875000   0.4375000), wk =   0.0937500
        k(    8) = (   0.0625000   0.3125000   0.3125000), wk =   0.0468750
        k(    9) = (   0.0625000   0.3125000   0.4375000), wk =   0.0937500
        k(   10) = (   0.0625000   0.4375000   0.4375000), wk =   0.0468750
        k(   11) = (   0.1875000   0.1875000   0.1875000), wk =   0.0156250
        k(   12) = (   0.1875000   0.1875000   0.3125000), wk =   0.0468750
        k(   13) = (   0.1875000   0.1875000   0.4375000), wk =   0.0468750
        k(   14) = (   0.1875000   0.3125000   0.3125000), wk =   0.0468750
        k(   15) = (   0.1875000   0.3125000   0.4375000), wk =   0.0937500
        k(   16) = (   0.1875000   0.4375000   0.4375000), wk =   0.0468750
        k(   17) = (   0.3125000   0.3125000   0.3125000), wk =   0.0156250
        k(   18) = (   0.3125000   0.3125000   0.4375000), wk =   0.0468750
        k(   19) = (   0.3125000   0.4375000   0.4375000), wk =   0.0468750
        k(   20) = (   0.4375000   0.4375000   0.4375000), wk =   0.0156250

     Dense  grid:    28887 G-vectors     FFT dimensions: (  40,  40,  40)

     Smooth grid:    15659 G-vectors     FFT dimensions: (  32,  32,  32)

     Estimated max dynamical RAM per process >      25.34 MB

     Estimated total dynamical RAM >     152.02 MB
     Generating pointlists ...
     new r_m :   0.3572 (alat units)  2.0860 (a.u.) for type    1
     new r_m :   0.3572 (alat units)  2.0860 (a.u.) for type    2

     Check: negative core charge=   -0.000011

     Initial potential from superposition of free atoms

     starting charge   25.99818, renormalised to   26.00000
     Starting wfcs are   20 randomized atomic wfcs

     total cpu time spent up to now is        2.0 secs

     Self-consistent Calculation

     iteration #  1     ecut=    70.00 Ry     beta= 0.70
     Davidson diagonalization with overlap
     ethr =  1.00E-02,  avg # of iterations =  2.5

     Threshold (ethr) on eigenvalues was too large:
     Diagonalizing with lowered threshold

     Davidson diagonalization with overlap
     ethr =  5.04E-04,  avg # of iterations =  2.4

     total cpu time spent up to now is        3.7 secs

     total energy              =    -291.02067717 Ry
     Harris-Foulkes estimate   =    -291.10353142 Ry
     estimated scf accuracy    <       0.14311717 Ry

     total magnetization       =    -0.00 Bohr mag/cell
     absolute magnetization    =     1.39 Bohr mag/cell

     iteration #  2     ecut=    70.00 Ry     beta= 0.70
     Davidson diagonalization with overlap
     ethr =  5.50E-04,  avg # of iterations =  3.1

     total cpu time spent up to now is        4.9 secs

     total energy              =    -291.04627274 Ry
     Harris-Foulkes estimate   =    -291.11908520 Ry
     estimated scf accuracy    <       0.14819644 Ry

     total magnetization       =     0.00 Bohr mag/cell
     absolute magnetization    =     1.58 Bohr mag/cell

     iteration #  3     ecut=    70.00 Ry     beta= 0.70
     Davidson diagonalization with overlap
     ethr =  5.50E-04,  avg # of iterations =  3.0

     total cpu time spent up to now is        5.9 secs

     total energy              =    -291.08042316 Ry
     Harris-Foulkes estimate   =    -291.07961831 Ry
     estimated scf accuracy    <       0.00315748 Ry

     total magnetization       =    -0.01 Bohr mag/cell
     absolute magnetization    =     1.28 Bohr mag/cell

     iteration #  4     ecut=    70.00 Ry     beta= 0.70
     Davidson diagonalization with overlap
     ethr =  1.21E-05,  avg # of iterations =  4.5

     total cpu time spent up to now is        7.1 secs

     total energy              =    -291.08122473 Ry
     Harris-Foulkes estimate   =    -291.08455970 Ry
     estimated scf accuracy    <       0.03151180 Ry

     total magnetization       =     0.05 Bohr mag/cell
     absolute magnetization    =     0.95 Bohr mag/cell

     iteration #  5     ecut=    70.00 Ry     beta= 0.70
     Davidson diagonalization with overlap
     ethr =  1.21E-05,  avg # of iterations =  4.2

     total cpu time spent up to now is        8.1 secs

     total energy              =    -291.08359278 Ry
     Harris-Foulkes estimate   =    -291.08300208 Ry
     estimated scf accuracy    <       0.00060162 Ry

     total magnetization       =    -0.00 Bohr mag/cell
     absolute magnetization    =     0.91 Bohr mag/cell

     iteration #  6     ecut=    70.00 Ry     beta= 0.70
     Davidson diagonalization with overlap
     ethr =  2.31E-06,  avg # of iterations =  4.3

     total cpu time spent up to now is        9.1 secs

     total energy              =    -291.08154199 Ry
     Harris-Foulkes estimate   =    -291.08383492 Ry
     estimated scf accuracy    <       0.00035949 Ry

     total magnetization       =    -0.00 Bohr mag/cell
     absolute magnetization    =     0.77 Bohr mag/cell

     iteration #  7     ecut=    70.00 Ry     beta= 0.70
     Davidson diagonalization with overlap
     ethr =  1.38E-06,  avg # of iterations =  5.3

     total cpu time spent up to now is       10.4 secs

     total energy              =    -291.08562130 Ry
     Harris-Foulkes estimate   =    -291.08571983 Ry
     estimated scf accuracy    <       0.00005046 Ry

     total magnetization       =    -0.00 Bohr mag/cell
     absolute magnetization    =     0.15 Bohr mag/cell

     iteration #  8     ecut=    70.00 Ry     beta= 0.70
     Davidson diagonalization with overlap
     ethr =  1.94E-07,  avg # of iterations =  5.3

     total cpu time spent up to now is       11.5 secs

     total energy              =    -291.08578168 Ry
     Harris-Foulkes estimate   =    -291.08579377 Ry
     estimated scf accuracy    <       0.00000296 Ry

     total magnetization       =    -0.00 Bohr mag/cell
     absolute magnetization    =     0.03 Bohr mag/cell

     iteration #  9     ecut=    70.00 Ry     beta= 0.70
     Davidson diagonalization with overlap
     ethr =  1.14E-08,  avg # of iterations =  5.5

     total cpu time spent up to now is       12.8 secs

     total energy              =    -291.08579726 Ry
     Harris-Foulkes estimate   =    -291.08580059 Ry
     estimated scf accuracy    <       0.00000171 Ry

     total magnetization       =    -0.00 Bohr mag/cell
     absolute magnetization    =     0.01 Bohr mag/cell

     iteration # 10     ecut=    70.00 Ry     beta= 0.70
     Davidson diagonalization with overlap
     ethr =  6.57E-09,  avg # of iterations =  5.0

     Magnetic moment per site:
     atom:    1    charge:   11.3474    magn:    0.0017    constr:    0.0000
     atom:    2    charge:   11.3475    magn:   -0.0031    constr:    0.0000

     total cpu time spent up to now is       13.8 secs

     End of self-consistent calculation

 ------ SPIN UP ------------


          k = 0.0625 0.0625 0.0625 (  1956 PWs)   bands (ev):

   -48.8754 -48.6548 -22.7707 -22.7707 -22.7338 -22.3434 -22.3045 -22.3045
     8.7597  12.4482  12.4482  15.2688  15.2688  15.5107  17.0838  17.0838
    17.7374

          k = 0.0625 0.0625 0.1875 (  1968 PWs)   bands (ev):

   -48.8560 -48.6689 -22.7894 -22.7333 -22.6801 -22.4260 -22.3381 -22.3189
     9.3191  12.7020  12.7385  15.1435  15.2116  15.8100  16.7250  16.9665
    17.2499

          k = 0.0625 0.0625 0.3125 (  1968 PWs)   bands (ev):

   -48.8213 -48.6962 -22.7836 -22.6651 -22.6085 -22.5408 -22.4008 -22.3680
    10.3363  12.9192  13.2881  15.1216  15.1343  16.1398  16.1975  16.2336
    16.6878

          k = 0.0625 0.0625 0.4375 (  1971 PWs)   bands (ev):

   -48.7782 -48.7341 -22.7406 -22.6555 -22.5773 -22.5251 -22.4846 -22.4407
    11.5732  12.5881  14.0239  14.7690  15.3086  15.6597  15.7994  16.0664
    16.7523

          k = 0.0625 0.1875 0.1875 (  1960 PWs)   bands (ev):

   -48.8391 -48.6804 -22.8266 -22.7128 -22.6049 -22.5271 -22.3624 -22.3061
     9.8382  12.8989  13.0371  14.8557  15.0378  16.1435  16.2908  16.8451
    17.0860

          k = 0.0625 0.1875 0.3125 (  1965 PWs)   bands (ev):

   -48.8090 -48.7028 -22.8494 -22.6520 -22.6505 -22.5236 -22.4162 -22.3249
    10.7564  13.0257  13.5329  14.6759  14.8640  15.4636  16.5339  16.5982
    16.8612

          k = 0.0625 0.1875 0.4375 (  1973 PWs)   bands (ev):

   -48.7720 -48.7345 -22.8299 -22.7603 -22.5728 -22.4897 -22.4438 -22.3742
    11.8178  12.6734  14.0799  14.5231  14.8093  15.0450  16.3467  16.3821
    17.3812

          k = 0.0625 0.3125 0.3125 (  1973 PWs)   bands (ev):

   -48.7875 -48.7164 -22.9051 -22.7740 -22.6090 -22.4497 -22.4408 -22.3083
    11.4097  12.8408  14.1649  14.3392  14.8361  14.8437  16.4562  16.9433
    17.2906

          k = 0.0625 0.3125 0.4375 (  1977 PWs)   bands (ev):

   -48.7617 -48.7366 -22.9163 -22.8705 -22.5537 -22.4974 -22.3725 -22.3260
    12.0140  12.4774  14.2347  14.3926  14.8040  15.0176  16.6951  16.9084
    17.5546

          k = 0.0625 0.4375 0.4375 (  1980 PWs)   bands (ev):

   -48.7510 -48.7416 -22.9602 -22.9442 -22.5311 -22.5110 -22.3263 -22.3099
    12.0844  12.2202  14.0076  14.0686  15.6646  15.8198  16.9959  17.1160
    17.4136

          k = 0.1875 0.1875 0.1875 (  1953 PWs)   bands (ev):

   -48.8243 -48.6897 -22.7851 -22.7851 -22.6071 -22.5282 -22.3437 -22.3437
    10.3395  13.2162  13.2162  14.6964  14.6964  15.2640  16.8424  17.0383
    17.0383

          k = 0.1875 0.1875 0.3125 (  1970 PWs)   bands (ev):

   -48.7982 -48.7081 -22.8358 -22.7104 -22.7093 -22.4573 -22.4141 -22.3409
    11.2058  13.4168  13.5255  14.4547  14.5191  14.7446  16.8220  16.9956
    17.3139

          k = 0.1875 0.1875 0.4375 (  1966 PWs)   bands (ev):

   -48.7663 -48.7345 -22.8426 -22.7976 -22.6116 -22.5078 -22.4000 -22.3603
    12.1616  12.9516  13.8755  14.1857  14.6337  14.7722  16.6246  16.6391
    17.5011

          k = 0.1875 0.3125 0.3125 (  1967 PWs)   bands (ev):

   -48.7793 -48.7190 -22.8579 -22.7917 -22.6877 -22.4470 -22.4033 -22.3517
    11.8975  13.2589  14.1125  14.1927  14.2726  14.3746  16.9527  17.0569
    17.2914

          k = 0.1875 0.3125 0.4375 (  1973 PWs)   bands (ev):

   -48.7571 -48.7356 -22.8789 -22.8563 -22.6087 -22.5200 -22.3702 -22.3558
    12.4759  12.8858  14.0527  14.0590  14.5801  14.6319  16.9328  17.0050
    17.4635

          k = 0.1875 0.4375 0.4375 (  1978 PWs)   bands (ev):

   -48.7476 -48.7394 -22.9090 -22.9018 -22.5732 -22.5380 -22.3595 -22.3575
    12.5474  12.6527  13.9086  13.9416  15.1074  15.1371  17.1384  17.1960
    17.4297

          k = 0.3125 0.3125 0.3125 (  1956 PWs)   bands (ev):

   -48.7654 -48.7250 -22.8209 -22.7713 -22.7713 -22.4330 -22.4330 -22.3835
    12.6574  13.6130  14.0055  14.0055  14.0078  14.0078  17.2666  17.2666
    17.3403

          k = 0.3125 0.3125 0.4375 (  1965 PWs)   bands (ev):

   -48.7496 -48.7351 -22.8404 -22.8264 -22.6598 -22.5409 -22.4094 -22.3882
    13.1182  13.3053  13.8928  13.9055  14.1737  14.3697  17.2010  17.2162
    17.4376

          k = 0.3125 0.4375 0.4375 (  1966 PWs)   bands (ev):

   -48.7425 -48.7366 -22.8293 -22.8150 -22.6348 -22.5685 -22.4465 -22.4238
    13.2838  13.2879  13.8067  13.8577  14.3994  14.5123  17.3290  17.3437
    17.4490

          k = 0.4375 0.4375 0.4375 (  1944 PWs)   bands (ev):

   -48.7386 -48.7349 -22.7529 -22.6937 -22.6937 -22.5642 -22.5642 -22.5043
    13.6155  13.8251  13.8251  14.0046  14.0520  14.0520  17.4571  17.4572
    17.4607

 ------ SPIN DOWN ----------


          k = 0.0625 0.0625 0.0625 (  1956 PWs)   bands (ev):

   -48.8762 -48.6556 -22.7716 -22.7716 -22.7347 -22.3443 -22.3053 -22.3053
     8.7591  12.4477  12.4477  15.2678  15.2678  15.5096  17.0833  17.0833
    17.7364

          k = 0.0625 0.0625 0.1875 (  1968 PWs)   bands (ev):

   -48.8569 -48.6697 -22.7902 -22.7342 -22.6810 -22.4268 -22.3389 -22.3197
     9.3185  12.7015  12.7380  15.1425  15.2106  15.8090  16.7245  16.9656
    17.2494

          k = 0.0625 0.0625 0.3125 (  1968 PWs)   bands (ev):

   -48.8222 -48.6970 -22.7845 -22.6659 -22.6093 -22.5417 -22.4017 -22.3688
    10.3357  12.9187  13.2877  15.1207  15.1333  16.1392  16.1965  16.2326
    16.6868

          k = 0.0625 0.0625 0.4375 (  1971 PWs)   bands (ev):

   -48.7790 -48.7349 -22.7414 -22.6564 -22.5782 -22.5260 -22.4854 -22.4415
    11.5726  12.5876  14.0234  14.7684  15.3076  15.6587  15.7986  16.0655
    16.7512

          k = 0.0625 0.1875 0.1875 (  1960 PWs)   bands (ev):

   -48.8400 -48.6812 -22.8274 -22.7137 -22.6058 -22.5280 -22.3633 -22.3069
     9.8376  12.8984  13.0367  14.8547  15.0369  16.1425  16.2898  16.8446
    17.0850

          k = 0.0625 0.1875 0.3125 (  1965 PWs)   bands (ev):

   -48.8099 -48.7037 -22.8502 -22.6529 -22.6514 -22.5244 -22.4171 -22.3257
    10.7558  13.0252  13.5324  14.6749  14.8632  15.4627  16.5330  16.5976
    16.8602

          k = 0.0625 0.1875 0.4375 (  1973 PWs)   bands (ev):

   -48.7728 -48.7353 -22.8308 -22.7611 -22.5736 -22.4906 -22.4446 -22.3750
    11.8172  12.6728  14.0794  14.5224  14.8084  15.0440  16.3458  16.3813
    17.3802

          k = 0.0625 0.3125 0.3125 (  1973 PWs)   bands (ev):

   -48.7883 -48.7173 -22.9060 -22.7749 -22.6099 -22.4506 -22.4417 -22.3091
    11.4090  12.8401  14.1644  14.3382  14.8351  14.8430  16.4554  16.9426
    17.2901

          k = 0.0625 0.3125 0.4375 (  1977 PWs)   bands (ev):

   -48.7626 -48.7374 -22.9172 -22.8714 -22.5545 -22.4983 -22.3733 -22.3268
    12.0133  12.4767  14.2337  14.3917  14.8034  15.0169  16.6944  16.9077
    17.5540

          k = 0.0625 0.4375 0.4375 (  1980 PWs)   bands (ev):

   -48.7518 -48.7424 -22.9610 -22.9451 -22.5320 -22.5119 -22.3271 -22.3108
    12.0837  12.2195  14.0066  14.0676  15.6640  15.8191  16.9953  17.1153
    17.4131

          k = 0.1875 0.1875 0.1875 (  1953 PWs)   bands (ev):

   -48.8252 -48.6905 -22.7859 -22.7859 -22.6079 -22.5290 -22.3446 -22.3446
    10.3389  13.2157  13.2157  14.6955  14.6955  15.2631  16.8413  17.0378
    17.0378

          k = 0.1875 0.1875 0.3125 (  1970 PWs)   bands (ev):

   -48.7990 -48.7089 -22.8367 -22.7113 -22.7101 -22.4581 -22.4149 -22.3418
    11.2052  13.4162  13.5250  14.4538  14.5182  14.7437  16.8214  16.9947
    17.3133

          k = 0.1875 0.1875 0.4375 (  1966 PWs)   bands (ev):

   -48.7671 -48.7353 -22.8435 -22.7985 -22.6124 -22.5087 -22.4009 -22.3611
    12.1610  12.9510  13.8749  14.1850  14.6328  14.7713  16.6239  16.6383
    17.5005

          k = 0.1875 0.3125 0.3125 (  1967 PWs)   bands (ev):

   -48.7801 -48.7199 -22.8587 -22.7926 -22.6886 -22.4478 -22.4042 -22.3526
    11.8968  13.2582  14.1120  14.1917  14.2718  14.3738  16.9519  17.0563
    17.2908

          k = 0.1875 0.3125 0.4375 (  1973 PWs)   bands (ev):

   -48.7579 -48.7365 -22.8798 -22.8571 -22.6096 -22.5208 -22.3711 -22.3566
    12.4752  12.8851  14.0518  14.0582  14.5793  14.6312  16.9321  17.0044
    17.4629

          k = 0.1875 0.4375 0.4375 (  1978 PWs)   bands (ev):

   -48.7484 -48.7403 -22.9099 -22.9026 -22.5740 -22.5388 -22.3604 -22.3584
    12.5467  12.6520  13.9077  13.9406  15.1066  15.1364  17.1378  17.1954
    17.4291

          k = 0.3125 0.3125 0.3125 (  1956 PWs)   bands (ev):

   -48.7662 -48.7258 -22.8217 -22.7722 -22.7722 -22.4338 -22.4338 -22.3843
    12.6567  13.6120  14.0046  14.0046  14.0072  14.0072  17.2660  17.2660
    17.3396

          k = 0.3125 0.3125 0.4375 (  1965 PWs)   bands (ev):

   -48.7505 -48.7359 -22.8412 -22.8273 -22.6606 -22.5417 -22.4102 -22.3890
    13.1174  13.3044  13.8920  13.9047  14.1728  14.3689  17.2003  17.2156
    17.4372

          k = 0.3125 0.4375 0.4375 (  1966 PWs)   bands (ev):

   -48.7434 -48.7374 -22.8302 -22.8159 -22.6356 -22.5694 -22.4474 -22.4247
    13.2830  13.2871  13.8058  13.8568  14.3986  14.5116  17.3284  17.3431
    17.4485

          k = 0.4375 0.4375 0.4375 (  1944 PWs)   bands (ev):

   -48.7395 -48.7357 -22.7538 -22.6946 -22.6946 -22.5651 -22.5651 -22.5051
    13.6147  13.8242  13.8242  14.0038  14.0512  14.0512  17.4566  17.4566
    17.4602

     the Fermi energy is    14.9520 ev

!    total energy              =    -291.08580112 Ry
     Harris-Foulkes estimate   =    -291.08580110 Ry
     estimated scf accuracy    <       0.00000003 Ry

     The total energy is the sum of the following terms:

     one-electron contribution =    -101.27790840 Ry
     hartree contribution      =      61.37449196 Ry
     xc contribution           =     -40.52643924 Ry
     ewald contribution        =    -210.65378531 Ry
     smearing contrib. (-TS)   =      -0.00216013 Ry

     total magnetization       =    -0.00 Bohr mag/cell
     absolute magnetization    =     0.01 Bohr mag/cell

     convergence has been achieved in  10 iterations

     Writing output data file v-3.09.save/

     init_run     :      0.54s CPU      0.56s WALL (       1 calls)
     electrons    :     11.67s CPU     11.88s WALL (       1 calls)

     Called by init_run:
     wfcinit      :      0.26s CPU      0.26s WALL (       1 calls)
     potinit      :      0.04s CPU      0.04s WALL (       1 calls)
     hinit0       :      0.19s CPU      0.20s WALL (       1 calls)

     Called by electrons:
     c_bands      :      9.35s CPU      9.52s WALL (      11 calls)
     sum_band     :      1.67s CPU      1.69s WALL (      11 calls)
     v_of_rho     :      0.21s CPU      0.22s WALL (      11 calls)
     newd         :      0.44s CPU      0.47s WALL (      11 calls)
     mix_rho      :      0.03s CPU      0.03s WALL (      11 calls)

     Called by c_bands:
     init_us_2    :      0.13s CPU      0.13s WALL (     920 calls)
     cegterg      :      8.86s CPU      9.02s WALL (     440 calls)

     Called by sum_band:
     sum_band:bec :      0.01s CPU      0.01s WALL (     440 calls)
     addusdens    :      0.55s CPU      0.55s WALL (      11 calls)

     Called by *egterg:
     h_psi        :      4.78s CPU      4.87s WALL (    2285 calls)
     s_psi        :      0.45s CPU      0.46s WALL (    2285 calls)
     g_psi        :      0.04s CPU      0.04s WALL (    1805 calls)
     cdiaghg      :      1.42s CPU      1.44s WALL (    2205 calls)

     Called by h_psi:
     h_psi:pot    :      4.76s CPU      4.85s WALL (    2285 calls)
     h_psi:calbec :      0.70s CPU      0.71s WALL (    2285 calls)
     vloc_psi     :      3.61s CPU      3.67s WALL (    2285 calls)
     add_vuspsi   :      0.45s CPU      0.46s WALL (    2285 calls)

     General routines
     calbec       :      0.91s CPU      0.92s WALL (    2725 calls)
     fft          :      0.11s CPU      0.12s WALL (     271 calls)
     ffts         :      0.01s CPU      0.01s WALL (      44 calls)
     fftw         :      3.77s CPU      3.84s WALL (   51472 calls)
     interpolate  :      0.01s CPU      0.01s WALL (      22 calls)

     Parallel routines
     fft_scatt_xy :      0.44s CPU      0.45s WALL (   51787 calls)
     fft_scatt_yz :      2.25s CPU      2.30s WALL (   51787 calls)

     PWSCF        :     13.83s CPU     14.16s WALL


   This run was terminated on:   8:33:58  17Mar2022            

=------------------------------------------------------------------------------=
   JOB DONE.
=------------------------------------------------------------------------------=
