
     Program PWSCF v.6.4.1 starts on 17Mar2022 at  8:34:26 

     This program is part of the open-source Quantum ESPRESSO suite
     for quantum simulation of materials; please cite
         "P. Giannozzi et al., J. Phys.:Condens. Matter 21 395502 (2009);
         "P. Giannozzi et al., J. Phys.:Condens. Matter 29 465901 (2017);
          URL http://www.quantum-espresso.org", 
     in publications or presentations arising from this work. More details at
     http://www.quantum-espresso.org/quote

     Parallel version (MPI), running on     6 processors

     MPI processes distributed on     1 nodes
     R & G space division:  proc/nbgrp/npool/nimage =       6
     Reading input from v-3.15.in

     Current dimensions of program PWSCF are:
     Max number of different atomic species (ntypx) = 10
     Max number of k-points (npk) =  40000
     Max angular momentum in pseudopotentials (lmaxx) =  3
               file V.pbe-spnl-rrkjus_psl.1.0.0.UPF: wavefunction(s)  3P 3D renormalized
               file V.pbe-spnl-rrkjus_psl.1.0.0.UPF: wavefunction(s)  3P 3D renormalized

     Subspace diagonalization in iterative solution of the eigenvalue problem:
     a serial algorithm will be used

     Message from routine setup:
     DEPRECATED: symmetry with ibrav=0, use correct ibrav instead

     Parallelization info
     --------------------
     sticks:   dense  smooth     PW     G-vecs:    dense   smooth      PW
     Min         197     132     40                 5107     2804     462
     Max         198     133     41                 5110     2807     465
     Sum        1185     793    241                30647    16831    2777



     bravais-lattice index     =            0
     lattice parameter (alat)  =       5.9526  a.u.
     unit-cell volume          =     210.9251 (a.u.)^3
     number of atoms/cell      =            2
     number of atomic types    =            2
     number of electrons       =        26.00
     number of Kohn-Sham states=           17
     kinetic-energy cutoff     =      70.0000  Ry
     charge density cutoff     =     420.0000  Ry
     convergence threshold     =      1.0E-06
     mixing beta               =       0.7000
     number of iterations used =            8  plain     mixing
     Exchange-correlation      = PBE ( 1  4  3  4 0 0)

     celldm(1)=   5.952637  celldm(2)=   0.000000  celldm(3)=   0.000000
     celldm(4)=   0.000000  celldm(5)=   0.000000  celldm(6)=   0.000000

     crystal axes: (cart. coord. in units of alat)
               a(1) = (   1.000000   0.000000   0.000000 )  
               a(2) = (   0.000000   1.000000   0.000000 )  
               a(3) = (   0.000000   0.000000   1.000000 )  

     reciprocal axes: (cart. coord. in units 2 pi/alat)
               b(1) = (  1.000000  0.000000  0.000000 )  
               b(2) = (  0.000000  1.000000  0.000000 )  
               b(3) = (  0.000000  0.000000  1.000000 )  


     PseudoPot. # 1 for V  read from file:
     /home/cristian/Escritorio/Proyecto_Grafeno/pseudopotenciales/V.pbe-spnl-rrkjus_psl.1.0.0.UPF
     MD5 check sum: 79b3eb63147daf0b665d9f1bcc691206
     Pseudo is Ultrasoft + core correction, Zval = 13.0
     Generated using "atomic" code by A. Dal Corso v.6.2.2
     Using radial grid of 1181 points,  6 beta functions with: 
                l(1) =   0
                l(2) =   0
                l(3) =   1
                l(4) =   1
                l(5) =   2
                l(6) =   2
     Q(r) pseudized with 0 coefficients 


     PseudoPot. # 2 for V  read from file:
     /home/cristian/Escritorio/Proyecto_Grafeno/pseudopotenciales/V.pbe-spnl-rrkjus_psl.1.0.0.UPF
     MD5 check sum: 79b3eb63147daf0b665d9f1bcc691206
     Pseudo is Ultrasoft + core correction, Zval = 13.0
     Generated using "atomic" code by A. Dal Corso v.6.2.2
     Using radial grid of 1181 points,  6 beta functions with: 
                l(1) =   0
                l(2) =   0
                l(3) =   1
                l(4) =   1
                l(5) =   2
                l(6) =   2
     Q(r) pseudized with 0 coefficients 


     atomic species   valence    mass     pseudopotential
        V1            13.00    50.94150     V ( 1.00)
        V2            13.00    50.94150     V ( 1.00)

     Starting magnetic structure 
     atomic species   magnetization
        V1           0.100
        V2          -0.100

     48 Sym. Ops., with inversion, found



   Cartesian axes

     site n.     atom                  positions (alat units)
         1           V1  tau(   1) = (   0.0000000   0.0000000   0.0000000  )
         2           V2  tau(   2) = (   0.5000000   0.5000000   0.5000000  )

     number of k points=    20  Methfessel-Paxton smearing, width (Ry)=  0.0300
                       cart. coord. in units 2pi/alat
        k(    1) = (   0.0625000   0.0625000   0.0625000), wk =   0.0156250
        k(    2) = (   0.0625000   0.0625000   0.1875000), wk =   0.0468750
        k(    3) = (   0.0625000   0.0625000   0.3125000), wk =   0.0468750
        k(    4) = (   0.0625000   0.0625000   0.4375000), wk =   0.0468750
        k(    5) = (   0.0625000   0.1875000   0.1875000), wk =   0.0468750
        k(    6) = (   0.0625000   0.1875000   0.3125000), wk =   0.0937500
        k(    7) = (   0.0625000   0.1875000   0.4375000), wk =   0.0937500
        k(    8) = (   0.0625000   0.3125000   0.3125000), wk =   0.0468750
        k(    9) = (   0.0625000   0.3125000   0.4375000), wk =   0.0937500
        k(   10) = (   0.0625000   0.4375000   0.4375000), wk =   0.0468750
        k(   11) = (   0.1875000   0.1875000   0.1875000), wk =   0.0156250
        k(   12) = (   0.1875000   0.1875000   0.3125000), wk =   0.0468750
        k(   13) = (   0.1875000   0.1875000   0.4375000), wk =   0.0468750
        k(   14) = (   0.1875000   0.3125000   0.3125000), wk =   0.0468750
        k(   15) = (   0.1875000   0.3125000   0.4375000), wk =   0.0937500
        k(   16) = (   0.1875000   0.4375000   0.4375000), wk =   0.0468750
        k(   17) = (   0.3125000   0.3125000   0.3125000), wk =   0.0156250
        k(   18) = (   0.3125000   0.3125000   0.4375000), wk =   0.0468750
        k(   19) = (   0.3125000   0.4375000   0.4375000), wk =   0.0468750
        k(   20) = (   0.4375000   0.4375000   0.4375000), wk =   0.0156250

     Dense  grid:    30647 G-vectors     FFT dimensions: (  40,  40,  40)

     Smooth grid:    16831 G-vectors     FFT dimensions: (  32,  32,  32)

     Estimated max dynamical RAM per process >      26.67 MB

     Estimated total dynamical RAM >     160.05 MB
     Generating pointlists ...
     new r_m :   0.3572 (alat units)  2.1265 (a.u.) for type    1
     new r_m :   0.3572 (alat units)  2.1265 (a.u.) for type    2

     Check: negative core charge=   -0.000011

     Initial potential from superposition of free atoms

     starting charge   25.99818, renormalised to   26.00000
     Starting wfcs are   20 randomized atomic wfcs

     total cpu time spent up to now is        2.0 secs

     Self-consistent Calculation

     iteration #  1     ecut=    70.00 Ry     beta= 0.70
     Davidson diagonalization with overlap
     ethr =  1.00E-02,  avg # of iterations =  2.5

     Threshold (ethr) on eigenvalues was too large:
     Diagonalizing with lowered threshold

     Davidson diagonalization with overlap
     ethr =  4.97E-04,  avg # of iterations =  2.6

     total cpu time spent up to now is        3.7 secs

     total energy              =    -291.00607927 Ry
     Harris-Foulkes estimate   =    -291.09186015 Ry
     estimated scf accuracy    <       0.14391207 Ry

     total magnetization       =     0.00 Bohr mag/cell
     absolute magnetization    =     1.48 Bohr mag/cell

     iteration #  2     ecut=    70.00 Ry     beta= 0.70
     Davidson diagonalization with overlap
     ethr =  5.54E-04,  avg # of iterations =  3.2

     total cpu time spent up to now is        4.9 secs

     total energy              =    -291.02877186 Ry
     Harris-Foulkes estimate   =    -291.11255223 Ry
     estimated scf accuracy    <       0.17585048 Ry

     total magnetization       =    -0.00 Bohr mag/cell
     absolute magnetization    =     1.78 Bohr mag/cell

     iteration #  3     ecut=    70.00 Ry     beta= 0.70
     Davidson diagonalization with overlap
     ethr =  5.54E-04,  avg # of iterations =  3.0

     total cpu time spent up to now is        5.8 secs

     total energy              =    -291.06756767 Ry
     Harris-Foulkes estimate   =    -291.06690205 Ry
     estimated scf accuracy    <       0.00274290 Ry

     total magnetization       =     0.00 Bohr mag/cell
     absolute magnetization    =     1.44 Bohr mag/cell

     iteration #  4     ecut=    70.00 Ry     beta= 0.70
     Davidson diagonalization with overlap
     ethr =  1.05E-05,  avg # of iterations =  4.6

     total cpu time spent up to now is        7.1 secs

     total energy              =    -291.06883849 Ry
     Harris-Foulkes estimate   =    -291.07041813 Ry
     estimated scf accuracy    <       0.01636821 Ry

     total magnetization       =    -0.05 Bohr mag/cell
     absolute magnetization    =     1.15 Bohr mag/cell

     iteration #  5     ecut=    70.00 Ry     beta= 0.70
     Davidson diagonalization with overlap
     ethr =  1.05E-05,  avg # of iterations =  3.7

     total cpu time spent up to now is        8.0 secs

     total energy              =    -291.07018356 Ry
     Harris-Foulkes estimate   =    -291.06969050 Ry
     estimated scf accuracy    <       0.00056727 Ry

     total magnetization       =     0.00 Bohr mag/cell
     absolute magnetization    =     1.12 Bohr mag/cell

     iteration #  6     ecut=    70.00 Ry     beta= 0.70
     Davidson diagonalization with overlap
     ethr =  2.18E-06,  avg # of iterations =  4.0

     total cpu time spent up to now is        9.0 secs

     total energy              =    -291.06762419 Ry
     Harris-Foulkes estimate   =    -291.07040034 Ry
     estimated scf accuracy    <       0.00034886 Ry

     total magnetization       =     0.00 Bohr mag/cell
     absolute magnetization    =     0.99 Bohr mag/cell

     iteration #  7     ecut=    70.00 Ry     beta= 0.70
     Davidson diagonalization with overlap
     ethr =  1.34E-06,  avg # of iterations =  5.3

     total cpu time spent up to now is       10.4 secs

     total energy              =    -291.07222564 Ry
     Harris-Foulkes estimate   =    -291.07240127 Ry
     estimated scf accuracy    <       0.00022795 Ry

     total magnetization       =    -0.00 Bohr mag/cell
     absolute magnetization    =     0.31 Bohr mag/cell

     iteration #  8     ecut=    70.00 Ry     beta= 0.70
     Davidson diagonalization with overlap
     ethr =  8.77E-07,  avg # of iterations =  4.6

     total cpu time spent up to now is       11.4 secs

     total energy              =    -291.07233604 Ry
     Harris-Foulkes estimate   =    -291.07255959 Ry
     estimated scf accuracy    <       0.00002659 Ry

     total magnetization       =     0.00 Bohr mag/cell
     absolute magnetization    =     0.12 Bohr mag/cell

     iteration #  9     ecut=    70.00 Ry     beta= 0.70
     Davidson diagonalization with overlap
     ethr =  1.02E-07,  avg # of iterations =  5.8

     total cpu time spent up to now is       12.6 secs

     total energy              =    -291.07256741 Ry
     Harris-Foulkes estimate   =    -291.07259833 Ry
     estimated scf accuracy    <       0.00001005 Ry

     total magnetization       =     0.00 Bohr mag/cell
     absolute magnetization    =     0.04 Bohr mag/cell

     iteration # 10     ecut=    70.00 Ry     beta= 0.70
     Davidson diagonalization with overlap
     ethr =  3.86E-08,  avg # of iterations =  5.3

     Magnetic moment per site:
     atom:    1    charge:   11.3805    magn:    0.0106    constr:    0.0000
     atom:    2    charge:   11.3812    magn:   -0.0087    constr:    0.0000

     total cpu time spent up to now is       13.8 secs

     End of self-consistent calculation

 ------ SPIN UP ------------


          k = 0.0625 0.0625 0.0625 (  2079 PWs)   bands (ev):

   -49.9568 -49.7816 -23.8359 -23.8359 -23.8052 -23.4784 -23.4466 -23.4466
     7.9001  11.6575  11.6575  14.2529  14.2529  14.4755  15.9395  15.9395
    16.5317

          k = 0.0625 0.0625 0.1875 (  2071 PWs)   bands (ev):

   -49.9416 -49.7928 -23.8506 -23.8047 -23.7604 -23.5461 -23.4744 -23.4582
     8.4338  11.8768  11.9295  14.1384  14.2019  14.7526  15.6140  15.8207
    16.0898

          k = 0.0625 0.0625 0.3125 (  2068 PWs)   bands (ev):

   -49.9142 -49.8144 -23.8444 -23.7477 -23.7007 -23.6407 -23.5266 -23.4990
     9.4118  12.0365  12.4434  14.1228  14.1297  15.0777  15.1099  15.1452
    15.5633

          k = 0.0625 0.0625 0.4375 (  2084 PWs)   bands (ev):

   -49.8807 -49.8439 -23.8078 -23.7363 -23.6748 -23.6304 -23.5963 -23.5596
    10.6208  11.6498  13.1276  13.8117  14.2894  14.6144  14.7516  14.9910
    15.6242

          k = 0.0625 0.1875 0.1875 (  2082 PWs)   bands (ev):

   -49.9283 -49.8019 -23.8812 -23.7873 -23.6980 -23.6297 -23.4947 -23.4475
     8.9324  12.0683  12.1857  13.8740  14.0420  15.0592  15.1959  15.7202
    15.9301

          k = 0.0625 0.1875 0.3125 (  2079 PWs)   bands (ev):

   -49.9047 -49.8197 -23.8991 -23.7369 -23.7326 -23.6288 -23.5395 -23.4629
     9.8242  12.1537  12.6420  13.7086  13.8785  14.4329  15.4220  15.4927
    15.7222

          k = 0.0625 0.1875 0.4375 (  2083 PWs)   bands (ev):

   -49.8761 -49.8441 -23.8819 -23.8236 -23.6709 -23.6006 -23.5622 -23.5040
    10.8777  11.7558  13.1541  13.5671  13.8254  14.0462  15.2535  15.2894
    16.2028

          k = 0.0625 0.3125 0.3125 (  2089 PWs)   bands (ev):

   -49.8879 -49.8304 -23.9447 -23.8348 -23.7011 -23.5677 -23.5596 -23.4490
    10.4850  11.9804  13.2068  13.3973  13.8368  13.8542  15.3535  15.8038
    16.1256

          k = 0.0625 0.3125 0.4375 (  2089 PWs)   bands (ev):

   -49.8686 -49.8454 -23.9533 -23.9150 -23.6555 -23.6071 -23.5025 -23.4637
    11.1232  11.6125  13.2999  13.4431  13.7905  13.9777  15.5748  15.7703
    16.3608

          k = 0.0625 0.4375 0.4375 (  2090 PWs)   bands (ev):

   -49.8618 -49.8479 -23.9893 -23.9759 -23.6381 -23.6175 -23.4638 -23.4501
    11.2374  11.3812  13.0898  13.1459  14.5746  14.7019  15.8487  15.9581
    16.2350

          k = 0.1875 0.1875 0.1875 (  2082 PWs)   bands (ev):

   -49.9167 -49.8093 -23.8466 -23.8466 -23.6974 -23.6330 -23.4788 -23.4788
     9.4138  12.3529  12.3529  13.7277  13.7277  14.2417  15.7021  15.8962
    15.8962

          k = 0.1875 0.1875 0.3125 (  2090 PWs)   bands (ev):

   -49.8962 -49.8239 -23.8877 -23.7834 -23.7825 -23.5739 -23.5374 -23.4764
    10.2574  12.5053  12.6413  13.5042  13.5594  13.7644  15.6970  15.8489
    16.1446

          k = 0.1875 0.1875 0.4375 (  2090 PWs)   bands (ev):

   -49.8719 -49.8440 -23.8925 -23.8548 -23.7023 -23.6152 -23.5261 -23.4926
    11.2137  12.0204  12.9663  13.2542  13.6551  13.7854  15.5142  15.5240
    16.3119

          k = 0.1875 0.3125 0.3125 (  2090 PWs)   bands (ev):

   -49.8816 -49.8324 -23.9054 -23.8500 -23.7651 -23.5648 -23.5287 -23.4851
    10.9448  12.3683  13.1566  13.2595  13.3283  13.4131  15.8103  15.9091
    16.1250

          k = 0.1875 0.3125 0.4375 (  2092 PWs)   bands (ev):

   -49.8652 -49.8446 -23.9222 -23.9033 -23.6997 -23.6252 -23.5009 -23.4885
    11.5582  11.9958  13.1261  13.1273  13.5781  13.6306  15.7936  15.8610
    16.2784

          k = 0.1875 0.4375 0.4375 (  2088 PWs)   bands (ev):

   -49.8595 -49.8460 -23.9469 -23.9408 -23.6711 -23.6397 -23.4915 -23.4895
    11.6721  11.7863  12.9940  13.0235  14.0457  14.0812  15.9803  16.0332
    16.2490

          k = 0.3125 0.3125 0.3125 (  2094 PWs)   bands (ev):

   -49.8711 -49.8370 -23.8742 -23.8336 -23.8336 -23.5525 -23.5525 -23.5121
    11.6726  12.7062  13.0595  13.0595  13.0806  13.0806  16.1008  16.1009
    16.1660

          k = 0.3125 0.3125 0.4375 (  2094 PWs)   bands (ev):

   -49.8601 -49.8436 -23.8900 -23.8786 -23.7412 -23.6417 -23.5328 -23.5156
    12.1750  12.4012  12.9668  12.9706  13.2078  13.3844  16.0390  16.0549
    16.2549

          k = 0.3125 0.4375 0.4375 (  2093 PWs)   bands (ev):

   -49.8561 -49.8434 -23.8806 -23.8689 -23.7205 -23.6645 -23.5632 -23.5446
    12.3697  12.3827  12.8905  12.9313  13.3968  13.5061  16.1550  16.1706
    16.2651

          k = 0.4375 0.4375 0.4375 (  2092 PWs)   bands (ev):

   -49.8537 -49.8415 -23.8174 -23.7686 -23.7686 -23.6604 -23.6604 -23.6110
    12.7012  12.8945  12.8945  13.0282  13.0905  13.0905  16.2697  16.2807
    16.2808

 ------ SPIN DOWN ----------


          k = 0.0625 0.0625 0.0625 (  2079 PWs)   bands (ev):

   -49.9558 -49.7805 -23.8348 -23.8348 -23.8042 -23.4774 -23.4455 -23.4455
     7.9009  11.6581  11.6581  14.2542  14.2542  14.4768  15.9401  15.9401
    16.5329

          k = 0.0625 0.0625 0.1875 (  2071 PWs)   bands (ev):

   -49.9406 -49.7917 -23.8496 -23.8036 -23.7593 -23.5451 -23.4734 -23.4571
     8.4346  11.8774  11.9301  14.1397  14.2032  14.7539  15.6146  15.8220
    16.0903

          k = 0.0625 0.0625 0.3125 (  2068 PWs)   bands (ev):

   -49.9133 -49.8133 -23.8434 -23.7466 -23.6998 -23.6396 -23.5256 -23.4979
     9.4126  12.0371  12.4440  14.1239  14.1310  15.0784  15.1111  15.1466
    15.5646

          k = 0.0625 0.0625 0.4375 (  2084 PWs)   bands (ev):

   -49.8798 -49.8427 -23.8067 -23.7353 -23.6738 -23.6293 -23.5952 -23.5585
    10.6215  11.6506  13.1282  13.8125  14.2906  14.6156  14.7527  14.9922
    15.6256

          k = 0.0625 0.1875 0.1875 (  2082 PWs)   bands (ev):

   -49.9273 -49.8009 -23.8802 -23.7863 -23.6970 -23.6286 -23.4936 -23.4464
     8.9332  12.0689  12.1862  13.8753  14.0432  15.0604  15.1972  15.7208
    15.9313

          k = 0.0625 0.1875 0.3125 (  2079 PWs)   bands (ev):

   -49.9037 -49.8186 -23.8980 -23.7359 -23.7315 -23.6277 -23.5385 -23.4619
     9.8250  12.1544  12.6426  13.7098  13.8796  14.4341  15.4232  15.4934
    15.7235

          k = 0.0625 0.1875 0.4375 (  2083 PWs)   bands (ev):

   -49.8752 -49.8430 -23.8808 -23.8226 -23.6700 -23.5995 -23.5611 -23.5029
    10.8785  11.7565  13.1548  13.5680  13.8266  14.0474  15.2546  15.2903
    16.2040

          k = 0.0625 0.3125 0.3125 (  2089 PWs)   bands (ev):

   -49.8870 -49.8293 -23.9437 -23.8338 -23.7001 -23.5667 -23.5585 -23.4479
    10.4858  11.9812  13.2075  13.3986  13.8377  13.8554  15.3544  15.8046
    16.1262

          k = 0.0625 0.3125 0.4375 (  2089 PWs)   bands (ev):

   -49.8678 -49.8442 -23.9522 -23.9139 -23.6545 -23.6059 -23.5014 -23.4626
    11.1240  11.6134  13.3012  13.4443  13.7912  13.9785  15.5757  15.7711
    16.3615

          k = 0.0625 0.4375 0.4375 (  2090 PWs)   bands (ev):

   -49.8611 -49.8465 -23.9883 -23.9749 -23.6373 -23.6162 -23.4627 -23.4490
    11.2383  11.3821  13.0911  13.1471  14.5753  14.7027  15.8495  15.9589
    16.2356

          k = 0.1875 0.1875 0.1875 (  2082 PWs)   bands (ev):

   -49.9157 -49.8083 -23.8455 -23.8455 -23.6964 -23.6318 -23.4777 -23.4777
     9.4146  12.3535  12.3535  13.7290  13.7290  14.2429  15.7034  15.8968
    15.8968

          k = 0.1875 0.1875 0.3125 (  2090 PWs)   bands (ev):

   -49.8952 -49.8228 -23.8866 -23.7824 -23.7815 -23.5728 -23.5363 -23.4753
    10.2582  12.5061  12.6419  13.5053  13.5606  13.7656  15.6977  15.8500
    16.1452

          k = 0.1875 0.1875 0.4375 (  2090 PWs)   bands (ev):

   -49.8710 -49.8428 -23.8914 -23.8538 -23.7013 -23.6141 -23.5250 -23.4915
    11.2145  12.0212  12.9671  13.2552  13.6563  13.7865  15.5150  15.5250
    16.3123

          k = 0.1875 0.3125 0.3125 (  2090 PWs)   bands (ev):

   -49.8807 -49.8313 -23.9044 -23.8489 -23.7640 -23.5637 -23.5277 -23.4840
    10.9456  12.3691  13.1572  13.2607  13.3294  13.4142  15.8113  15.9098
    16.1256

          k = 0.1875 0.3125 0.4375 (  2092 PWs)   bands (ev):

   -49.8644 -49.8433 -23.9212 -23.9022 -23.6987 -23.6240 -23.4999 -23.4874
    11.5591  11.9967  13.1271  13.1284  13.5791  13.6315  15.7945  15.8618
    16.2791

          k = 0.1875 0.4375 0.4375 (  2088 PWs)   bands (ev):

   -49.8588 -49.8446 -23.9458 -23.9397 -23.6702 -23.6385 -23.4904 -23.4884
    11.6730  11.7873  12.9952  13.0247  14.0466  14.0821  15.9810  16.0340
    16.2496

          k = 0.3125 0.3125 0.3125 (  2094 PWs)   bands (ev):

   -49.8702 -49.8358 -23.8731 -23.8326 -23.8326 -23.5514 -23.5514 -23.5110
    11.6734  12.7073  13.0603  13.0603  13.0817  13.0817  16.1014  16.1014
    16.1670

          k = 0.3125 0.3125 0.4375 (  2094 PWs)   bands (ev):

   -49.8594 -49.8423 -23.8890 -23.8776 -23.7402 -23.6406 -23.5317 -23.5146
    12.1759  12.4023  12.9678  12.9717  13.2089  13.3854  16.0398  16.0557
    16.2555

          k = 0.3125 0.4375 0.4375 (  2093 PWs)   bands (ev):

   -49.8554 -49.8420 -23.8796 -23.8679 -23.7196 -23.6634 -23.5621 -23.5435
    12.3707  12.3838  12.8917  12.9324  13.3978  13.5071  16.1556  16.1715
    16.2654

          k = 0.4375 0.4375 0.4375 (  2092 PWs)   bands (ev):

   -49.8530 -49.8401 -23.8164 -23.7676 -23.7676 -23.6593 -23.6593 -23.6099
    12.7023  12.8956  12.8956  13.0293  13.0916  13.0916  16.2700  16.2817
    16.2818

     the Fermi energy is    13.9510 ev

!    total energy              =    -291.07260030 Ry
     Harris-Foulkes estimate   =    -291.07260053 Ry
     estimated scf accuracy    <       0.00000067 Ry

     The total energy is the sum of the following terms:

     one-electron contribution =    -107.35431708 Ry
     hartree contribution      =      63.36010150 Ry
     xc contribution           =     -40.43477391 Ry
     ewald contribution        =    -206.64133225 Ry
     smearing contrib. (-TS)   =      -0.00227856 Ry

     total magnetization       =     0.00 Bohr mag/cell
     absolute magnetization    =     0.02 Bohr mag/cell

     convergence has been achieved in  10 iterations

     Writing output data file v-3.15.save/

     init_run     :      0.56s CPU      0.58s WALL (       1 calls)
     electrons    :     11.48s CPU     11.73s WALL (       1 calls)

     Called by init_run:
     wfcinit      :      0.26s CPU      0.26s WALL (       1 calls)
     potinit      :      0.05s CPU      0.05s WALL (       1 calls)
     hinit0       :      0.21s CPU      0.21s WALL (       1 calls)

     Called by electrons:
     c_bands      :      9.21s CPU      9.40s WALL (      11 calls)
     sum_band     :      1.58s CPU      1.62s WALL (      11 calls)
     v_of_rho     :      0.22s CPU      0.23s WALL (      11 calls)
     newd         :      0.47s CPU      0.48s WALL (      11 calls)
     mix_rho      :      0.02s CPU      0.03s WALL (      11 calls)

     Called by c_bands:
     init_us_2    :      0.14s CPU      0.14s WALL (     920 calls)
     cegterg      :      8.73s CPU      8.91s WALL (     440 calls)

     Called by sum_band:
     sum_band:bec :      0.01s CPU      0.01s WALL (     440 calls)
     addusdens    :      0.58s CPU      0.59s WALL (      11 calls)

     Called by *egterg:
     h_psi        :      4.67s CPU      4.77s WALL (    2265 calls)
     s_psi        :      0.47s CPU      0.48s WALL (    2265 calls)
     g_psi        :      0.04s CPU      0.04s WALL (    1785 calls)
     cdiaghg      :      1.32s CPU      1.34s WALL (    2185 calls)

     Called by h_psi:
     h_psi:pot    :      4.64s CPU      4.74s WALL (    2265 calls)
     h_psi:calbec :      0.71s CPU      0.73s WALL (    2265 calls)
     vloc_psi     :      3.46s CPU      3.53s WALL (    2265 calls)
     add_vuspsi   :      0.47s CPU      0.48s WALL (    2265 calls)

     General routines
     calbec       :      0.93s CPU      0.96s WALL (    2705 calls)
     fft          :      0.12s CPU      0.12s WALL (     271 calls)
     ffts         :      0.01s CPU      0.01s WALL (      44 calls)
     fftw         :      3.57s CPU      3.64s WALL (   51068 calls)
     interpolate  :      0.01s CPU      0.01s WALL (      22 calls)

     Parallel routines
     fft_scatt_xy :      0.40s CPU      0.41s WALL (   51383 calls)
     fft_scatt_yz :      2.09s CPU      2.14s WALL (   51383 calls)

     PWSCF        :     13.76s CPU     14.14s WALL


   This run was terminated on:   8:34:41  17Mar2022            

=------------------------------------------------------------------------------=
   JOB DONE.
=------------------------------------------------------------------------------=
