
     Program PWSCF v.6.4.1 starts on 23Aug2022 at 14:40:48 

     This program is part of the open-source Quantum ESPRESSO suite
     for quantum simulation of materials; please cite
         "P. Giannozzi et al., J. Phys.:Condens. Matter 21 395502 (2009);
         "P. Giannozzi et al., J. Phys.:Condens. Matter 29 465901 (2017);
          URL http://www.quantum-espresso.org", 
     in publications or presentations arising from this work. More details at
     http://www.quantum-espresso.org/quote

     Parallel version (MPI), running on     6 processors

     MPI processes distributed on     1 nodes
     R & G space division:  proc/nbgrp/npool/nimage =       6
     Reading input from distance-2.4.in

     Current dimensions of program PWSCF are:
     Max number of different atomic species (ntypx) = 10
     Max number of k-points (npk) =  40000
     Max angular momentum in pseudopotentials (lmaxx) =  3

     IMPORTANT: XC functional enforced from input :
     Exchange-correlation      = RVV10 ( 1  4 13  4 3 0)
     Any further DFT definition will be discarded
     Please, verify this is what you really want

               file H.pbe-rrkjus.UPF: wavefunction(s)  1S renormalized
               file V.pbe-spnl-rrkjus_psl.1.0.0.UPF: wavefunction(s)  3P 3D renormalized

     Subspace diagonalization in iterative solution of the eigenvalue problem:
     a serial algorithm will be used


     Parallelization info
     --------------------
     sticks:   dense  smooth     PW     G-vecs:    dense   smooth      PW
     Min        3051    1746    432               270999   117096   14629
     Max        3053    1747    437               271001   117099   14630
     Sum       18313   10477   2611              1626001   702581   87777



     bravais-lattice index     =            4
     lattice parameter (alat)  =      23.2937  a.u.
     unit-cell volume          =    8879.8548 (a.u.)^3
     number of atoms/cell      =           52
     number of atomic types    =            3
     number of electrons       =       211.00
     number of Kohn-Sham states=          127
     kinetic-energy cutoff     =      70.0000  Ry
     charge density cutoff     =     490.0000  Ry
     convergence threshold     =      1.0E-06
     mixing beta               =       0.7000
     number of iterations used =            8  plain     mixing
     Exchange-correlation      = RVV10 ( 1  4 13  4 3 0)

     celldm(1)=  23.293684  celldm(2)=   0.000000  celldm(3)=   0.811261
     celldm(4)=   0.000000  celldm(5)=   0.000000  celldm(6)=   0.000000

     crystal axes: (cart. coord. in units of alat)
               a(1) = (   1.000000   0.000000   0.000000 )  
               a(2) = (  -0.500000   0.866025   0.000000 )  
               a(3) = (   0.000000   0.000000   0.811261 )  

     reciprocal axes: (cart. coord. in units 2 pi/alat)
               b(1) = (  1.000000  0.577350 -0.000000 )  
               b(2) = (  0.000000  1.154701  0.000000 )  
               b(3) = (  0.000000 -0.000000  1.232649 )  


     PseudoPot. # 1 for H  read from file:
     /home/cristian/Escritorio/Proyecto_Grafeno/pseudopotenciales/H.pbe-rrkjus.UPF
     MD5 check sum: 7cc9d459525c9a0585f487a71c3c9563
     Pseudo is Ultrasoft, Zval =  1.0
     Generated by new atomic code, or converted to UPF format
     Using radial grid of 1061 points,  2 beta functions with: 
                l(1) =   0
                l(2) =   0
     Q(r) pseudized with 0 coefficients 


     PseudoPot. # 2 for C  read from file:
     /home/cristian/Escritorio/Proyecto_Grafeno/pseudopotenciales/C.pbe-n-rrkjus_psl.1.0.0.UPF
     MD5 check sum: 1fdd950c42eb37d8afe3dd2f8d12311e
     Pseudo is Ultrasoft + core correction, Zval =  4.0
     Generated using "atomic" code by A. Dal Corso v.6.3MaX
     Using radial grid of 1073 points,  4 beta functions with: 
                l(1) =   0
                l(2) =   0
                l(3) =   1
                l(4) =   1
     Q(r) pseudized with 0 coefficients 


     PseudoPot. # 3 for V  read from file:
     /home/cristian/Escritorio/Proyecto_Grafeno/pseudopotenciales/V.pbe-spnl-rrkjus_psl.1.0.0.UPF
     MD5 check sum: 79b3eb63147daf0b665d9f1bcc691206
     Pseudo is Ultrasoft + core correction, Zval = 13.0
     Generated using "atomic" code by A. Dal Corso v.6.2.2
     Using radial grid of 1181 points,  6 beta functions with: 
                l(1) =   0
                l(2) =   0
                l(3) =   1
                l(4) =   1
                l(5) =   2
                l(6) =   2
     Q(r) pseudized with 0 coefficients 


     vdW kernel table read from file rVV10_kernel_table
     MD5 check sum: b8e2538accc0c0b3206b45ba4daaba6c

     atomic species   valence    mass     pseudopotential
        H              1.00     1.00794     H ( 1.00)
        C              4.00    12.01070     C ( 1.00)
        V             13.00    50.94150     V ( 1.00)

     Starting magnetic structure 
     atomic species   magnetization
        H            0.500
        C            0.300
        V            0.800

      2 Sym. Ops. (no inversion) found


                                    s                        frac. trans.

      isym =  1     identity                                     

 cryst.   s( 1) = (     1          0          0      )
                  (     0          1          0      )
                  (     0          0          1      )

 cart.    s( 1) = (  1.0000000  0.0000000  0.0000000 )
                  (  0.0000000  1.0000000  0.0000000 )
                  (  0.0000000  0.0000000  1.0000000 )


      isym =  2     inv. 180 deg rotation - cryst. axis [1,1,0]  

 cryst.   s( 2) = (     0         -1          0      )
                  (    -1          0          0      )
                  (     0          0          1      )

 cart.    s( 2) = (  0.5000000 -0.8660254  0.0000000 )
                  ( -0.8660254 -0.5000000  0.0000000 )
                  (  0.0000000  0.0000000  1.0000000 )


     point group C_s (m)    
     there are  2 classes
     the character table:

       E     s    
A'     1.00  1.00
A''    1.00 -1.00

     the symmetry operations in each class and the name of the first element:

     E        1
          identity                                               
     s        2
          inv. 180 deg rotation - cryst. axis [1,1,0]            

   Cartesian axes

     site n.     atom                  positions (alat units)
         1           H   tau(   1) = (   0.2500000   0.4330127   0.1947027  )
         2           H   tau(   2) = (   0.2500000   0.4330127   0.2557154  )
         3           C   tau(   3) = (   0.0000000   0.0000000   0.0000000  )
         4           C   tau(   4) = (   0.0000000   0.1154701   0.0000000  )
         5           C   tau(   5) = (  -0.1000000   0.1732051   0.0000000  )
         6           C   tau(   6) = (  -0.1000000   0.2886751   0.0000000  )
         7           C   tau(   7) = (  -0.2000000   0.3464102   0.0000000  )
         8           C   tau(   8) = (  -0.2000000   0.4618802   0.0000000  )
         9           C   tau(   9) = (  -0.3000000   0.5196152   0.0000000  )
        10           C   tau(  10) = (  -0.3000000   0.6350853   0.0000000  )
        11           C   tau(  11) = (  -0.4000000   0.6928203   0.0000000  )
        12           C   tau(  12) = (  -0.4000000   0.8082904   0.0000000  )
        13           C   tau(  13) = (   0.2000000   0.0000000   0.0000000  )
        14           C   tau(  14) = (   0.2000000   0.1154701   0.0000000  )
        15           C   tau(  15) = (   0.1000000   0.1732051   0.0000000  )
        16           C   tau(  16) = (   0.1000000   0.2886751   0.0000000  )
        17           C   tau(  17) = (   0.0000000   0.3464102   0.0000000  )
        18           C   tau(  18) = (   0.0000000   0.4618802   0.0000000  )
        19           C   tau(  19) = (  -0.1000000   0.5196152   0.0000000  )
        20           C   tau(  20) = (  -0.1000000   0.6350853   0.0000000  )
        21           C   tau(  21) = (  -0.2000000   0.6928203   0.0000000  )
        22           C   tau(  22) = (  -0.2000000   0.8082904   0.0000000  )
        23           C   tau(  23) = (   0.4000000   0.0000000   0.0000000  )
        24           C   tau(  24) = (   0.4000000   0.1154701   0.0000000  )
        25           C   tau(  25) = (   0.3000000   0.1732051   0.0000000  )
        26           C   tau(  26) = (   0.3000000   0.2886751   0.0000000  )
        27           C   tau(  27) = (   0.2000000   0.3464102   0.0000000  )
        28           V   tau(  28) = (   0.2000000   0.4618802   0.0000000  )
        29           C   tau(  29) = (   0.1000000   0.5196152   0.0000000  )
        30           C   tau(  30) = (   0.1000000   0.6350853   0.0000000  )
        31           C   tau(  31) = (   0.0000000   0.6928203   0.0000000  )
        32           C   tau(  32) = (   0.0000000   0.8082904   0.0000000  )
        33           C   tau(  33) = (   0.6000000   0.0000000   0.0000000  )
        34           C   tau(  34) = (   0.6000000   0.1154701   0.0000000  )
        35           C   tau(  35) = (   0.5000000   0.1732051   0.0000000  )
        36           C   tau(  36) = (   0.5000000   0.2886751   0.0000000  )
        37           C   tau(  37) = (   0.4000000   0.3464102   0.0000000  )
        38           C   tau(  38) = (   0.4000000   0.4618802   0.0000000  )
        39           C   tau(  39) = (   0.3000000   0.5196152   0.0000000  )
        40           C   tau(  40) = (   0.3000000   0.6350853   0.0000000  )
        41           C   tau(  41) = (   0.2000000   0.6928203   0.0000000  )
        42           C   tau(  42) = (   0.2000000   0.8082904   0.0000000  )
        43           C   tau(  43) = (   0.8000000   0.0000000   0.0000000  )
        44           C   tau(  44) = (   0.8000000   0.1154701   0.0000000  )
        45           C   tau(  45) = (   0.7000000   0.1732051   0.0000000  )
        46           C   tau(  46) = (   0.7000000   0.2886751   0.0000000  )
        47           C   tau(  47) = (   0.6000000   0.3464102   0.0000000  )
        48           C   tau(  48) = (   0.6000000   0.4618802   0.0000000  )
        49           C   tau(  49) = (   0.5000000   0.5196152   0.0000000  )
        50           C   tau(  50) = (   0.5000000   0.6350853   0.0000000  )
        51           C   tau(  51) = (   0.4000000   0.6928203   0.0000000  )
        52           C   tau(  52) = (   0.4000000   0.8082904   0.0000000  )

   Crystallographic axes

     site n.     atom                  positions (cryst. coord.)
         1           H   tau(   1) = (  0.5000000  0.5000000  0.2400000  )
         2           H   tau(   2) = (  0.5000000  0.5000000  0.3152072  )
         3           C   tau(   3) = (  0.0000000  0.0000000  0.0000000  )
         4           C   tau(   4) = (  0.0666667  0.1333333  0.0000000  )
         5           C   tau(   5) = (  0.0000000  0.2000000  0.0000000  )
         6           C   tau(   6) = (  0.0666667  0.3333333  0.0000000  )
         7           C   tau(   7) = (  0.0000000  0.4000000  0.0000000  )
         8           C   tau(   8) = (  0.0666667  0.5333333  0.0000000  )
         9           C   tau(   9) = (  0.0000000  0.6000000  0.0000000  )
        10           C   tau(  10) = (  0.0666667  0.7333333  0.0000000  )
        11           C   tau(  11) = (  0.0000000  0.8000000  0.0000000  )
        12           C   tau(  12) = (  0.0666667  0.9333333  0.0000000  )
        13           C   tau(  13) = (  0.2000000  0.0000000  0.0000000  )
        14           C   tau(  14) = (  0.2666667  0.1333333  0.0000000  )
        15           C   tau(  15) = (  0.2000000  0.2000000  0.0000000  )
        16           C   tau(  16) = (  0.2666667  0.3333333  0.0000000  )
        17           C   tau(  17) = (  0.2000000  0.4000000  0.0000000  )
        18           C   tau(  18) = (  0.2666667  0.5333333  0.0000000  )
        19           C   tau(  19) = (  0.2000000  0.6000000  0.0000000  )
        20           C   tau(  20) = (  0.2666667  0.7333333  0.0000000  )
        21           C   tau(  21) = (  0.2000000  0.8000000  0.0000000  )
        22           C   tau(  22) = (  0.2666667  0.9333333  0.0000000  )
        23           C   tau(  23) = (  0.4000000  0.0000000  0.0000000  )
        24           C   tau(  24) = (  0.4666667  0.1333333  0.0000000  )
        25           C   tau(  25) = (  0.4000000  0.2000000  0.0000000  )
        26           C   tau(  26) = (  0.4666667  0.3333333  0.0000000  )
        27           C   tau(  27) = (  0.4000000  0.4000000  0.0000000  )
        28           V   tau(  28) = (  0.4666667  0.5333333  0.0000000  )
        29           C   tau(  29) = (  0.4000000  0.6000000  0.0000000  )
        30           C   tau(  30) = (  0.4666667  0.7333333  0.0000000  )
        31           C   tau(  31) = (  0.4000000  0.8000000  0.0000000  )
        32           C   tau(  32) = (  0.4666667  0.9333333  0.0000000  )
        33           C   tau(  33) = (  0.6000000  0.0000000  0.0000000  )
        34           C   tau(  34) = (  0.6666667  0.1333333  0.0000000  )
        35           C   tau(  35) = (  0.6000000  0.2000000  0.0000000  )
        36           C   tau(  36) = (  0.6666667  0.3333333  0.0000000  )
        37           C   tau(  37) = (  0.6000000  0.4000000  0.0000000  )
        38           C   tau(  38) = (  0.6666667  0.5333333  0.0000000  )
        39           C   tau(  39) = (  0.6000000  0.6000000  0.0000000  )
        40           C   tau(  40) = (  0.6666667  0.7333333  0.0000000  )
        41           C   tau(  41) = (  0.6000000  0.8000000  0.0000000  )
        42           C   tau(  42) = (  0.6666667  0.9333333  0.0000000  )
        43           C   tau(  43) = (  0.8000000  0.0000000  0.0000000  )
        44           C   tau(  44) = (  0.8666667  0.1333333  0.0000000  )
        45           C   tau(  45) = (  0.8000000  0.2000000  0.0000000  )
        46           C   tau(  46) = (  0.8666667  0.3333333  0.0000000  )
        47           C   tau(  47) = (  0.8000000  0.4000000  0.0000000  )
        48           C   tau(  48) = (  0.8666667  0.5333333  0.0000000  )
        49           C   tau(  49) = (  0.8000000  0.6000000  0.0000000  )
        50           C   tau(  50) = (  0.8666667  0.7333333  0.0000000  )
        51           C   tau(  51) = (  0.8000000  0.8000000  0.0000000  )
        52           C   tau(  52) = (  0.8666667  0.9333333  0.0000000  )

     number of k points=     1  Marzari-Vanderbilt smearing, width (Ry)=  0.0010
                       cart. coord. in units 2pi/alat
        k(    1) = (   0.0000000   0.0000000   0.0000000), wk =   1.0000000

                       cryst. coord.
        k(    1) = (   0.0000000   0.0000000   0.0000000), wk =   1.0000000

     Dense  grid:  1626001 G-vectors     FFT dimensions: ( 180, 180, 135)

     Smooth grid:   702581 G-vectors     FFT dimensions: ( 125, 125, 108)

     Dynamical RAM for                 wfc:      28.36 MB

     Dynamical RAM for     wfc (w. buffer):      85.09 MB

     Dynamical RAM for           str. fact:      12.41 MB

     Dynamical RAM for           local pot:       0.00 MB

     Dynamical RAM for          nlocal pot:      92.46 MB

     Dynamical RAM for                qrad:      19.73 MB

     Dynamical RAM for          rho,v,vnew:      58.92 MB

     Dynamical RAM for               rhoin:      19.64 MB

     Dynamical RAM for            rho*nmix:     132.32 MB

     Dynamical RAM for           G-vectors:      16.40 MB

     Dynamical RAM for          h,s,v(r/c):      11.81 MB

     Dynamical RAM for          <psi|beta>:       0.80 MB

     Dynamical RAM for                 psi:     113.46 MB

     Dynamical RAM for                hpsi:     113.46 MB

     Dynamical RAM for                spsi:     113.46 MB

     Dynamical RAM for      wfcinit/wfcrot:      93.90 MB

     Dynamical RAM for           addusdens:     975.89 MB

     Estimated static dynamical RAM per process >     487.63 MB

     Estimated max dynamical RAM per process >       1.43 GB

     Estimated total dynamical RAM >       8.58 GB
     Generating pointlists ...
     new r_m :   0.0252 (alat units)  0.5862 (a.u.) for type    1
     new r_m :   0.0476 (alat units)  1.1095 (a.u.) for type    2
     new r_m :   0.0476 (alat units)  1.1095 (a.u.) for type    3

     Check: negative core charge=   -0.000002

     Initial potential from superposition of free atoms

     starting charge  210.80465, renormalised to  211.00000

     negative rho (up, down):  1.221E-04 1.618E-02


---------------------------------------------------------------------------------
Carrying out rVV10 run using the following parameters:
Nqs =      20    Nr_points =    1024   r_max =   100.000
b_value =  6.30000    beta =  0.00901
     q_mesh =  0.00010000  0.00030000  0.00058939  0.00100810
               0.00161396  0.00249058  0.00375900  0.00559430
               0.00824984  0.01209221  0.01765183  0.02569619
               0.03733578  0.05417739  0.07854596  0.11380545
               0.16482331  0.23864234  0.34545298  0.50000000

Gradients computed in Reciprocal space

---------------------------------------------------------------------------------


     Starting wfcs are  208 randomized atomic wfcs

     total cpu time spent up to now is       77.4 secs

     Self-consistent Calculation

     iteration #  1     ecut=    70.00 Ry     beta= 0.70
     Davidson diagonalization with overlap
     ethr =  1.00E-02,  avg # of iterations =  4.5

     negative rho (up, down):  2.941E-04 1.302E-02

     total cpu time spent up to now is      210.4 secs

     total energy              =    -752.98671081 Ry
     Harris-Foulkes estimate   =    -756.98191708 Ry
     estimated scf accuracy    <      11.86291202 Ry

     total magnetization       =     5.00 Bohr mag/cell
     absolute magnetization    =     6.06 Bohr mag/cell

     iteration #  2     ecut=    70.00 Ry     beta= 0.70
     Davidson diagonalization with overlap
     ethr =  5.62E-03,  avg # of iterations =  7.0

     negative rho (up, down):  4.436E-03 1.705E-01

     total cpu time spent up to now is      334.3 secs

     total energy              =    -746.56866560 Ry
     Harris-Foulkes estimate   =    -767.81869363 Ry
     estimated scf accuracy    <      73.20554413 Ry

     total magnetization       =     3.00 Bohr mag/cell
     absolute magnetization    =     3.36 Bohr mag/cell

     iteration #  3     ecut=    70.00 Ry     beta= 0.70
     Davidson diagonalization with overlap
     ethr =  5.62E-03,  avg # of iterations =  5.0

     negative rho (up, down):  9.583E-04 2.525E-02

     total cpu time spent up to now is      510.3 secs

     total energy              =    -755.74149732 Ry
     Harris-Foulkes estimate   =    -758.13597596 Ry
     estimated scf accuracy    <      11.02953709 Ry

     total magnetization       =     5.00 Bohr mag/cell
     absolute magnetization    =     5.77 Bohr mag/cell

     iteration #  4     ecut=    70.00 Ry     beta= 0.70
     Davidson diagonalization with overlap
     ethr =  5.23E-03,  avg # of iterations =  3.5

     negative rho (up, down):  4.556E-02 1.983E-02

     total cpu time spent up to now is      607.0 secs

     total energy              =    -757.05709848 Ry
     Harris-Foulkes estimate   =    -757.49311322 Ry
     estimated scf accuracy    <       1.29585666 Ry

     total magnetization       =     1.00 Bohr mag/cell
     absolute magnetization    =     1.74 Bohr mag/cell

     iteration #  5     ecut=    70.00 Ry     beta= 0.70
     Davidson diagonalization with overlap
     ethr =  6.14E-04,  avg # of iterations =  7.0

     negative rho (up, down):  5.312E-02 1.711E-02

     total cpu time spent up to now is      723.3 secs

     total energy              =    -757.21659811 Ry
     Harris-Foulkes estimate   =    -757.32625951 Ry
     estimated scf accuracy    <       0.35260040 Ry

     total magnetization       =     1.00 Bohr mag/cell
     absolute magnetization    =     1.51 Bohr mag/cell

     iteration #  6     ecut=    70.00 Ry     beta= 0.70
     Davidson diagonalization with overlap
     ethr =  1.67E-04,  avg # of iterations =  4.5

     negative rho (up, down):  2.925E-02 1.751E-02

     total cpu time spent up to now is      832.2 secs

     total energy              =    -757.29346596 Ry
     Harris-Foulkes estimate   =    -757.32328771 Ry
     estimated scf accuracy    <       0.20628286 Ry

     total magnetization       =     1.00 Bohr mag/cell
     absolute magnetization    =     1.46 Bohr mag/cell

     iteration #  7     ecut=    70.00 Ry     beta= 0.70
     Davidson diagonalization with overlap
     ethr =  9.78E-05,  avg # of iterations =  3.0

     negative rho (up, down):  3.215E-02 1.445E-02

     total cpu time spent up to now is      931.3 secs

     total energy              =    -757.31935963 Ry
     Harris-Foulkes estimate   =    -757.32632830 Ry
     estimated scf accuracy    <       0.03970713 Ry

     total magnetization       =     1.00 Bohr mag/cell
     absolute magnetization    =     1.37 Bohr mag/cell

     iteration #  8     ecut=    70.00 Ry     beta= 0.70
     Davidson diagonalization with overlap
     ethr =  1.88E-05,  avg # of iterations =  6.0

     negative rho (up, down):  3.076E-02 2.617E-02

     total cpu time spent up to now is     1050.0 secs

     total energy              =    -757.32642544 Ry
     Harris-Foulkes estimate   =    -757.33353523 Ry
     estimated scf accuracy    <       0.04204143 Ry

     total magnetization       =     1.00 Bohr mag/cell
     absolute magnetization    =     1.38 Bohr mag/cell

     iteration #  9     ecut=    70.00 Ry     beta= 0.70
     Davidson diagonalization with overlap
     ethr =  1.88E-05,  avg # of iterations =  5.0

     negative rho (up, down):  3.351E-02 2.034E-02

     total cpu time spent up to now is     1150.9 secs

     total energy              =    -757.33117995 Ry
     Harris-Foulkes estimate   =    -757.33194247 Ry
     estimated scf accuracy    <       0.00678194 Ry

     total magnetization       =     1.00 Bohr mag/cell
     absolute magnetization    =     1.39 Bohr mag/cell

     iteration # 10     ecut=    70.00 Ry     beta= 0.70
     Davidson diagonalization with overlap
     ethr =  3.21E-06,  avg # of iterations =  3.5

     negative rho (up, down):  3.429E-02 1.499E-02

     total cpu time spent up to now is     1251.5 secs

     total energy              =    -757.33214473 Ry
     Harris-Foulkes estimate   =    -757.33231744 Ry
     estimated scf accuracy    <       0.00382645 Ry

     total magnetization       =     1.00 Bohr mag/cell
     absolute magnetization    =     1.41 Bohr mag/cell

     iteration # 11     ecut=    70.00 Ry     beta= 0.70
     Davidson diagonalization with overlap
     ethr =  1.81E-06,  avg # of iterations =  3.0

     negative rho (up, down):  3.320E-02 4.632E-03

     total cpu time spent up to now is     1347.8 secs

     total energy              =    -757.33347919 Ry
     Harris-Foulkes estimate   =    -757.33247764 Ry
     estimated scf accuracy    <       0.00026879 Ry

     total magnetization       =     1.00 Bohr mag/cell
     absolute magnetization    =     1.43 Bohr mag/cell

     iteration # 12     ecut=    70.00 Ry     beta= 0.70
     Davidson diagonalization with overlap
     ethr =  1.27E-07,  avg # of iterations =  4.0

     negative rho (up, down):  3.369E-02 3.123E-03

     total cpu time spent up to now is     1465.4 secs

     total energy              =    -757.33357726 Ry
     Harris-Foulkes estimate   =    -757.33357460 Ry
     estimated scf accuracy    <       0.00011063 Ry

     total magnetization       =     1.00 Bohr mag/cell
     absolute magnetization    =     1.46 Bohr mag/cell

     iteration # 13     ecut=    70.00 Ry     beta= 0.70
     Davidson diagonalization with overlap
     ethr =  5.24E-08,  avg # of iterations =  3.0

     negative rho (up, down):  3.396E-02 3.747E-03

     total cpu time spent up to now is     1570.9 secs

     total energy              =    -757.33360406 Ry
     Harris-Foulkes estimate   =    -757.33360789 Ry
     estimated scf accuracy    <       0.00003871 Ry

     total magnetization       =     1.00 Bohr mag/cell
     absolute magnetization    =     1.48 Bohr mag/cell

     iteration # 14     ecut=    70.00 Ry     beta= 0.70
     Davidson diagonalization with overlap
     ethr =  1.83E-08,  avg # of iterations =  3.0

     negative rho (up, down):  3.401E-02 2.484E-03

     total cpu time spent up to now is     1668.7 secs

     total energy              =    -757.33361302 Ry
     Harris-Foulkes estimate   =    -757.33360913 Ry
     estimated scf accuracy    <       0.00000870 Ry

     total magnetization       =     1.00 Bohr mag/cell
     absolute magnetization    =     1.49 Bohr mag/cell

     iteration # 15     ecut=    70.00 Ry     beta= 0.70
     Davidson diagonalization with overlap
     ethr =  4.12E-09,  avg # of iterations =  3.0

     negative rho (up, down):  3.407E-02 2.582E-03

     total cpu time spent up to now is     1770.4 secs

     total energy              =    -757.33361343 Ry
     Harris-Foulkes estimate   =    -757.33361428 Ry
     estimated scf accuracy    <       0.00000481 Ry

     total magnetization       =     1.00 Bohr mag/cell
     absolute magnetization    =     1.50 Bohr mag/cell

     iteration # 16     ecut=    70.00 Ry     beta= 0.70
     Davidson diagonalization with overlap
     ethr =  2.28E-09,  avg # of iterations =  3.0

     negative rho (up, down):  3.407E-02 2.088E-03

     total cpu time spent up to now is     1871.7 secs

     total energy              =    -757.33361655 Ry
     Harris-Foulkes estimate   =    -757.33361445 Ry
     estimated scf accuracy    <       0.00000105 Ry

     total magnetization       =     1.00 Bohr mag/cell
     absolute magnetization    =     1.51 Bohr mag/cell

     iteration # 17     ecut=    70.00 Ry     beta= 0.70
     Davidson diagonalization with overlap
     ethr =  4.98E-10,  avg # of iterations =  3.0

     negative rho (up, down):  3.411E-02 2.744E-03

     total cpu time spent up to now is     1986.8 secs

     total energy              =    -757.33361468 Ry
     Harris-Foulkes estimate   =    -757.33361710 Ry
     estimated scf accuracy    <       0.00000978 Ry

     total magnetization       =     1.00 Bohr mag/cell
     absolute magnetization    =     1.52 Bohr mag/cell

     iteration # 18     ecut=    70.00 Ry     beta= 0.70
     Davidson diagonalization with overlap
     ethr =  4.98E-10,  avg # of iterations =  3.5

     negative rho (up, down):  3.407E-02 1.888E-03

     total cpu time spent up to now is     2083.9 secs

     total energy              =    -757.33361768 Ry
     Harris-Foulkes estimate   =    -757.33361486 Ry
     estimated scf accuracy    <       0.00000339 Ry

     total magnetization       =     1.00 Bohr mag/cell
     absolute magnetization    =     1.52 Bohr mag/cell

     iteration # 19     ecut=    70.00 Ry     beta= 0.70
     Davidson diagonalization with overlap
     ethr =  4.98E-10,  avg # of iterations =  7.0

     negative rho (up, down):  3.410E-02 2.183E-03

     total cpu time spent up to now is     2190.8 secs

     total energy              =    -757.33361576 Ry
     Harris-Foulkes estimate   =    -757.33361797 Ry
     estimated scf accuracy    <       0.00000501 Ry

     total magnetization       =     1.00 Bohr mag/cell
     absolute magnetization    =     1.53 Bohr mag/cell

     iteration # 20     ecut=    70.00 Ry     beta= 0.70
     Davidson diagonalization with overlap
     ethr =  4.98E-10,  avg # of iterations =  3.0

     negative rho (up, down):  3.407E-02 1.903E-03

     total cpu time spent up to now is     2308.9 secs

     total energy              =    -757.33361818 Ry
     Harris-Foulkes estimate   =    -757.33361620 Ry
     estimated scf accuracy    <       0.00000146 Ry

     total magnetization       =     1.00 Bohr mag/cell
     absolute magnetization    =     1.53 Bohr mag/cell

     iteration # 21     ecut=    70.00 Ry     beta= 0.70
     Davidson diagonalization with overlap
     ethr =  4.98E-10,  avg # of iterations =  2.0

     negative rho (up, down):  3.407E-02 1.944E-03

     total cpu time spent up to now is     2405.2 secs

     total energy              =    -757.33361821 Ry
     Harris-Foulkes estimate   =    -757.33361838 Ry
     estimated scf accuracy    <       0.00000475 Ry

     total magnetization       =     1.00 Bohr mag/cell
     absolute magnetization    =     1.53 Bohr mag/cell

     iteration # 22     ecut=    70.00 Ry     beta= 0.70
     Davidson diagonalization with overlap
     ethr =  4.98E-10,  avg # of iterations =  1.0

     negative rho (up, down):  3.406E-02 1.948E-03

     total cpu time spent up to now is     2498.8 secs

     total energy              =    -757.33361843 Ry
     Harris-Foulkes estimate   =    -757.33361825 Ry
     estimated scf accuracy    <       0.00000386 Ry

     total magnetization       =     1.00 Bohr mag/cell
     absolute magnetization    =     1.53 Bohr mag/cell

     iteration # 23     ecut=    70.00 Ry     beta= 0.70
     Davidson diagonalization with overlap
     ethr =  4.98E-10,  avg # of iterations =  2.0

     negative rho (up, down):  3.406E-02 1.947E-03

     total cpu time spent up to now is     2594.5 secs

     total energy              =    -757.33361849 Ry
     Harris-Foulkes estimate   =    -757.33361851 Ry
     estimated scf accuracy    <       0.00000158 Ry

     total magnetization       =     1.00 Bohr mag/cell
     absolute magnetization    =     1.53 Bohr mag/cell

     iteration # 24     ecut=    70.00 Ry     beta= 0.70
     Davidson diagonalization with overlap
     ethr =  4.98E-10,  avg # of iterations =  1.0

     negative rho (up, down):  3.405E-02 1.925E-03

     total cpu time spent up to now is     2687.9 secs

     total energy              =    -757.33361851 Ry
     Harris-Foulkes estimate   =    -757.33361851 Ry
     estimated scf accuracy    <       0.00000143 Ry

     total magnetization       =     1.00 Bohr mag/cell
     absolute magnetization    =     1.54 Bohr mag/cell

     iteration # 25     ecut=    70.00 Ry     beta= 0.70
     Davidson diagonalization with overlap
     ethr =  4.98E-10,  avg # of iterations =  1.0

     negative rho (up, down):  3.405E-02 1.926E-03

     Magnetic moment per site:
     atom:    1    charge:    0.2138    magn:   -0.0000    constr:    0.0000
     atom:    2    charge:    0.2081    magn:    0.0000    constr:    0.0000
     atom:    3    charge:    1.7174    magn:   -0.0072    constr:    0.0000
     atom:    4    charge:    1.7159    magn:    0.0105    constr:    0.0000
     atom:    5    charge:    1.7182    magn:   -0.0043    constr:    0.0000
     atom:    6    charge:    1.7141    magn:    0.0026    constr:    0.0000
     atom:    7    charge:    1.7183    magn:   -0.0041    constr:    0.0000
     atom:    8    charge:    1.7155    magn:    0.0086    constr:    0.0000
     atom:    9    charge:    1.7178    magn:   -0.0065    constr:    0.0000
     atom:   10    charge:    1.7140    magn:    0.0284    constr:    0.0000
     atom:   11    charge:    1.7186    magn:   -0.0089    constr:    0.0000
     atom:   12    charge:    1.7154    magn:    0.0357    constr:    0.0000
     atom:   13    charge:    1.7186    magn:   -0.0089    constr:    0.0000
     atom:   14    charge:    1.7142    magn:    0.0213    constr:    0.0000
     atom:   15    charge:    1.7169    magn:   -0.0080    constr:    0.0000
     atom:   16    charge:    1.7114    magn:    0.0315    constr:    0.0000
     atom:   17    charge:    1.7268    magn:   -0.0056    constr:    0.0000
     atom:   18    charge:    1.7114    magn:    0.0330    constr:    0.0000
     atom:   19    charge:    1.7168    magn:   -0.0083    constr:    0.0000
     atom:   20    charge:    1.7150    magn:    0.0265    constr:    0.0000
     atom:   21    charge:    1.7187    magn:   -0.0088    constr:    0.0000
     atom:   22    charge:    1.7140    magn:    0.0284    constr:    0.0000
     atom:   23    charge:    1.7178    magn:   -0.0065    constr:    0.0000
     atom:   24    charge:    1.7157    magn:    0.0088    constr:    0.0000
     atom:   25    charge:    1.7170    magn:   -0.0071    constr:    0.0000
     atom:   26    charge:    1.7104    magn:    0.0246    constr:    0.0000
     atom:   27    charge:    1.9149    magn:   -0.0009    constr:    0.0000
     atom:   28    charge:    7.8611    magn:    0.1016    constr:    0.0000
     atom:   29    charge:    1.9146    magn:    0.0004    constr:    0.0000
     atom:   30    charge:    1.7114    magn:    0.0330    constr:    0.0000
     atom:   31    charge:    1.7168    magn:   -0.0083    constr:    0.0000
     atom:   32    charge:    1.7155    magn:    0.0086    constr:    0.0000
     atom:   33    charge:    1.7183    magn:   -0.0041    constr:    0.0000
     atom:   34    charge:    1.7137    magn:    0.0063    constr:    0.0000
     atom:   35    charge:    1.7183    magn:   -0.0040    constr:    0.0000
     atom:   36    charge:    1.7141    magn:    0.0025    constr:    0.0000
     atom:   37    charge:    1.7271    magn:   -0.0044    constr:    0.0000
     atom:   38    charge:    1.7104    magn:    0.0246    constr:    0.0000
     atom:   39    charge:    1.9149    magn:   -0.0009    constr:    0.0000
     atom:   40    charge:    1.7114    magn:    0.0315    constr:    0.0000
     atom:   41    charge:    1.7268    magn:   -0.0056    constr:    0.0000
     atom:   42    charge:    1.7141    magn:    0.0026    constr:    0.0000
     atom:   43    charge:    1.7182    magn:   -0.0043    constr:    0.0000
     atom:   44    charge:    1.7140    magn:    0.0076    constr:    0.0000
     atom:   45    charge:    1.7245    magn:   -0.0030    constr:    0.0000
     atom:   46    charge:    1.7137    magn:    0.0063    constr:    0.0000
     atom:   47    charge:    1.7183    magn:   -0.0040    constr:    0.0000
     atom:   48    charge:    1.7157    magn:    0.0088    constr:    0.0000
     atom:   49    charge:    1.7170    magn:   -0.0071    constr:    0.0000
     atom:   50    charge:    1.7142    magn:    0.0213    constr:    0.0000
     atom:   51    charge:    1.7169    magn:   -0.0080    constr:    0.0000
     atom:   52    charge:    1.7159    magn:    0.0105    constr:    0.0000

     total cpu time spent up to now is     2780.9 secs

     End of self-consistent calculation

 ------ SPIN UP ------------


          k = 0.0000 0.0000 0.0000 ( 87777 PWs)   bands (ev):

   -62.8327 -37.9249 -37.9116 -36.5994 -19.6313 -18.7943 -18.7816 -18.7192
   -18.6759 -18.6694 -18.2368 -16.9354 -16.9313 -16.9310 -16.7985 -16.7929
   -16.5135 -16.0795 -16.0789 -15.9858 -15.8305 -15.8302 -15.0796 -13.8913
   -13.8883 -13.8810 -13.8591 -13.8579 -13.1308 -12.9146 -12.9130 -12.8959
   -12.5029 -12.5022 -12.1096 -11.6432 -11.6408 -11.5174 -11.1361 -11.1358
   -10.1486  -9.3348  -9.3331  -9.2533  -9.1792  -9.1782  -9.0892  -9.0651
    -9.0638  -9.0487  -8.4609  -8.4599  -7.8928  -7.8892  -7.8600  -7.8345
    -7.6733  -7.4421  -7.2493  -7.2487  -6.9614  -6.9220  -6.8876  -6.6962
    -6.6961  -6.6877  -6.5891  -6.5871  -6.5409  -6.4342  -6.4280  -6.3880
    -6.3841  -6.3797  -6.3303  -6.2357  -5.2581  -5.2545  -5.1581  -5.1400
    -4.9421  -4.9419  -4.8306  -4.7427  -4.6162  -4.6048  -4.6042  -4.2316
    -3.9841  -3.9806  -3.7565  -3.7546  -3.6556  -3.6216  -3.4956  -3.4949
    -2.8785  -2.2575  -2.2569  -2.2195  -2.2115  -1.7439  -1.6797  -1.6770
    -0.5300  -0.2387  -0.2354   0.9587   1.0528   1.0812   1.0862   1.7916
     2.0520   2.0547   2.5111   2.8965   2.9014   2.9781   3.4791   3.5056
     3.5124   3.7422   3.7512   3.7879   3.9033   4.0041   4.0052

     occupation numbers 
     1.0000   1.0000   1.0000   1.0000   1.0000   1.0000   1.0000   1.0000
     1.0000   1.0000   1.0000   1.0000   1.0000   1.0000   1.0000   1.0000
     1.0000   1.0000   1.0000   1.0000   1.0000   1.0000   1.0000   1.0000
     1.0000   1.0000   1.0000   1.0000   1.0000   1.0000   1.0000   1.0000
     1.0000   1.0000   1.0000   1.0000   1.0000   1.0000   1.0000   1.0000
     1.0000   1.0000   1.0000   1.0000   1.0000   1.0000   1.0000   1.0000
     1.0000   1.0000   1.0000   1.0000   1.0000   1.0000   1.0000   1.0000
     1.0000   1.0000   1.0000   1.0000   1.0000   1.0000   1.0000   1.0000
     1.0000   1.0000   1.0000   1.0000   1.0000   1.0000   1.0000   1.0000
     1.0000   1.0000   1.0000   1.0000   1.0000   1.0000   1.0000   1.0000
     1.0000   1.0000   1.0000   1.0000   1.0000   1.0000   1.0000   1.0000
     1.0000   1.0000   1.0000   1.0000   1.0000   1.0000   1.0000   1.0000
     1.0000   1.0000   1.0000   1.0000   1.0000   1.0000   1.0000   1.0000
     1.0000   0.5864   0.4136   0.0000   0.0000   0.0000   0.0000   0.0000
     0.0000   0.0000   0.0000   0.0000   0.0000   0.0000   0.0000   0.0000
     0.0000   0.0000   0.0000   0.0000   0.0000   0.0000   0.0000

 ------ SPIN DOWN ----------


          k = 0.0000 0.0000 0.0000 ( 87777 PWs)   bands (ev):

   -62.6365 -37.7777 -37.7352 -36.3311 -19.6095 -18.7744 -18.7583 -18.6990
   -18.6599 -18.6522 -18.2047 -16.9195 -16.9128 -16.9115 -16.7712 -16.7635
   -16.4993 -16.0528 -16.0513 -15.9699 -15.8095 -15.8090 -15.0648 -13.8573
   -13.8560 -13.8554 -13.8464 -13.8365 -13.1338 -12.9044 -12.9020 -12.8803
   -12.4951 -12.4937 -12.0913 -11.6247 -11.6236 -11.5042 -11.1244 -11.1226
   -10.1341  -9.3184  -9.3155  -9.2403  -9.1623  -9.1602  -9.0811  -9.0505
    -9.0501  -9.0393  -8.4545  -8.4527  -7.8814  -7.8775  -7.8511  -7.7878
    -7.6649  -7.4270  -7.2403  -7.2399  -6.8864  -6.8733  -6.8402  -6.6646
    -6.6592  -6.6424  -6.5776  -6.5760  -6.5312  -6.4249  -6.4182  -6.3826
    -6.3770  -6.3730  -6.3220  -6.1602  -5.2501  -5.2459  -5.0803  -5.0485
    -4.9323  -4.9319  -4.8248  -4.7367  -4.5751  -4.5551  -4.5511  -4.1942
    -3.9364  -3.9258  -3.6814  -3.6813  -3.6092  -3.5916  -3.4893  -3.4880
    -2.8446  -2.1939  -2.1854  -2.1559  -2.1439  -1.6635  -1.6635  -1.6477
    -0.5247  -0.0287   0.0075   1.0339   1.1028   1.1060   1.1312   1.8621
     2.1197   2.1277   2.5155   2.9676   2.9723   3.0196   3.4856   3.5125
     3.5369   3.7449   3.7526   3.7941   3.9340   4.0721   4.0793

     occupation numbers 
     1.0000   1.0000   1.0000   1.0000   1.0000   1.0000   1.0000   1.0000
     1.0000   1.0000   1.0000   1.0000   1.0000   1.0000   1.0000   1.0000
     1.0000   1.0000   1.0000   1.0000   1.0000   1.0000   1.0000   1.0000
     1.0000   1.0000   1.0000   1.0000   1.0000   1.0000   1.0000   1.0000
     1.0000   1.0000   1.0000   1.0000   1.0000   1.0000   1.0000   1.0000
     1.0000   1.0000   1.0000   1.0000   1.0000   1.0000   1.0000   1.0000
     1.0000   1.0000   1.0000   1.0000   1.0000   1.0000   1.0000   1.0000
     1.0000   1.0000   1.0000   1.0000   1.0000   1.0000   1.0000   1.0000
     1.0000   1.0000   1.0000   1.0000   1.0000   1.0000   1.0000   1.0000
     1.0000   1.0000   1.0000   1.0000   1.0000   1.0000   1.0000   1.0000
     1.0000   1.0000   1.0000   1.0000   1.0000   1.0000   1.0000   1.0000
     1.0000   1.0000   1.0000   1.0000   1.0000   1.0000   1.0000   1.0000
     1.0000   1.0000   1.0000   1.0000   1.0000   1.0000   1.0000   1.0000
     1.0000   0.0000   0.0000   0.0000   0.0000   0.0000   0.0000   0.0000
     0.0000   0.0000   0.0000   0.0000   0.0000   0.0000   0.0000   0.0000
     0.0000   0.0000   0.0000   0.0000   0.0000   0.0000   0.0000

     the Fermi energy is    -0.2352 ev

!    total energy              =    -757.33361799 Ry
     Harris-Foulkes estimate   =    -757.33361855 Ry
     estimated scf accuracy    <       0.00000094 Ry

     The total energy is the sum of the following terms:

     one-electron contribution =   -2591.37774682 Ry
     hartree contribution      =    1342.52655058 Ry
     xc contribution           =    -252.67939809 Ry
     ewald contribution        =     744.19729437 Ry
     smearing contrib. (-TS)   =      -0.00031803 Ry

     total magnetization       =     1.00 Bohr mag/cell
     absolute magnetization    =     1.54 Bohr mag/cell

     convergence has been achieved in  25 iterations

     Writing output data file distance-2.4.save/

     init_run     :     74.77s CPU     76.24s WALL (       1 calls)
     electrons    :   2654.54s CPU   2703.71s WALL (       1 calls)

     Called by init_run:
     wfcinit      :     43.44s CPU     43.73s WALL (       1 calls)
     wfcinit:atom :      0.05s CPU      0.08s WALL (       2 calls)
     wfcinit:wfcr :     43.02s CPU     43.23s WALL (       2 calls)
     potinit      :     13.16s CPU     13.70s WALL (       1 calls)
     hinit0       :      9.18s CPU      9.23s WALL (       1 calls)

     Called by electrons:
     c_bands      :   1731.69s CPU   1742.07s WALL (      25 calls)
     sum_band     :    535.32s CPU    551.02s WALL (      25 calls)
     v_of_rho     :    192.41s CPU    202.74s WALL (      26 calls)
     v_h          :      2.02s CPU      2.08s WALL (      26 calls)
     v_xc         :    190.39s CPU    200.66s WALL (      26 calls)
     newd         :    192.75s CPU    206.17s WALL (      26 calls)
     mix_rho      :     11.36s CPU     11.54s WALL (      25 calls)

     Called by c_bands:
     init_us_2    :      4.71s CPU      4.75s WALL (     102 calls)
     cegterg      :   1720.18s CPU   1730.47s WALL (      50 calls)

     Called by sum_band:
     sum_band:bec :      0.04s CPU      0.04s WALL (      50 calls)
     addusdens    :    329.06s CPU    343.41s WALL (      25 calls)

     Called by *egterg:
     h_psi        :    903.92s CPU    911.15s WALL (     235 calls)
     s_psi        :    302.52s CPU    302.72s WALL (     235 calls)
     g_psi        :      0.98s CPU      0.98s WALL (     183 calls)
     cdiaghg      :     17.89s CPU     17.90s WALL (     233 calls)
     cegterg:over :    214.67s CPU    214.81s WALL (     183 calls)
     cegterg:upda :    137.34s CPU    138.30s WALL (     183 calls)
     cegterg:last :     95.83s CPU     95.86s WALL (      51 calls)

     Called by h_psi:
     h_psi:pot    :    902.88s CPU    908.98s WALL (     235 calls)
     h_psi:calbec :    302.30s CPU    302.48s WALL (     235 calls)
     vloc_psi     :    298.24s CPU    303.99s WALL (     235 calls)
     add_vuspsi   :    302.34s CPU    302.50s WALL (     235 calls)

     General routines
     calbec       :    425.71s CPU    425.97s WALL (     285 calls)
     fft          :    108.74s CPU    112.76s WALL (    1944 calls)
     ffts         :      1.91s CPU      2.00s WALL (     102 calls)
     fftw         :    312.46s CPU    318.36s WALL (   37468 calls)
     interpolate  :      4.50s CPU      4.63s WALL (      52 calls)

     Parallel routines
     fft_scatt_xy :     77.75s CPU     78.80s WALL (   39514 calls)
     fft_scatt_yz :    135.28s CPU    142.20s WALL (   39514 calls)

     PWSCF        :  45m30.65s CPU  46m21.72s WALL


   This run was terminated on:  15:27: 9  23Aug2022            

=------------------------------------------------------------------------------=
   JOB DONE.
=------------------------------------------------------------------------------=
