
     Program PWSCF v.6.4.1 starts on 23Aug2022 at 14:10:47 

     This program is part of the open-source Quantum ESPRESSO suite
     for quantum simulation of materials; please cite
         "P. Giannozzi et al., J. Phys.:Condens. Matter 21 395502 (2009);
         "P. Giannozzi et al., J. Phys.:Condens. Matter 29 465901 (2017);
          URL http://www.quantum-espresso.org", 
     in publications or presentations arising from this work. More details at
     http://www.quantum-espresso.org/quote

     Parallel version (MPI), running on     6 processors

     MPI processes distributed on     1 nodes
     R & G space division:  proc/nbgrp/npool/nimage =       6
     Reading input from distance-2.6.in

     Current dimensions of program PWSCF are:
     Max number of different atomic species (ntypx) = 10
     Max number of k-points (npk) =  40000
     Max angular momentum in pseudopotentials (lmaxx) =  3

     IMPORTANT: XC functional enforced from input :
     Exchange-correlation      = RVV10 ( 1  4 13  4 3 0)
     Any further DFT definition will be discarded
     Please, verify this is what you really want

               file H.pbe-rrkjus.UPF: wavefunction(s)  1S renormalized
               file V.pbe-spnl-rrkjus_psl.1.0.0.UPF: wavefunction(s)  3P 3D renormalized

     Subspace diagonalization in iterative solution of the eigenvalue problem:
     a serial algorithm will be used


     Parallelization info
     --------------------
     sticks:   dense  smooth     PW     G-vecs:    dense   smooth      PW
     Min        3051    1746    432               270999   117096   14629
     Max        3053    1747    437               271001   117099   14630
     Sum       18313   10477   2611              1626001   702581   87777



     bravais-lattice index     =            4
     lattice parameter (alat)  =      23.2937  a.u.
     unit-cell volume          =    8879.8548 (a.u.)^3
     number of atoms/cell      =           52
     number of atomic types    =            3
     number of electrons       =       211.00
     number of Kohn-Sham states=          127
     kinetic-energy cutoff     =      70.0000  Ry
     charge density cutoff     =     490.0000  Ry
     convergence threshold     =      1.0E-06
     mixing beta               =       0.7000
     number of iterations used =            8  plain     mixing
     Exchange-correlation      = RVV10 ( 1  4 13  4 3 0)

     celldm(1)=  23.293684  celldm(2)=   0.000000  celldm(3)=   0.811261
     celldm(4)=   0.000000  celldm(5)=   0.000000  celldm(6)=   0.000000

     crystal axes: (cart. coord. in units of alat)
               a(1) = (   1.000000   0.000000   0.000000 )  
               a(2) = (  -0.500000   0.866025   0.000000 )  
               a(3) = (   0.000000   0.000000   0.811261 )  

     reciprocal axes: (cart. coord. in units 2 pi/alat)
               b(1) = (  1.000000  0.577350 -0.000000 )  
               b(2) = (  0.000000  1.154701  0.000000 )  
               b(3) = (  0.000000 -0.000000  1.232649 )  


     PseudoPot. # 1 for H  read from file:
     /home/cristian/Escritorio/Proyecto_Grafeno/pseudopotenciales/H.pbe-rrkjus.UPF
     MD5 check sum: 7cc9d459525c9a0585f487a71c3c9563
     Pseudo is Ultrasoft, Zval =  1.0
     Generated by new atomic code, or converted to UPF format
     Using radial grid of 1061 points,  2 beta functions with: 
                l(1) =   0
                l(2) =   0
     Q(r) pseudized with 0 coefficients 


     PseudoPot. # 2 for C  read from file:
     /home/cristian/Escritorio/Proyecto_Grafeno/pseudopotenciales/C.pbe-n-rrkjus_psl.1.0.0.UPF
     MD5 check sum: 1fdd950c42eb37d8afe3dd2f8d12311e
     Pseudo is Ultrasoft + core correction, Zval =  4.0
     Generated using "atomic" code by A. Dal Corso v.6.3MaX
     Using radial grid of 1073 points,  4 beta functions with: 
                l(1) =   0
                l(2) =   0
                l(3) =   1
                l(4) =   1
     Q(r) pseudized with 0 coefficients 


     PseudoPot. # 3 for V  read from file:
     /home/cristian/Escritorio/Proyecto_Grafeno/pseudopotenciales/V.pbe-spnl-rrkjus_psl.1.0.0.UPF
     MD5 check sum: 79b3eb63147daf0b665d9f1bcc691206
     Pseudo is Ultrasoft + core correction, Zval = 13.0
     Generated using "atomic" code by A. Dal Corso v.6.2.2
     Using radial grid of 1181 points,  6 beta functions with: 
                l(1) =   0
                l(2) =   0
                l(3) =   1
                l(4) =   1
                l(5) =   2
                l(6) =   2
     Q(r) pseudized with 0 coefficients 


     vdW kernel table read from file rVV10_kernel_table
     MD5 check sum: b8e2538accc0c0b3206b45ba4daaba6c

     atomic species   valence    mass     pseudopotential
        H              1.00     1.00794     H ( 1.00)
        C              4.00    12.01070     C ( 1.00)
        V             13.00    50.94150     V ( 1.00)

     Starting magnetic structure 
     atomic species   magnetization
        H            0.500
        C            0.300
        V            0.800

      2 Sym. Ops. (no inversion) found


                                    s                        frac. trans.

      isym =  1     identity                                     

 cryst.   s( 1) = (     1          0          0      )
                  (     0          1          0      )
                  (     0          0          1      )

 cart.    s( 1) = (  1.0000000  0.0000000  0.0000000 )
                  (  0.0000000  1.0000000  0.0000000 )
                  (  0.0000000  0.0000000  1.0000000 )


      isym =  2     inv. 180 deg rotation - cryst. axis [1,1,0]  

 cryst.   s( 2) = (     0         -1          0      )
                  (    -1          0          0      )
                  (     0          0          1      )

 cart.    s( 2) = (  0.5000000 -0.8660254  0.0000000 )
                  ( -0.8660254 -0.5000000  0.0000000 )
                  (  0.0000000  0.0000000  1.0000000 )


     point group C_s (m)    
     there are  2 classes
     the character table:

       E     s    
A'     1.00  1.00
A''    1.00 -1.00

     the symmetry operations in each class and the name of the first element:

     E        1
          identity                                               
     s        2
          inv. 180 deg rotation - cryst. axis [1,1,0]            

   Cartesian axes

     site n.     atom                  positions (alat units)
         1           H   tau(   1) = (   0.2500000   0.4330127   0.2109279  )
         2           H   tau(   2) = (   0.2500000   0.4330127   0.2719406  )
         3           C   tau(   3) = (   0.0000000   0.0000000   0.0000000  )
         4           C   tau(   4) = (   0.0000000   0.1154701   0.0000000  )
         5           C   tau(   5) = (  -0.1000000   0.1732051   0.0000000  )
         6           C   tau(   6) = (  -0.1000000   0.2886751   0.0000000  )
         7           C   tau(   7) = (  -0.2000000   0.3464102   0.0000000  )
         8           C   tau(   8) = (  -0.2000000   0.4618802   0.0000000  )
         9           C   tau(   9) = (  -0.3000000   0.5196152   0.0000000  )
        10           C   tau(  10) = (  -0.3000000   0.6350853   0.0000000  )
        11           C   tau(  11) = (  -0.4000000   0.6928203   0.0000000  )
        12           C   tau(  12) = (  -0.4000000   0.8082904   0.0000000  )
        13           C   tau(  13) = (   0.2000000   0.0000000   0.0000000  )
        14           C   tau(  14) = (   0.2000000   0.1154701   0.0000000  )
        15           C   tau(  15) = (   0.1000000   0.1732051   0.0000000  )
        16           C   tau(  16) = (   0.1000000   0.2886751   0.0000000  )
        17           C   tau(  17) = (   0.0000000   0.3464102   0.0000000  )
        18           C   tau(  18) = (   0.0000000   0.4618802   0.0000000  )
        19           C   tau(  19) = (  -0.1000000   0.5196152   0.0000000  )
        20           C   tau(  20) = (  -0.1000000   0.6350853   0.0000000  )
        21           C   tau(  21) = (  -0.2000000   0.6928203   0.0000000  )
        22           C   tau(  22) = (  -0.2000000   0.8082904   0.0000000  )
        23           C   tau(  23) = (   0.4000000   0.0000000   0.0000000  )
        24           C   tau(  24) = (   0.4000000   0.1154701   0.0000000  )
        25           C   tau(  25) = (   0.3000000   0.1732051   0.0000000  )
        26           C   tau(  26) = (   0.3000000   0.2886751   0.0000000  )
        27           C   tau(  27) = (   0.2000000   0.3464102   0.0000000  )
        28           V   tau(  28) = (   0.2000000   0.4618802   0.0000000  )
        29           C   tau(  29) = (   0.1000000   0.5196152   0.0000000  )
        30           C   tau(  30) = (   0.1000000   0.6350853   0.0000000  )
        31           C   tau(  31) = (   0.0000000   0.6928203   0.0000000  )
        32           C   tau(  32) = (   0.0000000   0.8082904   0.0000000  )
        33           C   tau(  33) = (   0.6000000   0.0000000   0.0000000  )
        34           C   tau(  34) = (   0.6000000   0.1154701   0.0000000  )
        35           C   tau(  35) = (   0.5000000   0.1732051   0.0000000  )
        36           C   tau(  36) = (   0.5000000   0.2886751   0.0000000  )
        37           C   tau(  37) = (   0.4000000   0.3464102   0.0000000  )
        38           C   tau(  38) = (   0.4000000   0.4618802   0.0000000  )
        39           C   tau(  39) = (   0.3000000   0.5196152   0.0000000  )
        40           C   tau(  40) = (   0.3000000   0.6350853   0.0000000  )
        41           C   tau(  41) = (   0.2000000   0.6928203   0.0000000  )
        42           C   tau(  42) = (   0.2000000   0.8082904   0.0000000  )
        43           C   tau(  43) = (   0.8000000   0.0000000   0.0000000  )
        44           C   tau(  44) = (   0.8000000   0.1154701   0.0000000  )
        45           C   tau(  45) = (   0.7000000   0.1732051   0.0000000  )
        46           C   tau(  46) = (   0.7000000   0.2886751   0.0000000  )
        47           C   tau(  47) = (   0.6000000   0.3464102   0.0000000  )
        48           C   tau(  48) = (   0.6000000   0.4618802   0.0000000  )
        49           C   tau(  49) = (   0.5000000   0.5196152   0.0000000  )
        50           C   tau(  50) = (   0.5000000   0.6350853   0.0000000  )
        51           C   tau(  51) = (   0.4000000   0.6928203   0.0000000  )
        52           C   tau(  52) = (   0.4000000   0.8082904   0.0000000  )

   Crystallographic axes

     site n.     atom                  positions (cryst. coord.)
         1           H   tau(   1) = (  0.5000000  0.5000000  0.2600000  )
         2           H   tau(   2) = (  0.5000000  0.5000000  0.3352072  )
         3           C   tau(   3) = (  0.0000000  0.0000000  0.0000000  )
         4           C   tau(   4) = (  0.0666667  0.1333333  0.0000000  )
         5           C   tau(   5) = (  0.0000000  0.2000000  0.0000000  )
         6           C   tau(   6) = (  0.0666667  0.3333333  0.0000000  )
         7           C   tau(   7) = (  0.0000000  0.4000000  0.0000000  )
         8           C   tau(   8) = (  0.0666667  0.5333333  0.0000000  )
         9           C   tau(   9) = (  0.0000000  0.6000000  0.0000000  )
        10           C   tau(  10) = (  0.0666667  0.7333333  0.0000000  )
        11           C   tau(  11) = (  0.0000000  0.8000000  0.0000000  )
        12           C   tau(  12) = (  0.0666667  0.9333333  0.0000000  )
        13           C   tau(  13) = (  0.2000000  0.0000000  0.0000000  )
        14           C   tau(  14) = (  0.2666667  0.1333333  0.0000000  )
        15           C   tau(  15) = (  0.2000000  0.2000000  0.0000000  )
        16           C   tau(  16) = (  0.2666667  0.3333333  0.0000000  )
        17           C   tau(  17) = (  0.2000000  0.4000000  0.0000000  )
        18           C   tau(  18) = (  0.2666667  0.5333333  0.0000000  )
        19           C   tau(  19) = (  0.2000000  0.6000000  0.0000000  )
        20           C   tau(  20) = (  0.2666667  0.7333333  0.0000000  )
        21           C   tau(  21) = (  0.2000000  0.8000000  0.0000000  )
        22           C   tau(  22) = (  0.2666667  0.9333333  0.0000000  )
        23           C   tau(  23) = (  0.4000000  0.0000000  0.0000000  )
        24           C   tau(  24) = (  0.4666667  0.1333333  0.0000000  )
        25           C   tau(  25) = (  0.4000000  0.2000000  0.0000000  )
        26           C   tau(  26) = (  0.4666667  0.3333333  0.0000000  )
        27           C   tau(  27) = (  0.4000000  0.4000000  0.0000000  )
        28           V   tau(  28) = (  0.4666667  0.5333333  0.0000000  )
        29           C   tau(  29) = (  0.4000000  0.6000000  0.0000000  )
        30           C   tau(  30) = (  0.4666667  0.7333333  0.0000000  )
        31           C   tau(  31) = (  0.4000000  0.8000000  0.0000000  )
        32           C   tau(  32) = (  0.4666667  0.9333333  0.0000000  )
        33           C   tau(  33) = (  0.6000000  0.0000000  0.0000000  )
        34           C   tau(  34) = (  0.6666667  0.1333333  0.0000000  )
        35           C   tau(  35) = (  0.6000000  0.2000000  0.0000000  )
        36           C   tau(  36) = (  0.6666667  0.3333333  0.0000000  )
        37           C   tau(  37) = (  0.6000000  0.4000000  0.0000000  )
        38           C   tau(  38) = (  0.6666667  0.5333333  0.0000000  )
        39           C   tau(  39) = (  0.6000000  0.6000000  0.0000000  )
        40           C   tau(  40) = (  0.6666667  0.7333333  0.0000000  )
        41           C   tau(  41) = (  0.6000000  0.8000000  0.0000000  )
        42           C   tau(  42) = (  0.6666667  0.9333333  0.0000000  )
        43           C   tau(  43) = (  0.8000000  0.0000000  0.0000000  )
        44           C   tau(  44) = (  0.8666667  0.1333333  0.0000000  )
        45           C   tau(  45) = (  0.8000000  0.2000000  0.0000000  )
        46           C   tau(  46) = (  0.8666667  0.3333333  0.0000000  )
        47           C   tau(  47) = (  0.8000000  0.4000000  0.0000000  )
        48           C   tau(  48) = (  0.8666667  0.5333333  0.0000000  )
        49           C   tau(  49) = (  0.8000000  0.6000000  0.0000000  )
        50           C   tau(  50) = (  0.8666667  0.7333333  0.0000000  )
        51           C   tau(  51) = (  0.8000000  0.8000000  0.0000000  )
        52           C   tau(  52) = (  0.8666667  0.9333333  0.0000000  )

     number of k points=     1  Marzari-Vanderbilt smearing, width (Ry)=  0.0010
                       cart. coord. in units 2pi/alat
        k(    1) = (   0.0000000   0.0000000   0.0000000), wk =   1.0000000

                       cryst. coord.
        k(    1) = (   0.0000000   0.0000000   0.0000000), wk =   1.0000000

     Dense  grid:  1626001 G-vectors     FFT dimensions: ( 180, 180, 135)

     Smooth grid:   702581 G-vectors     FFT dimensions: ( 125, 125, 108)

     Dynamical RAM for                 wfc:      28.36 MB

     Dynamical RAM for     wfc (w. buffer):      85.09 MB

     Dynamical RAM for           str. fact:      12.41 MB

     Dynamical RAM for           local pot:       0.00 MB

     Dynamical RAM for          nlocal pot:      92.46 MB

     Dynamical RAM for                qrad:      19.73 MB

     Dynamical RAM for          rho,v,vnew:      58.92 MB

     Dynamical RAM for               rhoin:      19.64 MB

     Dynamical RAM for            rho*nmix:     132.32 MB

     Dynamical RAM for           G-vectors:      16.40 MB

     Dynamical RAM for          h,s,v(r/c):      11.81 MB

     Dynamical RAM for          <psi|beta>:       0.80 MB

     Dynamical RAM for                 psi:     113.46 MB

     Dynamical RAM for                hpsi:     113.46 MB

     Dynamical RAM for                spsi:     113.46 MB

     Dynamical RAM for      wfcinit/wfcrot:      93.90 MB

     Dynamical RAM for           addusdens:     975.89 MB

     Estimated static dynamical RAM per process >     487.63 MB

     Estimated max dynamical RAM per process >       1.43 GB

     Estimated total dynamical RAM >       8.58 GB
     Generating pointlists ...
     new r_m :   0.0252 (alat units)  0.5862 (a.u.) for type    1
     new r_m :   0.0476 (alat units)  1.1095 (a.u.) for type    2
     new r_m :   0.0476 (alat units)  1.1095 (a.u.) for type    3

     Check: negative core charge=   -0.000002

     Initial potential from superposition of free atoms

     starting charge  210.80465, renormalised to  211.00000

     negative rho (up, down):  1.169E-04 1.550E-02


---------------------------------------------------------------------------------
Carrying out rVV10 run using the following parameters:
Nqs =      20    Nr_points =    1024   r_max =   100.000
b_value =  6.30000    beta =  0.00901
     q_mesh =  0.00010000  0.00030000  0.00058939  0.00100810
               0.00161396  0.00249058  0.00375900  0.00559430
               0.00824984  0.01209221  0.01765183  0.02569619
               0.03733578  0.05417739  0.07854596  0.11380545
               0.16482331  0.23864234  0.34545298  0.50000000

Gradients computed in Reciprocal space

---------------------------------------------------------------------------------


     Starting wfcs are  208 randomized atomic wfcs

     total cpu time spent up to now is       74.9 secs

     Self-consistent Calculation

     iteration #  1     ecut=    70.00 Ry     beta= 0.70
     Davidson diagonalization with overlap
     ethr =  1.00E-02,  avg # of iterations =  3.0

     negative rho (up, down):  2.493E-04 1.249E-02

     total cpu time spent up to now is      205.3 secs

     total energy              =    -753.15786003 Ry
     Harris-Foulkes estimate   =    -756.94356549 Ry
     estimated scf accuracy    <      11.62202718 Ry

     total magnetization       =     5.00 Bohr mag/cell
     absolute magnetization    =     6.06 Bohr mag/cell

     iteration #  2     ecut=    70.00 Ry     beta= 0.70
     Davidson diagonalization with overlap
     ethr =  5.51E-03,  avg # of iterations =  7.5

     negative rho (up, down):  3.851E-03 1.699E-01

     total cpu time spent up to now is      328.2 secs

     total energy              =    -746.75689928 Ry
     Harris-Foulkes estimate   =    -767.28100205 Ry
     estimated scf accuracy    <      70.83417254 Ry

     total magnetization       =     3.00 Bohr mag/cell
     absolute magnetization    =     3.35 Bohr mag/cell

     iteration #  3     ecut=    70.00 Ry     beta= 0.70
     Davidson diagonalization with overlap
     ethr =  5.51E-03,  avg # of iterations =  5.5

     negative rho (up, down):  1.030E-03 2.292E-02

     total cpu time spent up to now is      501.4 secs

     total energy              =    -755.75646971 Ry
     Harris-Foulkes estimate   =    -758.17370231 Ry
     estimated scf accuracy    <      11.29004224 Ry

     total magnetization       =     5.00 Bohr mag/cell
     absolute magnetization    =     5.77 Bohr mag/cell

     iteration #  4     ecut=    70.00 Ry     beta= 0.70
     Davidson diagonalization with overlap
     ethr =  5.35E-03,  avg # of iterations =  3.5

     negative rho (up, down):  4.518E-02 1.936E-02

     total cpu time spent up to now is      597.0 secs

     total energy              =    -757.07164587 Ry
     Harris-Foulkes estimate   =    -757.48572965 Ry
     estimated scf accuracy    <       1.23958671 Ry

     total magnetization       =     1.00 Bohr mag/cell
     absolute magnetization    =     1.73 Bohr mag/cell

     iteration #  5     ecut=    70.00 Ry     beta= 0.70
     Davidson diagonalization with overlap
     ethr =  5.87E-04,  avg # of iterations =  8.0

     negative rho (up, down):  5.203E-02 1.650E-02

     total cpu time spent up to now is      712.7 secs

     total energy              =    -757.22203723 Ry
     Harris-Foulkes estimate   =    -757.32028169 Ry
     estimated scf accuracy    <       0.31500619 Ry

     total magnetization       =     0.96 Bohr mag/cell
     absolute magnetization    =     1.48 Bohr mag/cell

     iteration #  6     ecut=    70.00 Ry     beta= 0.70
     Davidson diagonalization with overlap
     ethr =  1.49E-04,  avg # of iterations =  4.5

     negative rho (up, down):  2.955E-02 1.695E-02

     total cpu time spent up to now is      822.0 secs

     total energy              =    -757.29162383 Ry
     Harris-Foulkes estimate   =    -757.32764693 Ry
     estimated scf accuracy    <       0.22507456 Ry

     total magnetization       =     1.00 Bohr mag/cell
     absolute magnetization    =     1.45 Bohr mag/cell

     iteration #  7     ecut=    70.00 Ry     beta= 0.70
     Davidson diagonalization with overlap
     ethr =  1.07E-04,  avg # of iterations =  3.0

     negative rho (up, down):  3.119E-02 1.445E-02

     total cpu time spent up to now is      920.5 secs

     total energy              =    -757.32057715 Ry
     Harris-Foulkes estimate   =    -757.32567308 Ry
     estimated scf accuracy    <       0.03575782 Ry

     total magnetization       =     1.00 Bohr mag/cell
     absolute magnetization    =     1.37 Bohr mag/cell

     iteration #  8     ecut=    70.00 Ry     beta= 0.70
     Davidson diagonalization with overlap
     ethr =  1.69E-05,  avg # of iterations =  6.0

     negative rho (up, down):  3.098E-02 2.367E-02

     total cpu time spent up to now is     1039.0 secs

     total energy              =    -757.32692723 Ry
     Harris-Foulkes estimate   =    -757.33379101 Ry
     estimated scf accuracy    <       0.04125449 Ry

     total magnetization       =     1.00 Bohr mag/cell
     absolute magnetization    =     1.39 Bohr mag/cell

     iteration #  9     ecut=    70.00 Ry     beta= 0.70
     Davidson diagonalization with overlap
     ethr =  1.69E-05,  avg # of iterations =  3.0

     negative rho (up, down):  3.341E-02 1.929E-02

     total cpu time spent up to now is     1137.0 secs

     total energy              =    -757.33141601 Ry
     Harris-Foulkes estimate   =    -757.33201771 Ry
     estimated scf accuracy    <       0.00555807 Ry

     total magnetization       =     1.00 Bohr mag/cell
     absolute magnetization    =     1.39 Bohr mag/cell

     iteration # 10     ecut=    70.00 Ry     beta= 0.70
     Davidson diagonalization with overlap
     ethr =  2.63E-06,  avg # of iterations =  5.5

     negative rho (up, down):  3.430E-02 1.448E-02

     total cpu time spent up to now is     1239.6 secs

     total energy              =    -757.33228254 Ry
     Harris-Foulkes estimate   =    -757.33249139 Ry
     estimated scf accuracy    <       0.00414503 Ry

     total magnetization       =     1.00 Bohr mag/cell
     absolute magnetization    =     1.41 Bohr mag/cell

     iteration # 11     ecut=    70.00 Ry     beta= 0.70
     Davidson diagonalization with overlap
     ethr =  1.96E-06,  avg # of iterations =  3.0

     negative rho (up, down):  3.323E-02 4.017E-03

     total cpu time spent up to now is     1335.2 secs

     total energy              =    -757.33362982 Ry
     Harris-Foulkes estimate   =    -757.33259362 Ry
     estimated scf accuracy    <       0.00020826 Ry

     total magnetization       =     1.00 Bohr mag/cell
     absolute magnetization    =     1.43 Bohr mag/cell

     iteration # 12     ecut=    70.00 Ry     beta= 0.70
     Davidson diagonalization with overlap
     ethr =  9.87E-08,  avg # of iterations =  4.0

     negative rho (up, down):  3.371E-02 2.889E-03

     total cpu time spent up to now is     1461.2 secs

     total energy              =    -757.33371759 Ry
     Harris-Foulkes estimate   =    -757.33372564 Ry
     estimated scf accuracy    <       0.00011347 Ry

     total magnetization       =     1.00 Bohr mag/cell
     absolute magnetization    =     1.46 Bohr mag/cell

     iteration # 13     ecut=    70.00 Ry     beta= 0.70
     Davidson diagonalization with overlap
     ethr =  5.38E-08,  avg # of iterations =  3.0

     negative rho (up, down):  3.398E-02 3.525E-03

     total cpu time spent up to now is     1566.2 secs

     total energy              =    -757.33374464 Ry
     Harris-Foulkes estimate   =    -757.33374851 Ry
     estimated scf accuracy    <       0.00002016 Ry

     total magnetization       =     1.00 Bohr mag/cell
     absolute magnetization    =     1.48 Bohr mag/cell

     iteration # 14     ecut=    70.00 Ry     beta= 0.70
     Davidson diagonalization with overlap
     ethr =  9.56E-09,  avg # of iterations =  3.5

     negative rho (up, down):  3.404E-02 2.687E-03

     total cpu time spent up to now is     1675.8 secs

     total energy              =    -757.33375289 Ry
     Harris-Foulkes estimate   =    -757.33375011 Ry
     estimated scf accuracy    <       0.00000279 Ry

     total magnetization       =     1.00 Bohr mag/cell
     absolute magnetization    =     1.49 Bohr mag/cell

     iteration # 15     ecut=    70.00 Ry     beta= 0.70
     Davidson diagonalization with overlap
     ethr =  1.32E-09,  avg # of iterations =  4.0

     negative rho (up, down):  3.406E-02 1.837E-03

     Magnetic moment per site:
     atom:    1    charge:    0.2128    magn:   -0.0000    constr:    0.0000
     atom:    2    charge:    0.2087    magn:    0.0000    constr:    0.0000
     atom:    3    charge:    1.7174    magn:   -0.0066    constr:    0.0000
     atom:    4    charge:    1.7158    magn:    0.0097    constr:    0.0000
     atom:    5    charge:    1.7182    magn:   -0.0040    constr:    0.0000
     atom:    6    charge:    1.7141    magn:    0.0023    constr:    0.0000
     atom:    7    charge:    1.7183    magn:   -0.0038    constr:    0.0000
     atom:    8    charge:    1.7156    magn:    0.0084    constr:    0.0000
     atom:    9    charge:    1.7177    magn:   -0.0060    constr:    0.0000
     atom:   10    charge:    1.7142    magn:    0.0287    constr:    0.0000
     atom:   11    charge:    1.7186    magn:   -0.0083    constr:    0.0000
     atom:   12    charge:    1.7149    magn:    0.0337    constr:    0.0000
     atom:   13    charge:    1.7186    magn:   -0.0083    constr:    0.0000
     atom:   14    charge:    1.7144    magn:    0.0214    constr:    0.0000
     atom:   15    charge:    1.7169    magn:   -0.0075    constr:    0.0000
     atom:   16    charge:    1.7113    magn:    0.0307    constr:    0.0000
     atom:   17    charge:    1.7268    magn:   -0.0052    constr:    0.0000
     atom:   18    charge:    1.7113    magn:    0.0317    constr:    0.0000
     atom:   19    charge:    1.7168    magn:   -0.0078    constr:    0.0000
     atom:   20    charge:    1.7147    magn:    0.0249    constr:    0.0000
     atom:   21    charge:    1.7187    magn:   -0.0082    constr:    0.0000
     atom:   22    charge:    1.7142    magn:    0.0287    constr:    0.0000
     atom:   23    charge:    1.7177    magn:   -0.0060    constr:    0.0000
     atom:   24    charge:    1.7157    magn:    0.0085    constr:    0.0000
     atom:   25    charge:    1.7170    magn:   -0.0068    constr:    0.0000
     atom:   26    charge:    1.7107    magn:    0.0259    constr:    0.0000
     atom:   27    charge:    1.9148    magn:   -0.0006    constr:    0.0000
     atom:   28    charge:    7.8613    magn:    0.1020    constr:    0.0000
     atom:   29    charge:    1.9146    magn:    0.0001    constr:    0.0000
     atom:   30    charge:    1.7113    magn:    0.0317    constr:    0.0000
     atom:   31    charge:    1.7168    magn:   -0.0078    constr:    0.0000
     atom:   32    charge:    1.7156    magn:    0.0084    constr:    0.0000
     atom:   33    charge:    1.7183    magn:   -0.0038    constr:    0.0000
     atom:   34    charge:    1.7138    magn:    0.0062    constr:    0.0000
     atom:   35    charge:    1.7183    magn:   -0.0037    constr:    0.0000
     atom:   36    charge:    1.7141    magn:    0.0022    constr:    0.0000
     atom:   37    charge:    1.7270    magn:   -0.0043    constr:    0.0000
     atom:   38    charge:    1.7107    magn:    0.0259    constr:    0.0000
     atom:   39    charge:    1.9148    magn:   -0.0006    constr:    0.0000
     atom:   40    charge:    1.7113    magn:    0.0307    constr:    0.0000
     atom:   41    charge:    1.7268    magn:   -0.0052    constr:    0.0000
     atom:   42    charge:    1.7141    magn:    0.0023    constr:    0.0000
     atom:   43    charge:    1.7182    magn:   -0.0040    constr:    0.0000
     atom:   44    charge:    1.7139    magn:    0.0070    constr:    0.0000
     atom:   45    charge:    1.7244    magn:   -0.0028    constr:    0.0000
     atom:   46    charge:    1.7138    magn:    0.0062    constr:    0.0000
     atom:   47    charge:    1.7183    magn:   -0.0037    constr:    0.0000
     atom:   48    charge:    1.7157    magn:    0.0085    constr:    0.0000
     atom:   49    charge:    1.7170    magn:   -0.0068    constr:    0.0000
     atom:   50    charge:    1.7144    magn:    0.0214    constr:    0.0000
     atom:   51    charge:    1.7169    magn:   -0.0075    constr:    0.0000
     atom:   52    charge:    1.7158    magn:    0.0097    constr:    0.0000

     total cpu time spent up to now is     1799.1 secs

     End of self-consistent calculation

 ------ SPIN UP ------------


          k = 0.0000 0.0000 0.0000 ( 87777 PWs)   bands (ev):

   -62.8415 -37.9313 -37.9216 -36.6083 -19.6348 -18.7963 -18.7869 -18.7225
   -18.6785 -18.6743 -18.2410 -16.9383 -16.9352 -16.9351 -16.8017 -16.7973
   -16.5168 -16.0835 -16.0830 -15.9893 -15.8343 -15.8339 -15.0833 -13.8952
   -13.8911 -13.8856 -13.8626 -13.8620 -13.1348 -12.9182 -12.9169 -12.8997
   -12.5068 -12.5060 -12.1131 -11.6468 -11.6452 -11.5213 -11.1400 -11.1397
   -10.1515  -9.3388  -9.3376  -9.2576  -9.1830  -9.1821  -9.0927  -9.0685
    -9.0675  -9.0521  -8.4644  -8.4634  -7.8958  -7.8936  -7.8607  -7.8175
    -7.6775  -7.2778  -7.2528  -7.2429  -6.9640  -6.9282  -6.8926  -6.6999
    -6.6994  -6.6923  -6.5926  -6.5913  -6.5452  -6.4369  -6.4328  -6.3913
    -6.3874  -6.3843  -6.3338  -6.2596  -5.2614  -5.2587  -5.1600  -5.1492
    -4.9460  -4.9457  -4.8344  -4.7466  -4.6195  -4.6083  -4.6075  -4.2383
    -3.9869  -3.9844  -3.7599  -3.7585  -3.6588  -3.6283  -3.4992  -3.4986
    -2.8892  -2.2606  -2.2602  -2.2249  -2.2195  -1.7474  -1.6827  -1.6812
    -0.5397  -0.2400  -0.2379   0.9098   1.0490   1.0787   1.0820   1.7874
     2.0491   2.0506   2.5274   2.8940   2.8974   2.9747   3.4798   3.5055
     3.5061   3.7427   3.7519   3.7877   3.9011   4.0012   4.0012

     occupation numbers 
     1.0000   1.0000   1.0000   1.0000   1.0000   1.0000   1.0000   1.0000
     1.0000   1.0000   1.0000   1.0000   1.0000   1.0000   1.0000   1.0000
     1.0000   1.0000   1.0000   1.0000   1.0000   1.0000   1.0000   1.0000
     1.0000   1.0000   1.0000   1.0000   1.0000   1.0000   1.0000   1.0000
     1.0000   1.0000   1.0000   1.0000   1.0000   1.0000   1.0000   1.0000
     1.0000   1.0000   1.0000   1.0000   1.0000   1.0000   1.0000   1.0000
     1.0000   1.0000   1.0000   1.0000   1.0000   1.0000   1.0000   1.0000
     1.0000   1.0000   1.0000   1.0000   1.0000   1.0000   1.0000   1.0000
     1.0000   1.0000   1.0000   1.0000   1.0000   1.0000   1.0000   1.0000
     1.0000   1.0000   1.0000   1.0000   1.0000   1.0000   1.0000   1.0000
     1.0000   1.0000   1.0000   1.0000   1.0000   1.0000   1.0000   1.0000
     1.0000   1.0000   1.0000   1.0000   1.0000   1.0000   1.0000   1.0000
     1.0000   1.0000   1.0000   1.0000   1.0000   1.0000   1.0000   1.0000
     1.0000   0.5568   0.4432   0.0000   0.0000   0.0000   0.0000   0.0000
     0.0000   0.0000   0.0000   0.0000   0.0000   0.0000   0.0000   0.0000
     0.0000   0.0000   0.0000   0.0000   0.0000   0.0000   0.0000

 ------ SPIN DOWN ----------


          k = 0.0000 0.0000 0.0000 ( 87777 PWs)   bands (ev):

   -62.6447 -37.7796 -37.7485 -36.3392 -19.6131 -18.7759 -18.7640 -18.7024
   -18.6624 -18.6573 -18.2092 -16.9220 -16.9173 -16.9156 -16.7742 -16.7683
   -16.5028 -16.0565 -16.0554 -15.9737 -15.8137 -15.8132 -15.0688 -13.8601
   -13.8589 -13.8587 -13.8509 -13.8430 -13.1371 -12.9080 -12.9061 -12.8841
   -12.4986 -12.4974 -12.0950 -11.6285 -11.6278 -11.5081 -11.1281 -11.1268
   -10.1372  -9.3223  -9.3202  -9.2446  -9.1659  -9.1643  -9.0847  -9.0541
    -9.0539  -9.0428  -8.4580  -8.4564  -7.8845  -7.8820  -7.8533  -7.7664
    -7.6690  -7.2665  -7.2441  -7.2321  -6.8884  -6.8774  -6.8503  -6.6678
    -6.6632  -6.6466  -6.5811  -6.5802  -6.5355  -6.4275  -6.4230  -6.3858
    -6.3805  -6.3777  -6.3258  -6.1847  -5.2534  -5.2502  -5.0806  -5.0601
    -4.9362  -4.9357  -4.8287  -4.7406  -4.5780  -4.5585  -4.5551  -4.2010
    -3.9382  -3.9307  -3.6849  -3.6849  -3.6129  -3.5984  -3.4928  -3.4918
    -2.8560  -2.1958  -2.1898  -2.1606  -2.1523  -1.6660  -1.6660  -1.6524
    -0.5321  -0.0290  -0.0022   0.9858   1.1003   1.1027   1.1270   1.8578
     2.1176   2.1239   2.5324   2.9650   2.9683   3.0157   3.4867   3.5128
     3.5317   3.7456   3.7537   3.7939   3.9313   4.0753   4.2471

     occupation numbers 
     1.0000   1.0000   1.0000   1.0000   1.0000   1.0000   1.0000   1.0000
     1.0000   1.0000   1.0000   1.0000   1.0000   1.0000   1.0000   1.0000
     1.0000   1.0000   1.0000   1.0000   1.0000   1.0000   1.0000   1.0000
     1.0000   1.0000   1.0000   1.0000   1.0000   1.0000   1.0000   1.0000
     1.0000   1.0000   1.0000   1.0000   1.0000   1.0000   1.0000   1.0000
     1.0000   1.0000   1.0000   1.0000   1.0000   1.0000   1.0000   1.0000
     1.0000   1.0000   1.0000   1.0000   1.0000   1.0000   1.0000   1.0000
     1.0000   1.0000   1.0000   1.0000   1.0000   1.0000   1.0000   1.0000
     1.0000   1.0000   1.0000   1.0000   1.0000   1.0000   1.0000   1.0000
     1.0000   1.0000   1.0000   1.0000   1.0000   1.0000   1.0000   1.0000
     1.0000   1.0000   1.0000   1.0000   1.0000   1.0000   1.0000   1.0000
     1.0000   1.0000   1.0000   1.0000   1.0000   1.0000   1.0000   1.0000
     1.0000   1.0000   1.0000   1.0000   1.0000   1.0000   1.0000   1.0000
     1.0000   0.0000   0.0000   0.0000   0.0000   0.0000   0.0000   0.0000
     0.0000   0.0000   0.0000   0.0000   0.0000   0.0000   0.0000   0.0000
     0.0000   0.0000   0.0000   0.0000   0.0000   0.0000   0.0000

     the Fermi energy is    -0.2371 ev

!    total energy              =    -757.33375626 Ry
     Harris-Foulkes estimate   =    -757.33375407 Ry
     estimated scf accuracy    <       0.00000099 Ry

     The total energy is the sum of the following terms:

     one-electron contribution =   -2587.15259236 Ry
     hartree contribution      =    1340.39120498 Ry
     xc contribution           =    -252.67278449 Ry
     ewald contribution        =     742.10073940 Ry
     smearing contrib. (-TS)   =      -0.00032380 Ry

     total magnetization       =     1.00 Bohr mag/cell
     absolute magnetization    =     1.50 Bohr mag/cell

     convergence has been achieved in  15 iterations

     Writing output data file distance-2.6.save/

     init_run     :     72.24s CPU     73.80s WALL (       1 calls)
     electrons    :   1695.25s CPU   1724.39s WALL (       1 calls)

     Called by init_run:
     wfcinit      :     42.95s CPU     43.26s WALL (       1 calls)
     wfcinit:atom :      0.06s CPU      0.10s WALL (       2 calls)
     wfcinit:wfcr :     42.52s CPU     42.74s WALL (       2 calls)
     potinit      :     12.24s CPU     12.81s WALL (       1 calls)
     hinit0       :      8.27s CPU      8.31s WALL (       1 calls)

     Called by electrons:
     c_bands      :   1142.46s CPU   1149.02s WALL (      15 calls)
     sum_band     :    320.64s CPU    329.71s WALL (      15 calls)
     v_of_rho     :    117.74s CPU    123.52s WALL (      16 calls)
     v_h          :      1.22s CPU      1.25s WALL (      16 calls)
     v_xc         :    116.52s CPU    122.28s WALL (      16 calls)
     newd         :    119.11s CPU    127.72s WALL (      16 calls)
     mix_rho      :      6.39s CPU      6.46s WALL (      15 calls)

     Called by c_bands:
     init_us_2    :      2.92s CPU      2.96s WALL (      62 calls)
     cegterg      :   1135.41s CPU   1141.92s WALL (      30 calls)

     Called by sum_band:
     sum_band:bec :      0.02s CPU      0.02s WALL (      30 calls)
     addusdens    :    199.49s CPU    207.64s WALL (      15 calls)

     Called by *egterg:
     h_psi        :    588.73s CPU    593.41s WALL (     166 calls)
     s_psi        :    197.81s CPU    197.96s WALL (     166 calls)
     g_psi        :      0.64s CPU      0.65s WALL (     134 calls)
     cdiaghg      :     14.03s CPU     14.04s WALL (     164 calls)
     cegterg:over :    152.23s CPU    152.33s WALL (     134 calls)
     cegterg:upda :    101.77s CPU    102.32s WALL (     134 calls)
     cegterg:last :     63.68s CPU     63.71s WALL (      31 calls)

     Called by h_psi:
     h_psi:pot    :    588.05s CPU    591.93s WALL (     166 calls)
     h_psi:calbec :    197.93s CPU    198.07s WALL (     166 calls)
     vloc_psi     :    191.92s CPU    195.60s WALL (     166 calls)
     add_vuspsi   :    198.20s CPU    198.27s WALL (     166 calls)

     General routines
     calbec       :    271.57s CPU    271.76s WALL (     196 calls)
     fft          :     66.53s CPU     68.90s WALL (    1194 calls)
     ffts         :      1.13s CPU      1.16s WALL (      62 calls)
     fftw         :    197.69s CPU    201.55s WALL (   24244 calls)
     interpolate  :      2.73s CPU      2.83s WALL (      32 calls)

     Parallel routines
     fft_scatt_xy :     48.59s CPU     49.23s WALL (   25500 calls)
     fft_scatt_yz :     85.79s CPU     90.32s WALL (   25500 calls)

     PWSCF        :  29m28.73s CPU  29m59.94s WALL


   This run was terminated on:  14:40:47  23Aug2022            

=------------------------------------------------------------------------------=
   JOB DONE.
=------------------------------------------------------------------------------=
