
     Program PWSCF v.6.4.1 starts on 23Aug2022 at 16:16:30 

     This program is part of the open-source Quantum ESPRESSO suite
     for quantum simulation of materials; please cite
         "P. Giannozzi et al., J. Phys.:Condens. Matter 21 395502 (2009);
         "P. Giannozzi et al., J. Phys.:Condens. Matter 29 465901 (2017);
          URL http://www.quantum-espresso.org", 
     in publications or presentations arising from this work. More details at
     http://www.quantum-espresso.org/quote

     Parallel version (MPI), running on     6 processors

     MPI processes distributed on     1 nodes
     R & G space division:  proc/nbgrp/npool/nimage =       6
     Reading input from distance-2.0.in

     Current dimensions of program PWSCF are:
     Max number of different atomic species (ntypx) = 10
     Max number of k-points (npk) =  40000
     Max angular momentum in pseudopotentials (lmaxx) =  3

     IMPORTANT: XC functional enforced from input :
     Exchange-correlation      = RVV10 ( 1  4 13  4 3 0)
     Any further DFT definition will be discarded
     Please, verify this is what you really want

               file H.pbe-rrkjus.UPF: wavefunction(s)  1S renormalized
               file V.pbe-spnl-rrkjus_psl.1.0.0.UPF: wavefunction(s)  3P 3D renormalized

     Subspace diagonalization in iterative solution of the eigenvalue problem:
     a serial algorithm will be used


     Parallelization info
     --------------------
     sticks:   dense  smooth     PW     G-vecs:    dense   smooth      PW
     Min        3051    1746    432               270999   117096   14629
     Max        3053    1747    437               271001   117099   14630
     Sum       18313   10477   2611              1626001   702581   87777



     bravais-lattice index     =            4
     lattice parameter (alat)  =      23.2937  a.u.
     unit-cell volume          =    8879.8548 (a.u.)^3
     number of atoms/cell      =           52
     number of atomic types    =            3
     number of electrons       =       211.00
     number of Kohn-Sham states=          127
     kinetic-energy cutoff     =      70.0000  Ry
     charge density cutoff     =     490.0000  Ry
     convergence threshold     =      1.0E-06
     mixing beta               =       0.7000
     number of iterations used =            8  plain     mixing
     Exchange-correlation      = RVV10 ( 1  4 13  4 3 0)

     celldm(1)=  23.293684  celldm(2)=   0.000000  celldm(3)=   0.811261
     celldm(4)=   0.000000  celldm(5)=   0.000000  celldm(6)=   0.000000

     crystal axes: (cart. coord. in units of alat)
               a(1) = (   1.000000   0.000000   0.000000 )  
               a(2) = (  -0.500000   0.866025   0.000000 )  
               a(3) = (   0.000000   0.000000   0.811261 )  

     reciprocal axes: (cart. coord. in units 2 pi/alat)
               b(1) = (  1.000000  0.577350 -0.000000 )  
               b(2) = (  0.000000  1.154701  0.000000 )  
               b(3) = (  0.000000 -0.000000  1.232649 )  


     PseudoPot. # 1 for H  read from file:
     /home/cristian/Escritorio/Proyecto_Grafeno/pseudopotenciales/H.pbe-rrkjus.UPF
     MD5 check sum: 7cc9d459525c9a0585f487a71c3c9563
     Pseudo is Ultrasoft, Zval =  1.0
     Generated by new atomic code, or converted to UPF format
     Using radial grid of 1061 points,  2 beta functions with: 
                l(1) =   0
                l(2) =   0
     Q(r) pseudized with 0 coefficients 


     PseudoPot. # 2 for C  read from file:
     /home/cristian/Escritorio/Proyecto_Grafeno/pseudopotenciales/C.pbe-n-rrkjus_psl.1.0.0.UPF
     MD5 check sum: 1fdd950c42eb37d8afe3dd2f8d12311e
     Pseudo is Ultrasoft + core correction, Zval =  4.0
     Generated using "atomic" code by A. Dal Corso v.6.3MaX
     Using radial grid of 1073 points,  4 beta functions with: 
                l(1) =   0
                l(2) =   0
                l(3) =   1
                l(4) =   1
     Q(r) pseudized with 0 coefficients 


     PseudoPot. # 3 for V  read from file:
     /home/cristian/Escritorio/Proyecto_Grafeno/pseudopotenciales/V.pbe-spnl-rrkjus_psl.1.0.0.UPF
     MD5 check sum: 79b3eb63147daf0b665d9f1bcc691206
     Pseudo is Ultrasoft + core correction, Zval = 13.0
     Generated using "atomic" code by A. Dal Corso v.6.2.2
     Using radial grid of 1181 points,  6 beta functions with: 
                l(1) =   0
                l(2) =   0
                l(3) =   1
                l(4) =   1
                l(5) =   2
                l(6) =   2
     Q(r) pseudized with 0 coefficients 


     vdW kernel table read from file rVV10_kernel_table
     MD5 check sum: b8e2538accc0c0b3206b45ba4daaba6c

     atomic species   valence    mass     pseudopotential
        H              1.00     1.00794     H ( 1.00)
        C              4.00    12.01070     C ( 1.00)
        V             13.00    50.94150     V ( 1.00)

     Starting magnetic structure 
     atomic species   magnetization
        H            0.500
        C            0.300
        V            0.800

      2 Sym. Ops. (no inversion) found


                                    s                        frac. trans.

      isym =  1     identity                                     

 cryst.   s( 1) = (     1          0          0      )
                  (     0          1          0      )
                  (     0          0          1      )

 cart.    s( 1) = (  1.0000000  0.0000000  0.0000000 )
                  (  0.0000000  1.0000000  0.0000000 )
                  (  0.0000000  0.0000000  1.0000000 )


      isym =  2     inv. 180 deg rotation - cryst. axis [1,1,0]  

 cryst.   s( 2) = (     0         -1          0      )
                  (    -1          0          0      )
                  (     0          0          1      )

 cart.    s( 2) = (  0.5000000 -0.8660254  0.0000000 )
                  ( -0.8660254 -0.5000000  0.0000000 )
                  (  0.0000000  0.0000000  1.0000000 )


     point group C_s (m)    
     there are  2 classes
     the character table:

       E     s    
A'     1.00  1.00
A''    1.00 -1.00

     the symmetry operations in each class and the name of the first element:

     E        1
          identity                                               
     s        2
          inv. 180 deg rotation - cryst. axis [1,1,0]            

   Cartesian axes

     site n.     atom                  positions (alat units)
         1           H   tau(   1) = (   0.2500000   0.4330127   0.1622522  )
         2           H   tau(   2) = (   0.2500000   0.4330127   0.2232649  )
         3           C   tau(   3) = (   0.0000000   0.0000000   0.0000000  )
         4           C   tau(   4) = (   0.0000000   0.1154701   0.0000000  )
         5           C   tau(   5) = (  -0.1000000   0.1732051   0.0000000  )
         6           C   tau(   6) = (  -0.1000000   0.2886751   0.0000000  )
         7           C   tau(   7) = (  -0.2000000   0.3464102   0.0000000  )
         8           C   tau(   8) = (  -0.2000000   0.4618802   0.0000000  )
         9           C   tau(   9) = (  -0.3000000   0.5196152   0.0000000  )
        10           C   tau(  10) = (  -0.3000000   0.6350853   0.0000000  )
        11           C   tau(  11) = (  -0.4000000   0.6928203   0.0000000  )
        12           C   tau(  12) = (  -0.4000000   0.8082904   0.0000000  )
        13           C   tau(  13) = (   0.2000000   0.0000000   0.0000000  )
        14           C   tau(  14) = (   0.2000000   0.1154701   0.0000000  )
        15           C   tau(  15) = (   0.1000000   0.1732051   0.0000000  )
        16           C   tau(  16) = (   0.1000000   0.2886751   0.0000000  )
        17           C   tau(  17) = (   0.0000000   0.3464102   0.0000000  )
        18           C   tau(  18) = (   0.0000000   0.4618802   0.0000000  )
        19           C   tau(  19) = (  -0.1000000   0.5196152   0.0000000  )
        20           C   tau(  20) = (  -0.1000000   0.6350853   0.0000000  )
        21           C   tau(  21) = (  -0.2000000   0.6928203   0.0000000  )
        22           C   tau(  22) = (  -0.2000000   0.8082904   0.0000000  )
        23           C   tau(  23) = (   0.4000000   0.0000000   0.0000000  )
        24           C   tau(  24) = (   0.4000000   0.1154701   0.0000000  )
        25           C   tau(  25) = (   0.3000000   0.1732051   0.0000000  )
        26           C   tau(  26) = (   0.3000000   0.2886751   0.0000000  )
        27           C   tau(  27) = (   0.2000000   0.3464102   0.0000000  )
        28           V   tau(  28) = (   0.2000000   0.4618802   0.0000000  )
        29           C   tau(  29) = (   0.1000000   0.5196152   0.0000000  )
        30           C   tau(  30) = (   0.1000000   0.6350853   0.0000000  )
        31           C   tau(  31) = (   0.0000000   0.6928203   0.0000000  )
        32           C   tau(  32) = (   0.0000000   0.8082904   0.0000000  )
        33           C   tau(  33) = (   0.6000000   0.0000000   0.0000000  )
        34           C   tau(  34) = (   0.6000000   0.1154701   0.0000000  )
        35           C   tau(  35) = (   0.5000000   0.1732051   0.0000000  )
        36           C   tau(  36) = (   0.5000000   0.2886751   0.0000000  )
        37           C   tau(  37) = (   0.4000000   0.3464102   0.0000000  )
        38           C   tau(  38) = (   0.4000000   0.4618802   0.0000000  )
        39           C   tau(  39) = (   0.3000000   0.5196152   0.0000000  )
        40           C   tau(  40) = (   0.3000000   0.6350853   0.0000000  )
        41           C   tau(  41) = (   0.2000000   0.6928203   0.0000000  )
        42           C   tau(  42) = (   0.2000000   0.8082904   0.0000000  )
        43           C   tau(  43) = (   0.8000000   0.0000000   0.0000000  )
        44           C   tau(  44) = (   0.8000000   0.1154701   0.0000000  )
        45           C   tau(  45) = (   0.7000000   0.1732051   0.0000000  )
        46           C   tau(  46) = (   0.7000000   0.2886751   0.0000000  )
        47           C   tau(  47) = (   0.6000000   0.3464102   0.0000000  )
        48           C   tau(  48) = (   0.6000000   0.4618802   0.0000000  )
        49           C   tau(  49) = (   0.5000000   0.5196152   0.0000000  )
        50           C   tau(  50) = (   0.5000000   0.6350853   0.0000000  )
        51           C   tau(  51) = (   0.4000000   0.6928203   0.0000000  )
        52           C   tau(  52) = (   0.4000000   0.8082904   0.0000000  )

   Crystallographic axes

     site n.     atom                  positions (cryst. coord.)
         1           H   tau(   1) = (  0.5000000  0.5000000  0.2000000  )
         2           H   tau(   2) = (  0.5000000  0.5000000  0.2752072  )
         3           C   tau(   3) = (  0.0000000  0.0000000  0.0000000  )
         4           C   tau(   4) = (  0.0666667  0.1333333  0.0000000  )
         5           C   tau(   5) = (  0.0000000  0.2000000  0.0000000  )
         6           C   tau(   6) = (  0.0666667  0.3333333  0.0000000  )
         7           C   tau(   7) = (  0.0000000  0.4000000  0.0000000  )
         8           C   tau(   8) = (  0.0666667  0.5333333  0.0000000  )
         9           C   tau(   9) = (  0.0000000  0.6000000  0.0000000  )
        10           C   tau(  10) = (  0.0666667  0.7333333  0.0000000  )
        11           C   tau(  11) = (  0.0000000  0.8000000  0.0000000  )
        12           C   tau(  12) = (  0.0666667  0.9333333  0.0000000  )
        13           C   tau(  13) = (  0.2000000  0.0000000  0.0000000  )
        14           C   tau(  14) = (  0.2666667  0.1333333  0.0000000  )
        15           C   tau(  15) = (  0.2000000  0.2000000  0.0000000  )
        16           C   tau(  16) = (  0.2666667  0.3333333  0.0000000  )
        17           C   tau(  17) = (  0.2000000  0.4000000  0.0000000  )
        18           C   tau(  18) = (  0.2666667  0.5333333  0.0000000  )
        19           C   tau(  19) = (  0.2000000  0.6000000  0.0000000  )
        20           C   tau(  20) = (  0.2666667  0.7333333  0.0000000  )
        21           C   tau(  21) = (  0.2000000  0.8000000  0.0000000  )
        22           C   tau(  22) = (  0.2666667  0.9333333  0.0000000  )
        23           C   tau(  23) = (  0.4000000  0.0000000  0.0000000  )
        24           C   tau(  24) = (  0.4666667  0.1333333  0.0000000  )
        25           C   tau(  25) = (  0.4000000  0.2000000  0.0000000  )
        26           C   tau(  26) = (  0.4666667  0.3333333  0.0000000  )
        27           C   tau(  27) = (  0.4000000  0.4000000  0.0000000  )
        28           V   tau(  28) = (  0.4666667  0.5333333  0.0000000  )
        29           C   tau(  29) = (  0.4000000  0.6000000  0.0000000  )
        30           C   tau(  30) = (  0.4666667  0.7333333  0.0000000  )
        31           C   tau(  31) = (  0.4000000  0.8000000  0.0000000  )
        32           C   tau(  32) = (  0.4666667  0.9333333  0.0000000  )
        33           C   tau(  33) = (  0.6000000  0.0000000  0.0000000  )
        34           C   tau(  34) = (  0.6666667  0.1333333  0.0000000  )
        35           C   tau(  35) = (  0.6000000  0.2000000  0.0000000  )
        36           C   tau(  36) = (  0.6666667  0.3333333  0.0000000  )
        37           C   tau(  37) = (  0.6000000  0.4000000  0.0000000  )
        38           C   tau(  38) = (  0.6666667  0.5333333  0.0000000  )
        39           C   tau(  39) = (  0.6000000  0.6000000  0.0000000  )
        40           C   tau(  40) = (  0.6666667  0.7333333  0.0000000  )
        41           C   tau(  41) = (  0.6000000  0.8000000  0.0000000  )
        42           C   tau(  42) = (  0.6666667  0.9333333  0.0000000  )
        43           C   tau(  43) = (  0.8000000  0.0000000  0.0000000  )
        44           C   tau(  44) = (  0.8666667  0.1333333  0.0000000  )
        45           C   tau(  45) = (  0.8000000  0.2000000  0.0000000  )
        46           C   tau(  46) = (  0.8666667  0.3333333  0.0000000  )
        47           C   tau(  47) = (  0.8000000  0.4000000  0.0000000  )
        48           C   tau(  48) = (  0.8666667  0.5333333  0.0000000  )
        49           C   tau(  49) = (  0.8000000  0.6000000  0.0000000  )
        50           C   tau(  50) = (  0.8666667  0.7333333  0.0000000  )
        51           C   tau(  51) = (  0.8000000  0.8000000  0.0000000  )
        52           C   tau(  52) = (  0.8666667  0.9333333  0.0000000  )

     number of k points=     1  Marzari-Vanderbilt smearing, width (Ry)=  0.0010
                       cart. coord. in units 2pi/alat
        k(    1) = (   0.0000000   0.0000000   0.0000000), wk =   1.0000000

                       cryst. coord.
        k(    1) = (   0.0000000   0.0000000   0.0000000), wk =   1.0000000

     Dense  grid:  1626001 G-vectors     FFT dimensions: ( 180, 180, 135)

     Smooth grid:   702581 G-vectors     FFT dimensions: ( 125, 125, 108)

     Dynamical RAM for                 wfc:      28.36 MB

     Dynamical RAM for     wfc (w. buffer):      85.09 MB

     Dynamical RAM for           str. fact:      12.41 MB

     Dynamical RAM for           local pot:       0.00 MB

     Dynamical RAM for          nlocal pot:      92.46 MB

     Dynamical RAM for                qrad:      19.73 MB

     Dynamical RAM for          rho,v,vnew:      58.92 MB

     Dynamical RAM for               rhoin:      19.64 MB

     Dynamical RAM for            rho*nmix:     132.32 MB

     Dynamical RAM for           G-vectors:      16.40 MB

     Dynamical RAM for          h,s,v(r/c):      11.81 MB

     Dynamical RAM for          <psi|beta>:       0.80 MB

     Dynamical RAM for                 psi:     113.46 MB

     Dynamical RAM for                hpsi:     113.46 MB

     Dynamical RAM for                spsi:     113.46 MB

     Dynamical RAM for      wfcinit/wfcrot:      93.90 MB

     Dynamical RAM for           addusdens:     975.89 MB

     Estimated static dynamical RAM per process >     487.63 MB

     Estimated max dynamical RAM per process >       1.43 GB

     Estimated total dynamical RAM >       8.58 GB
     Generating pointlists ...
     new r_m :   0.0252 (alat units)  0.5862 (a.u.) for type    1
     new r_m :   0.0476 (alat units)  1.1095 (a.u.) for type    2
     new r_m :   0.0476 (alat units)  1.1095 (a.u.) for type    3

     Check: negative core charge=   -0.000002

     Initial potential from superposition of free atoms

     starting charge  210.80465, renormalised to  211.00000

     negative rho (up, down):  1.321E-04 1.779E-02


---------------------------------------------------------------------------------
Carrying out rVV10 run using the following parameters:
Nqs =      20    Nr_points =    1024   r_max =   100.000
b_value =  6.30000    beta =  0.00901
     q_mesh =  0.00010000  0.00030000  0.00058939  0.00100810
               0.00161396  0.00249058  0.00375900  0.00559430
               0.00824984  0.01209221  0.01765183  0.02569619
               0.03733578  0.05417739  0.07854596  0.11380545
               0.16482331  0.23864234  0.34545298  0.50000000

Gradients computed in Reciprocal space

---------------------------------------------------------------------------------


     Starting wfcs are  208 randomized atomic wfcs

     total cpu time spent up to now is       80.0 secs

     Self-consistent Calculation

     iteration #  1     ecut=    70.00 Ry     beta= 0.70
     Davidson diagonalization with overlap
     ethr =  1.00E-02,  avg # of iterations =  2.5

     negative rho (up, down):  3.717E-04 1.429E-02

     total cpu time spent up to now is      232.4 secs

     total energy              =    -752.43324288 Ry
     Harris-Foulkes estimate   =    -757.09864434 Ry
     estimated scf accuracy    <      12.63024750 Ry

     total magnetization       =     5.00 Bohr mag/cell
     absolute magnetization    =     6.06 Bohr mag/cell

     iteration #  2     ecut=    70.00 Ry     beta= 0.70
     Davidson diagonalization with overlap
     ethr =  5.99E-03,  avg # of iterations =  6.5

     negative rho (up, down):  5.807E-03 1.697E-01

     total cpu time spent up to now is      362.8 secs

     total energy              =    -745.10667688 Ry
     Harris-Foulkes estimate   =    -769.42989854 Ry
     estimated scf accuracy    <      85.20038442 Ry

     total magnetization       =     5.00 Bohr mag/cell
     absolute magnetization    =     5.21 Bohr mag/cell

     iteration #  3     ecut=    70.00 Ry     beta= 0.70
     Davidson diagonalization with overlap
     ethr =  5.99E-03,  avg # of iterations =  5.0

     negative rho (up, down):  1.661E-03 3.302E-02

     total cpu time spent up to now is      559.7 secs

     total energy              =    -755.74933706 Ry
     Harris-Foulkes estimate   =    -758.09102584 Ry
     estimated scf accuracy    <      10.31418677 Ry

     total magnetization       =     5.00 Bohr mag/cell
     absolute magnetization    =     5.79 Bohr mag/cell

     iteration #  4     ecut=    70.00 Ry     beta= 0.70
     Davidson diagonalization with overlap
     ethr =  4.89E-03,  avg # of iterations =  3.5

     negative rho (up, down):  4.234E-02 2.312E-02

     total cpu time spent up to now is      676.9 secs

     total energy              =    -757.01491782 Ry
     Harris-Foulkes estimate   =    -757.47042346 Ry
     estimated scf accuracy    <       1.30428518 Ry

     total magnetization       =     1.00 Bohr mag/cell
     absolute magnetization    =     1.91 Bohr mag/cell

     iteration #  5     ecut=    70.00 Ry     beta= 0.70
     Davidson diagonalization with overlap
     ethr =  6.18E-04,  avg # of iterations =  7.5

     negative rho (up, down):  5.065E-02 1.933E-02

     total cpu time spent up to now is      815.8 secs

     total energy              =    -757.20413487 Ry
     Harris-Foulkes estimate   =    -757.32410058 Ry
     estimated scf accuracy    <       0.39314752 Ry

     total magnetization       =     1.00 Bohr mag/cell
     absolute magnetization    =     1.55 Bohr mag/cell

     iteration #  6     ecut=    70.00 Ry     beta= 0.70
     Davidson diagonalization with overlap
     ethr =  1.86E-04,  avg # of iterations =  4.0

     negative rho (up, down):  2.703E-02 1.831E-02

     total cpu time spent up to now is      941.5 secs

     total energy              =    -757.28943414 Ry
     Harris-Foulkes estimate   =    -757.31253539 Ry
     estimated scf accuracy    <       0.17902288 Ry

     total magnetization       =     1.00 Bohr mag/cell
     absolute magnetization    =     1.51 Bohr mag/cell

     iteration #  7     ecut=    70.00 Ry     beta= 0.70
     Davidson diagonalization with overlap
     ethr =  8.48E-05,  avg # of iterations =  3.0

     negative rho (up, down):  3.596E-02 1.244E-02

     total cpu time spent up to now is     1064.7 secs

     total energy              =    -757.30919461 Ry
     Harris-Foulkes estimate   =    -757.32655859 Ry
     estimated scf accuracy    <       0.06105622 Ry

     total magnetization       =     1.00 Bohr mag/cell
     absolute magnetization    =     1.40 Bohr mag/cell

     iteration #  8     ecut=    70.00 Ry     beta= 0.70
     Davidson diagonalization with overlap
     ethr =  2.89E-05,  avg # of iterations =  6.0

     negative rho (up, down):  3.035E-02 2.342E-02

     total cpu time spent up to now is     1190.0 secs

     total energy              =    -757.32047021 Ry
     Harris-Foulkes estimate   =    -757.32659939 Ry
     estimated scf accuracy    <       0.03972569 Ry

     total magnetization       =     1.00 Bohr mag/cell
     absolute magnetization    =     1.40 Bohr mag/cell

     iteration #  9     ecut=    70.00 Ry     beta= 0.70
     Davidson diagonalization with overlap
     ethr =  1.88E-05,  avg # of iterations =  6.0

     negative rho (up, down):  3.438E-02 2.023E-02

     total cpu time spent up to now is     1314.7 secs

     total energy              =    -757.32520673 Ry
     Harris-Foulkes estimate   =    -757.32692206 Ry
     estimated scf accuracy    <       0.01322956 Ry

     total magnetization       =     1.00 Bohr mag/cell
     absolute magnetization    =     1.41 Bohr mag/cell

     iteration # 10     ecut=    70.00 Ry     beta= 0.70
     Davidson diagonalization with overlap
     ethr =  6.27E-06,  avg # of iterations =  2.5

     negative rho (up, down):  3.342E-02 1.659E-02

     total cpu time spent up to now is     1426.4 secs

     total energy              =    -757.32678767 Ry
     Harris-Foulkes estimate   =    -757.32628240 Ry
     estimated scf accuracy    <       0.00129571 Ry

     total magnetization       =     1.00 Bohr mag/cell
     absolute magnetization    =     1.41 Bohr mag/cell

     iteration # 11     ecut=    70.00 Ry     beta= 0.70
     Davidson diagonalization with overlap
     ethr =  6.14E-07,  avg # of iterations =  3.5

     negative rho (up, down):  3.303E-02 9.182E-03

     total cpu time spent up to now is     1553.0 secs

     total energy              =    -757.32774719 Ry
     Harris-Foulkes estimate   =    -757.32712202 Ry
     estimated scf accuracy    <       0.00088089 Ry

     total magnetization       =     1.00 Bohr mag/cell
     absolute magnetization    =     1.44 Bohr mag/cell

     iteration # 12     ecut=    70.00 Ry     beta= 0.70
     Davidson diagonalization with overlap
     ethr =  4.17E-07,  avg # of iterations =  3.0

     negative rho (up, down):  3.349E-02 5.619E-03

     total cpu time spent up to now is     1672.3 secs

     total energy              =    -757.32794494 Ry
     Harris-Foulkes estimate   =    -757.32783951 Ry
     estimated scf accuracy    <       0.00027508 Ry

     total magnetization       =     1.00 Bohr mag/cell
     absolute magnetization    =     1.46 Bohr mag/cell

     iteration # 13     ecut=    70.00 Ry     beta= 0.70
     Davidson diagonalization with overlap
     ethr =  1.30E-07,  avg # of iterations =  3.0

     negative rho (up, down):  3.361E-02 3.320E-03

     total cpu time spent up to now is     1794.3 secs

     total energy              =    -757.32797789 Ry
     Harris-Foulkes estimate   =    -757.32798331 Ry
     estimated scf accuracy    <       0.00017774 Ry

     total magnetization       =     1.00 Bohr mag/cell
     absolute magnetization    =     1.48 Bohr mag/cell

     iteration # 14     ecut=    70.00 Ry     beta= 0.70
     Davidson diagonalization with overlap
     ethr =  8.42E-08,  avg # of iterations =  2.0

     negative rho (up, down):  3.377E-02 3.838E-03

     total cpu time spent up to now is     1913.4 secs

     total energy              =    -757.32799371 Ry
     Harris-Foulkes estimate   =    -757.32799203 Ry
     estimated scf accuracy    <       0.00019352 Ry

     total magnetization       =     1.00 Bohr mag/cell
     absolute magnetization    =     1.49 Bohr mag/cell

     iteration # 15     ecut=    70.00 Ry     beta= 0.70
     Davidson diagonalization with overlap
     ethr =  8.42E-08,  avg # of iterations =  1.0

     negative rho (up, down):  3.382E-02 2.929E-03

     total cpu time spent up to now is     2037.5 secs

     total energy              =    -757.32800153 Ry
     Harris-Foulkes estimate   =    -757.32799909 Ry
     estimated scf accuracy    <       0.00009413 Ry

     total magnetization       =     1.00 Bohr mag/cell
     absolute magnetization    =     1.50 Bohr mag/cell

     iteration # 16     ecut=    70.00 Ry     beta= 0.70
     Davidson diagonalization with overlap
     ethr =  4.46E-08,  avg # of iterations =  1.5

     negative rho (up, down):  3.379E-02 2.393E-03

     total cpu time spent up to now is     2159.9 secs

     total energy              =    -757.32801149 Ry
     Harris-Foulkes estimate   =    -757.32800697 Ry
     estimated scf accuracy    <       0.00009846 Ry

     total magnetization       =     1.00 Bohr mag/cell
     absolute magnetization    =     1.51 Bohr mag/cell

     iteration # 17     ecut=    70.00 Ry     beta= 0.70
     Davidson diagonalization with overlap
     ethr =  4.46E-08,  avg # of iterations =  1.5

     negative rho (up, down):  3.413E-02 6.903E-03

     total cpu time spent up to now is     2264.6 secs

     total energy              =    -757.32796389 Ry
     Harris-Foulkes estimate   =    -757.32801624 Ry
     estimated scf accuracy    <       0.00010848 Ry

     total magnetization       =     1.00 Bohr mag/cell
     absolute magnetization    =     1.52 Bohr mag/cell

     iteration # 18     ecut=    70.00 Ry     beta= 0.70
     Davidson diagonalization with overlap
     ethr =  4.46E-08,  avg # of iterations =  2.5

     negative rho (up, down):  3.383E-02 2.421E-03

     total cpu time spent up to now is     2372.6 secs

     total energy              =    -757.32801779 Ry
     Harris-Foulkes estimate   =    -757.32796967 Ry
     estimated scf accuracy    <       0.00002644 Ry

     total magnetization       =     1.00 Bohr mag/cell
     absolute magnetization    =     1.53 Bohr mag/cell

     iteration # 19     ecut=    70.00 Ry     beta= 0.70
     Davidson diagonalization with overlap
     ethr =  1.25E-08,  avg # of iterations =  3.5

     negative rho (up, down):  3.404E-02 5.395E-03

     total cpu time spent up to now is     2483.8 secs

     total energy              =    -757.32799220 Ry
     Harris-Foulkes estimate   =    -757.32802317 Ry
     estimated scf accuracy    <       0.00012601 Ry

     total magnetization       =     1.00 Bohr mag/cell
     absolute magnetization    =     1.53 Bohr mag/cell

     iteration # 20     ecut=    70.00 Ry     beta= 0.70
     Davidson diagonalization with overlap
     ethr =  1.25E-08,  avg # of iterations =  3.5

     negative rho (up, down):  3.390E-02 2.860E-03

     total cpu time spent up to now is     2617.8 secs

     total energy              =    -757.32801648 Ry
     Harris-Foulkes estimate   =    -757.32800619 Ry
     estimated scf accuracy    <       0.00003558 Ry

     total magnetization       =     1.00 Bohr mag/cell
     absolute magnetization    =     1.54 Bohr mag/cell

     iteration # 21     ecut=    70.00 Ry     beta= 0.70
     Davidson diagonalization with overlap
     ethr =  1.25E-08,  avg # of iterations =  3.5

     negative rho (up, down):  3.397E-02 3.842E-03

     total cpu time spent up to now is     2737.5 secs

     total energy              =    -757.32801380 Ry
     Harris-Foulkes estimate   =    -757.32802598 Ry
     estimated scf accuracy    <       0.00009537 Ry

     total magnetization       =     1.00 Bohr mag/cell
     absolute magnetization    =     1.54 Bohr mag/cell

     iteration # 22     ecut=    70.00 Ry     beta= 0.70
     Davidson diagonalization with overlap
     ethr =  1.25E-08,  avg # of iterations =  2.5

     negative rho (up, down):  3.396E-02 3.592E-03

     total cpu time spent up to now is     2853.6 secs

     total energy              =    -757.32801727 Ry
     Harris-Foulkes estimate   =    -757.32801789 Ry
     estimated scf accuracy    <       0.00005635 Ry

     total magnetization       =     1.00 Bohr mag/cell
     absolute magnetization    =     1.55 Bohr mag/cell

     iteration # 23     ecut=    70.00 Ry     beta= 0.70
     Davidson diagonalization with overlap
     ethr =  1.25E-08,  avg # of iterations =  1.0

     negative rho (up, down):  3.391E-02 3.529E-03

     total cpu time spent up to now is     2968.4 secs

     total energy              =    -757.32802203 Ry
     Harris-Foulkes estimate   =    -757.32801792 Ry
     estimated scf accuracy    <       0.00003281 Ry

     total magnetization       =     1.00 Bohr mag/cell
     absolute magnetization    =     1.55 Bohr mag/cell

     iteration # 24     ecut=    70.00 Ry     beta= 0.70
     Davidson diagonalization with overlap
     ethr =  1.25E-08,  avg # of iterations =  2.5

     negative rho (up, down):  3.382E-02 3.334E-03

     total cpu time spent up to now is     3086.4 secs

     total energy              =    -757.32802787 Ry
     Harris-Foulkes estimate   =    -757.32802567 Ry
     estimated scf accuracy    <       0.00000309 Ry

     total magnetization       =     1.00 Bohr mag/cell
     absolute magnetization    =     1.55 Bohr mag/cell

     iteration # 25     ecut=    70.00 Ry     beta= 0.70
     Davidson diagonalization with overlap
     ethr =  1.47E-09,  avg # of iterations =  4.0

     negative rho (up, down):  3.381E-02 2.519E-03

     Magnetic moment per site:
     atom:    1    charge:    0.2172    magn:   -0.0000    constr:    0.0000
     atom:    2    charge:    0.2062    magn:    0.0002    constr:    0.0000
     atom:    3    charge:    1.7171    magn:   -0.0080    constr:    0.0000
     atom:    4    charge:    1.7162    magn:    0.0125    constr:    0.0000
     atom:    5    charge:    1.7181    magn:   -0.0047    constr:    0.0000
     atom:    6    charge:    1.7141    magn:    0.0027    constr:    0.0000
     atom:    7    charge:    1.7185    magn:   -0.0040    constr:    0.0000
     atom:    8    charge:    1.7152    magn:    0.0076    constr:    0.0000
     atom:    9    charge:    1.7180    magn:   -0.0062    constr:    0.0000
     atom:   10    charge:    1.7134    magn:    0.0242    constr:    0.0000
     atom:   11    charge:    1.7185    magn:   -0.0090    constr:    0.0000
     atom:   12    charge:    1.7165    magn:    0.0440    constr:    0.0000
     atom:   13    charge:    1.7185    magn:   -0.0090    constr:    0.0000
     atom:   14    charge:    1.7140    magn:    0.0183    constr:    0.0000
     atom:   15    charge:    1.7168    magn:   -0.0083    constr:    0.0000
     atom:   16    charge:    1.7119    magn:    0.0344    constr:    0.0000
     atom:   17    charge:    1.7265    magn:   -0.0063    constr:    0.0000
     atom:   18    charge:    1.7118    magn:    0.0389    constr:    0.0000
     atom:   19    charge:    1.7165    magn:   -0.0094    constr:    0.0000
     atom:   20    charge:    1.7156    magn:    0.0326    constr:    0.0000
     atom:   21    charge:    1.7189    magn:   -0.0087    constr:    0.0000
     atom:   22    charge:    1.7134    magn:    0.0242    constr:    0.0000
     atom:   23    charge:    1.7180    magn:   -0.0062    constr:    0.0000
     atom:   24    charge:    1.7157    magn:    0.0079    constr:    0.0000
     atom:   25    charge:    1.7173    magn:   -0.0058    constr:    0.0000
     atom:   26    charge:    1.7100    magn:    0.0156    constr:    0.0000
     atom:   27    charge:    1.9153    magn:   -0.0017    constr:    0.0000
     atom:   28    charge:    7.8613    magn:    0.1009    constr:    0.0000
     atom:   29    charge:    1.9140    magn:    0.0015    constr:    0.0000
     atom:   30    charge:    1.7118    magn:    0.0389    constr:    0.0000
     atom:   31    charge:    1.7165    magn:   -0.0094    constr:    0.0000
     atom:   32    charge:    1.7152    magn:    0.0076    constr:    0.0000
     atom:   33    charge:    1.7185    magn:   -0.0040    constr:    0.0000
     atom:   34    charge:    1.7136    magn:    0.0057    constr:    0.0000
     atom:   35    charge:    1.7183    magn:   -0.0037    constr:    0.0000
     atom:   36    charge:    1.7141    magn:    0.0023    constr:    0.0000
     atom:   37    charge:    1.7276    magn:   -0.0029    constr:    0.0000
     atom:   38    charge:    1.7100    magn:    0.0156    constr:    0.0000
     atom:   39    charge:    1.9153    magn:   -0.0017    constr:    0.0000
     atom:   40    charge:    1.7119    magn:    0.0344    constr:    0.0000
     atom:   41    charge:    1.7265    magn:   -0.0063    constr:    0.0000
     atom:   42    charge:    1.7141    magn:    0.0027    constr:    0.0000
     atom:   43    charge:    1.7181    magn:   -0.0047    constr:    0.0000
     atom:   44    charge:    1.7142    magn:    0.0091    constr:    0.0000
     atom:   45    charge:    1.7246    magn:   -0.0030    constr:    0.0000
     atom:   46    charge:    1.7136    magn:    0.0057    constr:    0.0000
     atom:   47    charge:    1.7183    magn:   -0.0037    constr:    0.0000
     atom:   48    charge:    1.7157    magn:    0.0079    constr:    0.0000
     atom:   49    charge:    1.7173    magn:   -0.0058    constr:    0.0000
     atom:   50    charge:    1.7140    magn:    0.0183    constr:    0.0000
     atom:   51    charge:    1.7168    magn:   -0.0083    constr:    0.0000
     atom:   52    charge:    1.7162    magn:    0.0125    constr:    0.0000

     total cpu time spent up to now is     3247.3 secs

     End of self-consistent calculation

 ------ SPIN UP ------------


          k = 0.0000 0.0000 0.0000 ( 87777 PWs)   bands (ev):

   -62.8092 -37.9149 -37.8804 -36.5778 -19.6247 -18.7992 -18.7626 -18.7134
   -18.6739 -18.6555 -18.2281 -16.9335 -16.9223 -16.9203 -16.7960 -16.7800
   -16.5065 -16.0724 -16.0698 -15.9779 -15.8229 -15.8219 -15.0730 -13.8900
   -13.8823 -13.8687 -13.8501 -13.8472 -13.1235 -12.9089 -12.9038 -12.8880
   -12.4961 -12.4949 -12.1034 -11.6375 -11.6309 -11.5094 -11.1288 -11.1285
   -10.1462  -9.3285  -9.3240  -9.2446  -9.1733  -9.1706  -9.0821  -9.0585
    -9.0540  -9.0413  -8.4580  -8.4548  -8.1589  -7.8845  -7.8785  -7.8450
    -7.6963  -7.6650  -7.2450  -7.2381  -6.9615  -6.9015  -6.8715  -6.6902
    -6.6865  -6.6797  -6.5837  -6.5781  -6.5326  -6.4323  -6.4145  -6.3827
    -6.3795  -6.3647  -6.3219  -6.1793  -5.2537  -5.2429  -5.1601  -5.1068
    -4.9345  -4.9338  -4.8225  -4.7345  -4.6112  -4.5972  -4.5966  -4.2134
    -3.9806  -3.9708  -3.7509  -3.7453  -3.6481  -3.6061  -3.4882  -3.4866
    -2.8454  -2.2531  -2.2526  -2.2115  -2.1886  -1.7366  -1.6754  -1.6673
    -0.5033  -0.2371  -0.2281   1.0587   1.0788   1.0967   1.1235   1.8044
     2.0531   2.0634   2.4780   2.8993   2.9110   2.9852   3.4808   3.5035
     3.5124   3.7459   3.7522   3.7916   3.9086   4.0089   4.0144

     occupation numbers 
     1.0000   1.0000   1.0000   1.0000   1.0000   1.0000   1.0000   1.0000
     1.0000   1.0000   1.0000   1.0000   1.0000   1.0000   1.0000   1.0000
     1.0000   1.0000   1.0000   1.0000   1.0000   1.0000   1.0000   1.0000
     1.0000   1.0000   1.0000   1.0000   1.0000   1.0000   1.0000   1.0000
     1.0000   1.0000   1.0000   1.0000   1.0000   1.0000   1.0000   1.0000
     1.0000   1.0000   1.0000   1.0000   1.0000   1.0000   1.0000   1.0000
     1.0000   1.0000   1.0000   1.0000   1.0000   1.0000   1.0000   1.0000
     1.0000   1.0000   1.0000   1.0000   1.0000   1.0000   1.0000   1.0000
     1.0000   1.0000   1.0000   1.0000   1.0000   1.0000   1.0000   1.0000
     1.0000   1.0000   1.0000   1.0000   1.0000   1.0000   1.0000   1.0000
     1.0000   1.0000   1.0000   1.0000   1.0000   1.0000   1.0000   1.0000
     1.0000   1.0000   1.0000   1.0000   1.0000   1.0000   1.0000   1.0000
     1.0000   1.0000   1.0000   1.0000   1.0000   1.0000   1.0000   1.0000
     1.0000   0.7316   0.2684   0.0000   0.0000   0.0000   0.0000   0.0000
     0.0000   0.0000   0.0000   0.0000   0.0000   0.0000   0.0000   0.0000
     0.0000   0.0000   0.0000   0.0000   0.0000   0.0000   0.0000

 ------ SPIN DOWN ----------


          k = 0.0000 0.0000 0.0000 ( 87777 PWs)   bands (ev):

   -62.6152 -37.7965 -37.6785 -36.3125 -19.6033 -18.7826 -18.7369 -18.6934
   -18.6591 -18.6374 -18.1956 -16.9211 -16.9011 -16.9011 -16.7706 -16.7492
   -16.4921 -16.0456 -16.0427 -15.9615 -15.8021 -15.8002 -15.0582 -13.8647
   -13.8512 -13.8509 -13.8312 -13.8144 -13.1266 -12.8993 -12.8921 -12.8725
   -12.4889 -12.4859 -12.0852 -11.6178 -11.6148 -11.4963 -11.1184 -11.1139
   -10.1317  -9.3132  -9.3055  -9.2320  -9.1578  -9.1524  -9.0741  -9.0431
    -9.0408  -9.0308  -8.4496  -8.4492  -8.1371  -7.8730  -7.8666  -7.8369
    -7.6565  -7.6530  -7.2359  -7.2296  -6.8930  -6.8648  -6.8057  -6.6597
    -6.6488  -6.6348  -6.5721  -6.5678  -6.5231  -6.4234  -6.4045  -6.3785
    -6.3713  -6.3572  -6.3135  -6.1039  -5.2463  -5.2336  -5.0963  -5.0043
    -4.9250  -4.9235  -4.8167  -4.7284  -4.5749  -4.5470  -4.5403  -4.1770
    -3.9399  -3.9097  -3.6759  -3.6735  -3.5997  -3.5768  -3.4823  -3.4792
    -2.8108  -2.1984  -2.1725  -2.1523  -2.1179  -1.6630  -1.6586  -1.6327
    -0.4995  -0.0590   0.0443   1.1036   1.1099   1.1432   1.1948   1.8726
     2.1179   2.1381   2.4824   2.9689   2.9807   3.0282   3.4868   3.5136
     3.5316   3.7494   3.7533   3.7980   3.9400   4.0931   4.2004

     occupation numbers 
     1.0000   1.0000   1.0000   1.0000   1.0000   1.0000   1.0000   1.0000
     1.0000   1.0000   1.0000   1.0000   1.0000   1.0000   1.0000   1.0000
     1.0000   1.0000   1.0000   1.0000   1.0000   1.0000   1.0000   1.0000
     1.0000   1.0000   1.0000   1.0000   1.0000   1.0000   1.0000   1.0000
     1.0000   1.0000   1.0000   1.0000   1.0000   1.0000   1.0000   1.0000
     1.0000   1.0000   1.0000   1.0000   1.0000   1.0000   1.0000   1.0000
     1.0000   1.0000   1.0000   1.0000   1.0000   1.0000   1.0000   1.0000
     1.0000   1.0000   1.0000   1.0000   1.0000   1.0000   1.0000   1.0000
     1.0000   1.0000   1.0000   1.0000   1.0000   1.0000   1.0000   1.0000
     1.0000   1.0000   1.0000   1.0000   1.0000   1.0000   1.0000   1.0000
     1.0000   1.0000   1.0000   1.0000   1.0000   1.0000   1.0000   1.0000
     1.0000   1.0000   1.0000   1.0000   1.0000   1.0000   1.0000   1.0000
     1.0000   1.0000   1.0000   1.0000   1.0000   1.0000   1.0000   1.0000
     1.0000   0.0000   0.0000   0.0000   0.0000   0.0000   0.0000   0.0000
     0.0000   0.0000   0.0000   0.0000   0.0000   0.0000   0.0000   0.0000
     0.0000   0.0000   0.0000   0.0000   0.0000   0.0000   0.0000

     the Fermi energy is    -0.2310 ev

!    total energy              =    -757.32803101 Ry
     Harris-Foulkes estimate   =    -757.32803151 Ry
     estimated scf accuracy    <       0.00000091 Ry

     The total energy is the sum of the following terms:

     one-electron contribution =   -2601.21151441 Ry
     hartree contribution      =    1347.49206309 Ry
     xc contribution           =    -252.70349267 Ry
     ewald contribution        =     749.09516655 Ry
     smearing contrib. (-TS)   =      -0.00025357 Ry

     total magnetization       =     1.00 Bohr mag/cell
     absolute magnetization    =     1.54 Bohr mag/cell

     convergence has been achieved in  25 iterations

     Writing output data file distance-2.0.save/

     init_run     :     76.96s CPU     78.74s WALL (       1 calls)
     electrons    :   3103.41s CPU   3167.47s WALL (       1 calls)

     Called by init_run:
     wfcinit      :     47.85s CPU     48.27s WALL (       1 calls)
     wfcinit:atom :      0.06s CPU      0.10s WALL (       2 calls)
     wfcinit:wfcr :     47.39s CPU     47.70s WALL (       2 calls)
     potinit      :     12.00s CPU     12.58s WALL (       1 calls)
     hinit0       :      7.14s CPU      7.19s WALL (       1 calls)

     Called by electrons:
     c_bands      :   1992.90s CPU   2006.00s WALL (      25 calls)
     sum_band     :    657.18s CPU    677.92s WALL (      25 calls)
     v_of_rho     :    218.33s CPU    231.47s WALL (      26 calls)
     v_h          :      2.24s CPU      2.35s WALL (      26 calls)
     v_xc         :    216.09s CPU    229.13s WALL (      26 calls)
     newd         :    230.86s CPU    248.74s WALL (      26 calls)
     mix_rho      :     13.36s CPU     13.57s WALL (      25 calls)

     Called by c_bands:
     init_us_2    :      5.64s CPU      5.69s WALL (     102 calls)
     cegterg      :   1979.81s CPU   1992.83s WALL (      50 calls)

     Called by sum_band:
     sum_band:bec :      0.04s CPU      0.04s WALL (      50 calls)
     addusdens    :    417.69s CPU    436.61s WALL (      25 calls)

     Called by *egterg:
     h_psi        :   1046.71s CPU   1055.40s WALL (     222 calls)
     s_psi        :    345.81s CPU    346.13s WALL (     222 calls)
     g_psi        :      1.04s CPU      1.05s WALL (     170 calls)
     cdiaghg      :     17.31s CPU     17.33s WALL (     220 calls)
     cegterg:over :    249.36s CPU    249.55s WALL (     170 calls)
     cegterg:upda :    157.34s CPU    158.48s WALL (     170 calls)
     cegterg:last :    103.68s CPU    103.73s WALL (      50 calls)

     Called by h_psi:
     h_psi:pot    :   1045.44s CPU   1052.67s WALL (     222 calls)
     h_psi:calbec :    344.90s CPU    345.18s WALL (     222 calls)
     vloc_psi     :    354.39s CPU    361.08s WALL (     222 calls)
     add_vuspsi   :    346.15s CPU    346.41s WALL (     222 calls)

     General routines
     calbec       :    487.58s CPU    487.98s WALL (     272 calls)
     fft          :    124.83s CPU    129.74s WALL (    1944 calls)
     ffts         :      2.40s CPU      2.47s WALL (     102 calls)
     fftw         :    370.86s CPU    377.97s WALL (   37162 calls)
     interpolate  :      5.30s CPU      5.42s WALL (      52 calls)

     Parallel routines
     fft_scatt_xy :     97.98s CPU     99.14s WALL (   39208 calls)
     fft_scatt_yz :    150.13s CPU    158.41s WALL (   39208 calls)

     PWSCF        :  53m 1.87s CPU  54m 8.16s WALL


   This run was terminated on:  17:10:38  23Aug2022            

=------------------------------------------------------------------------------=
   JOB DONE.
=------------------------------------------------------------------------------=
