
     Program PWSCF v.6.4.1 starts on 26Jun2022 at  8:32:47 

     This program is part of the open-source Quantum ESPRESSO suite
     for quantum simulation of materials; please cite
         "P. Giannozzi et al., J. Phys.:Condens. Matter 21 395502 (2009);
         "P. Giannozzi et al., J. Phys.:Condens. Matter 29 465901 (2017);
          URL http://www.quantum-espresso.org", 
     in publications or presentations arising from this work. More details at
     http://www.quantum-espresso.org/quote

     Parallel version (MPI), running on     5 processors

     MPI processes distributed on     1 nodes
     R & G space division:  proc/nbgrp/npool/nimage =       5
     Reading input from distance-1.8.in

     Current dimensions of program PWSCF are:
     Max number of different atomic species (ntypx) = 10
     Max number of k-points (npk) =  40000
     Max angular momentum in pseudopotentials (lmaxx) =  3

     IMPORTANT: XC functional enforced from input :
     Exchange-correlation      = RVV10 ( 1  4 13  4 3 0)
     Any further DFT definition will be discarded
     Please, verify this is what you really want

               file H.pbe-rrkjus.UPF: wavefunction(s)  1S renormalized
               file H.pbe-rrkjus.UPF: wavefunction(s)  1S renormalized

     Subspace diagonalization in iterative solution of the eigenvalue problem:
     a serial algorithm will be used


     Parallelization info
     --------------------
     sticks:   dense  smooth     PW     G-vecs:    dense   smooth      PW
     Min        3662    2095    542               487826   210779   27834
     Max        3663    2096    543               487829   210784   27841
     Sum       18313   10477   2713              2439139  1053907  139193



     bravais-lattice index     =            4
     lattice parameter (alat)  =      23.2937  a.u.
     unit-cell volume          =   13319.7822 (a.u.)^3
     number of atoms/cell      =           52
     number of atomic types    =            3
     number of electrons       =       202.00
     number of Kohn-Sham states=          121
     kinetic-energy cutoff     =      70.0000  Ry
     charge density cutoff     =     490.0000  Ry
     convergence threshold     =      1.0E-06
     mixing beta               =       0.7000
     number of iterations used =            8  plain     mixing
     Exchange-correlation      = RVV10 ( 1  4 13  4 3 0)

     celldm(1)=  23.293684  celldm(2)=   0.000000  celldm(3)=   1.216892
     celldm(4)=   0.000000  celldm(5)=   0.000000  celldm(6)=   0.000000

     crystal axes: (cart. coord. in units of alat)
               a(1) = (   1.000000   0.000000   0.000000 )  
               a(2) = (  -0.500000   0.866025   0.000000 )  
               a(3) = (   0.000000   0.000000   1.216892 )  

     reciprocal axes: (cart. coord. in units 2 pi/alat)
               b(1) = (  1.000000  0.577350 -0.000000 )  
               b(2) = (  0.000000  1.154701  0.000000 )  
               b(3) = (  0.000000 -0.000000  0.821766 )  


     PseudoPot. # 1 for H  read from file:
     /home/cristian/Escritorio/Proyecto_Grafeno/pseudopotenciales/H.pbe-rrkjus.UPF
     MD5 check sum: 7cc9d459525c9a0585f487a71c3c9563
     Pseudo is Ultrasoft, Zval =  1.0
     Generated by new atomic code, or converted to UPF format
     Using radial grid of 1061 points,  2 beta functions with: 
                l(1) =   0
                l(2) =   0
     Q(r) pseudized with 0 coefficients 


     PseudoPot. # 2 for H  read from file:
     /home/cristian/Escritorio/Proyecto_Grafeno/pseudopotenciales/H.pbe-rrkjus.UPF
     MD5 check sum: 7cc9d459525c9a0585f487a71c3c9563
     Pseudo is Ultrasoft, Zval =  1.0
     Generated by new atomic code, or converted to UPF format
     Using radial grid of 1061 points,  2 beta functions with: 
                l(1) =   0
                l(2) =   0
     Q(r) pseudized with 0 coefficients 


     PseudoPot. # 3 for C  read from file:
     /home/cristian/Escritorio/Proyecto_Grafeno/pseudopotenciales/C.pbe-n-rrkjus_psl.1.0.0.UPF
     MD5 check sum: 1fdd950c42eb37d8afe3dd2f8d12311e
     Pseudo is Ultrasoft + core correction, Zval =  4.0
     Generated using "atomic" code by A. Dal Corso v.6.3MaX
     Using radial grid of 1073 points,  4 beta functions with: 
                l(1) =   0
                l(2) =   0
                l(3) =   1
                l(4) =   1
     Q(r) pseudized with 0 coefficients 


     vdW kernel table read from file rVV10_kernel_table
     MD5 check sum: b8e2538accc0c0b3206b45ba4daaba6c

     atomic species   valence    mass     pseudopotential
        H1             1.00     1.00794     H ( 1.00)
        H2             1.00     1.00794     H ( 1.00)
        C              4.00    12.01070     C ( 1.00)

     No symmetry found



   Cartesian axes

     site n.     atom                  positions (alat units)
         1           H1  tau(   1) = (   0.1694937   0.4618802   0.1460270  )
         2           H2  tau(   2) = (   0.2305063   0.4618802   0.1460270  )
         3           C   tau(   3) = (   0.0000000   0.0000000   0.0000000  )
         4           C   tau(   4) = (   0.0000000   0.1154701   0.0000000  )
         5           C   tau(   5) = (  -0.1000000   0.1732051   0.0000000  )
         6           C   tau(   6) = (  -0.1000000   0.2886751   0.0000000  )
         7           C   tau(   7) = (  -0.2000000   0.3464102   0.0000000  )
         8           C   tau(   8) = (  -0.2000000   0.4618802   0.0000000  )
         9           C   tau(   9) = (  -0.3000000   0.5196152   0.0000000  )
        10           C   tau(  10) = (  -0.3000000   0.6350853   0.0000000  )
        11           C   tau(  11) = (  -0.4000000   0.6928203   0.0000000  )
        12           C   tau(  12) = (  -0.4000000   0.8082904   0.0000000  )
        13           C   tau(  13) = (   0.2000000   0.0000000   0.0000000  )
        14           C   tau(  14) = (   0.2000000   0.1154701   0.0000000  )
        15           C   tau(  15) = (   0.1000000   0.1732051   0.0000000  )
        16           C   tau(  16) = (   0.1000000   0.2886751   0.0000000  )
        17           C   tau(  17) = (   0.0000000   0.3464102   0.0000000  )
        18           C   tau(  18) = (   0.0000000   0.4618802   0.0000000  )
        19           C   tau(  19) = (  -0.1000000   0.5196152   0.0000000  )
        20           C   tau(  20) = (  -0.1000000   0.6350853   0.0000000  )
        21           C   tau(  21) = (  -0.2000000   0.6928203   0.0000000  )
        22           C   tau(  22) = (  -0.2000000   0.8082904   0.0000000  )
        23           C   tau(  23) = (   0.4000000   0.0000000   0.0000000  )
        24           C   tau(  24) = (   0.4000000   0.1154701   0.0000000  )
        25           C   tau(  25) = (   0.3000000   0.1732051   0.0000000  )
        26           C   tau(  26) = (   0.3000000   0.2886751   0.0000000  )
        27           C   tau(  27) = (   0.2000000   0.3464102   0.0000000  )
        28           C   tau(  28) = (   0.2000000   0.4618802   0.0000000  )
        29           C   tau(  29) = (   0.1000000   0.5196152   0.0000000  )
        30           C   tau(  30) = (   0.1000000   0.6350853   0.0000000  )
        31           C   tau(  31) = (   0.0000000   0.6928203   0.0000000  )
        32           C   tau(  32) = (   0.0000000   0.8082904   0.0000000  )
        33           C   tau(  33) = (   0.6000000   0.0000000   0.0000000  )
        34           C   tau(  34) = (   0.6000000   0.1154701   0.0000000  )
        35           C   tau(  35) = (   0.5000000   0.1732051   0.0000000  )
        36           C   tau(  36) = (   0.5000000   0.2886751   0.0000000  )
        37           C   tau(  37) = (   0.4000000   0.3464102   0.0000000  )
        38           C   tau(  38) = (   0.4000000   0.4618802   0.0000000  )
        39           C   tau(  39) = (   0.3000000   0.5196152   0.0000000  )
        40           C   tau(  40) = (   0.3000000   0.6350853   0.0000000  )
        41           C   tau(  41) = (   0.2000000   0.6928203   0.0000000  )
        42           C   tau(  42) = (   0.2000000   0.8082904   0.0000000  )
        43           C   tau(  43) = (   0.8000000   0.0000000   0.0000000  )
        44           C   tau(  44) = (   0.8000000   0.1154701   0.0000000  )
        45           C   tau(  45) = (   0.7000000   0.1732051   0.0000000  )
        46           C   tau(  46) = (   0.7000000   0.2886751   0.0000000  )
        47           C   tau(  47) = (   0.6000000   0.3464102   0.0000000  )
        48           C   tau(  48) = (   0.6000000   0.4618802   0.0000000  )
        49           C   tau(  49) = (   0.5000000   0.5196152   0.0000000  )
        50           C   tau(  50) = (   0.5000000   0.6350853   0.0000000  )
        51           C   tau(  51) = (   0.4000000   0.6928203   0.0000000  )
        52           C   tau(  52) = (   0.4000000   0.8082904   0.0000000  )

     number of k points=     4  Marzari-Vanderbilt smearing, width (Ry)=  0.0010
                       cart. coord. in units 2pi/alat
        k(    1) = (   0.0000000   0.0000000   0.0000000), wk =   0.5000000
        k(    2) = (   0.0000000  -0.5773503   0.0000000), wk =   0.5000000
        k(    3) = (   0.5000000  -0.2886751   0.0000000), wk =   0.5000000
        k(    4) = (  -0.5000000  -0.2886751   0.0000000), wk =   0.5000000

     Dense  grid:  2439139 G-vectors     FFT dimensions: ( 180, 180, 200)

     Smooth grid:  1053907 G-vectors     FFT dimensions: ( 125, 125, 160)

     Estimated max dynamical RAM per process >       1.39 GB

     Estimated total dynamical RAM >       6.95 GB

     Check: negative core charge=   -0.000001

     Initial potential from superposition of free atoms

     starting charge  201.80551, renormalised to  202.00000

     negative rho (up, down):  1.158E-03 0.000E+00


---------------------------------------------------------------------------------
Carrying out rVV10 run using the following parameters:
Nqs =      20    Nr_points =    1024   r_max =   100.000
b_value =  6.30000    beta =  0.00901
     q_mesh =  0.00010000  0.00030000  0.00058939  0.00100810
               0.00161396  0.00249058  0.00375900  0.00559430
               0.00824984  0.01209221  0.01765183  0.02569619
               0.03733578  0.05417739  0.07854596  0.11380545
               0.16482331  0.23864234  0.34545298  0.50000000

Gradients computed in Reciprocal space

---------------------------------------------------------------------------------


     Starting wfcs are  202 randomized atomic wfcs

     total cpu time spent up to now is      167.9 secs

     Self-consistent Calculation

     iteration #  1     ecut=    70.00 Ry     beta= 0.70
     Davidson diagonalization with overlap
     ethr =  1.00E-02,  avg # of iterations =  2.8

     negative rho (up, down):  1.297E-03 0.000E+00

     total cpu time spent up to now is      480.1 secs

     total energy              =    -624.08257197 Ry
     Harris-Foulkes estimate   =    -628.32747078 Ry
     estimated scf accuracy    <       6.68682484 Ry

     iteration #  2     ecut=    70.00 Ry     beta= 0.70
     Davidson diagonalization with overlap
     ethr =  3.31E-03,  avg # of iterations =  8.0

     negative rho (up, down):  1.431E-03 0.000E+00

     total cpu time spent up to now is      797.7 secs

     total energy              =    -623.48526647 Ry
     Harris-Foulkes estimate   =    -626.38059166 Ry
     estimated scf accuracy    <       4.90358021 Ry

     iteration #  3     ecut=    70.00 Ry     beta= 0.70
     Davidson diagonalization with overlap
     ethr =  2.43E-03,  avg # of iterations =  4.2

     negative rho (up, down):  1.538E-03 0.000E+00

     total cpu time spent up to now is     1119.1 secs

     total energy              =    -624.60155847 Ry
     Harris-Foulkes estimate   =    -626.52418728 Ry
     estimated scf accuracy    <       5.88159368 Ry

     iteration #  4     ecut=    70.00 Ry     beta= 0.70
     Davidson diagonalization with overlap
     ethr =  2.43E-03,  avg # of iterations =  3.0

     negative rho (up, down):  1.585E-03 0.000E+00

     total cpu time spent up to now is     1351.0 secs

     total energy              =    -625.52188718 Ry
     Harris-Foulkes estimate   =    -625.58646182 Ry
     estimated scf accuracy    <       0.13615516 Ry

     iteration #  5     ecut=    70.00 Ry     beta= 0.70
     Davidson diagonalization with overlap
     ethr =  6.74E-05,  avg # of iterations =  8.0

     negative rho (up, down):  1.728E-03 0.000E+00

     total cpu time spent up to now is     1665.9 secs

     total energy              =    -625.55887812 Ry
     Harris-Foulkes estimate   =    -625.56196332 Ry
     estimated scf accuracy    <       0.00813793 Ry

     iteration #  6     ecut=    70.00 Ry     beta= 0.70
     Davidson diagonalization with overlap
     ethr =  4.03E-06,  avg # of iterations =  9.0

     negative rho (up, down):  1.902E-03 0.000E+00

     total cpu time spent up to now is     1990.3 secs

     total energy              =    -625.56009905 Ry
     Harris-Foulkes estimate   =    -625.56127038 Ry
     estimated scf accuracy    <       0.00218024 Ry

     iteration #  7     ecut=    70.00 Ry     beta= 0.70
     Davidson diagonalization with overlap
     ethr =  1.08E-06,  avg # of iterations =  8.8

     negative rho (up, down):  1.925E-03 0.000E+00

     total cpu time spent up to now is     2291.7 secs

     total energy              =    -625.56049715 Ry
     Harris-Foulkes estimate   =    -625.56097489 Ry
     estimated scf accuracy    <       0.00104864 Ry

     iteration #  8     ecut=    70.00 Ry     beta= 0.70
     Davidson diagonalization with overlap
     ethr =  5.19E-07,  avg # of iterations =  2.2

     negative rho (up, down):  1.925E-03 0.000E+00

     total cpu time spent up to now is     2533.1 secs

     total energy              =    -625.56071127 Ry
     Harris-Foulkes estimate   =    -625.56077443 Ry
     estimated scf accuracy    <       0.00014262 Ry

     iteration #  9     ecut=    70.00 Ry     beta= 0.70
     Davidson diagonalization with overlap
     ethr =  7.06E-08,  avg # of iterations =  2.2

     negative rho (up, down):  1.931E-03 0.000E+00

     total cpu time spent up to now is     2786.6 secs

     total energy              =    -625.56073994 Ry
     Harris-Foulkes estimate   =    -625.56074642 Ry
     estimated scf accuracy    <       0.00001180 Ry

     iteration # 10     ecut=    70.00 Ry     beta= 0.70
     Davidson diagonalization with overlap
     ethr =  5.84E-09,  avg # of iterations =  2.2

     negative rho (up, down):  1.936E-03 0.000E+00

     total cpu time spent up to now is     3052.4 secs

     total energy              =    -625.56074199 Ry
     Harris-Foulkes estimate   =    -625.56074366 Ry
     estimated scf accuracy    <       0.00000186 Ry

     iteration # 11     ecut=    70.00 Ry     beta= 0.70
     Davidson diagonalization with overlap
     ethr =  9.21E-10,  avg # of iterations =  2.2

     negative rho (up, down):  1.937E-03 0.000E+00

     total cpu time spent up to now is     3325.3 secs

     End of self-consistent calculation

          k = 0.0000 0.0000 0.0000 (131685 PWs)   bands (ev):

   -21.2358 -20.3501 -20.2942 -20.2876 -20.2861 -20.2853 -20.2844 -18.5056
   -18.4590 -18.4540 -18.4529 -18.4520 -18.4488 -17.6066 -17.5647 -17.5625
   -17.5601 -17.5589 -17.5580 -15.4663 -15.4215 -15.4170 -15.4158 -15.4138
   -15.4127 -14.4295 -14.4200 -14.4134 -14.4084 -14.4069 -14.4063 -13.0942
   -13.0789 -13.0737 -13.0663 -13.0653 -13.0646 -10.7582 -10.7197 -10.7133
   -10.7058 -10.7054 -10.7052 -10.5959 -10.5949 -10.5907 -10.5842 -10.5836
   -10.5817  -9.9328  -9.2225  -9.2193  -9.2176  -9.2130  -9.2112  -9.2086
    -9.0868  -8.2556  -8.2412  -8.2360  -8.2353  -8.2347  -7.9795  -7.9730
    -7.9654  -7.9624  -7.9621  -7.9586  -7.9212  -7.9209  -7.9192  -7.9103
    -7.9078  -7.9077  -7.2472  -6.3290  -6.3234  -6.3178  -6.3157  -6.3154
    -6.3145  -6.1370  -6.1148  -6.1083  -6.1066  -6.1064  -5.7179  -5.2359
    -5.2181  -5.2122  -5.2106  -5.2066  -4.8477  -4.8470  -4.6562  -3.2555
    -3.2365  -3.2252  -3.2218  -3.2210  -3.0476  -0.4976  -0.4495  -0.4315
    -0.4295  -0.4286  -0.4172   1.3155   1.3177   1.3961   1.4225   1.4265
     1.4269   1.4483   2.2287   2.3793   2.5198   2.5813   2.5825   2.5845
     2.6884

          k = 0.0000-0.5774 0.0000 (131762 PWs)   bands (ev):

   -21.0145 -20.9868 -20.5396 -20.5230 -19.6310 -19.5962 -19.5931 -19.5912
   -19.1512 -19.1327 -18.2603 -18.2347 -18.2241 -18.2236 -16.9440 -16.9140
   -16.9092 -16.9082 -16.5331 -16.5086 -16.5037 -16.5028 -16.0291 -15.3058
   -15.2958 -14.9582 -14.1049 -14.1011 -14.0883 -14.0861 -13.6307 -13.6199
   -12.7042 -12.6883 -12.6848 -12.6830 -11.8914 -11.8895 -11.7475 -11.7398
   -11.7269 -11.7232 -10.5275 -10.5126 -10.2939 -10.2921 -10.2789 -10.2743
    -9.9258  -9.2459  -9.2395  -9.2332  -9.2322  -9.0716  -8.8713  -8.8672
    -8.8666  -8.8628  -8.7940  -8.5219  -8.3959  -8.3923  -8.3885  -8.3871
    -8.1986  -8.0854  -7.4824  -7.4813  -7.4757  -7.4750  -7.4341  -7.4235
    -7.4211  -7.3053  -7.2971  -7.1064  -7.0954  -7.0797  -6.8999  -6.4840
    -6.2465  -6.2459  -5.9107  -5.8721  -5.8717  -5.7574  -5.7505  -5.4749
    -5.3215  -5.3074  -4.4474  -4.4416  -4.4331  -4.3488  -4.2514  -4.2321
    -4.2299  -4.1206  -3.8248  -2.7633  -2.7073  -0.7331  -0.7084  -0.0698
     0.2316   0.3130   0.3244   0.3281   0.9382   0.9628   0.9681   0.9743
     1.6116   1.7409   2.1366   2.3697   2.4944   2.5070   2.5507   2.5933
     2.5944

          k = 0.5000-0.2887 0.0000 (131762 PWs)   bands (ev):

   -21.0127 -20.9887 -20.5417 -20.5206 -19.6313 -19.5958 -19.5931 -19.5914
   -19.1494 -19.1345 -18.2614 -18.2300 -18.2260 -18.2254 -16.9427 -16.9145
   -16.9106 -16.9070 -16.5339 -16.5069 -16.5052 -16.5028 -16.0280 -15.3075
   -15.2951 -14.9592 -14.1056 -14.0976 -14.0903 -14.0864 -13.6307 -13.6180
   -12.7049 -12.6925 -12.6827 -12.6814 -11.8937 -11.8879 -11.7478 -11.7352
   -11.7289 -11.7249 -10.5230 -10.5141 -10.2974 -10.2900 -10.2785 -10.2772
    -9.9251  -9.2439  -9.2396  -9.2346  -9.2312  -9.0744  -8.8753  -8.8665
    -8.8651  -8.8612  -8.7964  -8.5166  -8.3985  -8.3898  -8.3890  -8.3879
    -8.1981  -8.0824  -7.4861  -7.4785  -7.4754  -7.4747  -7.4358  -7.4236
    -7.4205  -7.3029  -7.2984  -7.1060  -7.0953  -7.0752  -6.9073  -6.4997
    -6.2489  -6.2444  -5.8942  -5.8746  -5.8740  -5.7573  -5.7516  -5.4567
    -5.3181  -5.3096  -4.4628  -4.4370  -4.4323  -4.3555  -4.2457  -4.2348
    -4.2284  -4.1177  -3.8394  -2.7582  -2.7008  -0.7223  -0.7165  -0.0920
     0.2694   0.3073   0.3242   0.3291   0.9099   0.9594   0.9703   0.9762
     1.5942   1.7433   2.2055   2.3664   2.4826   2.5292   2.5600   2.5900
     2.5912

          k =-0.5000-0.2887 0.0000 (131762 PWs)   bands (ev):

   -21.0127 -20.9887 -20.5417 -20.5207 -19.6313 -19.5958 -19.5931 -19.5914
   -19.1494 -19.1345 -18.2614 -18.2300 -18.2260 -18.2254 -16.9427 -16.9145
   -16.9106 -16.9070 -16.5339 -16.5069 -16.5052 -16.5028 -16.0280 -15.3075
   -15.2951 -14.9592 -14.1056 -14.0976 -14.0903 -14.0864 -13.6307 -13.6180
   -12.7049 -12.6925 -12.6827 -12.6814 -11.8937 -11.8879 -11.7478 -11.7352
   -11.7289 -11.7249 -10.5230 -10.5141 -10.2974 -10.2900 -10.2785 -10.2772
    -9.9251  -9.2439  -9.2396  -9.2346  -9.2312  -9.0744  -8.8753  -8.8665
    -8.8651  -8.8612  -8.7964  -8.5166  -8.3985  -8.3898  -8.3891  -8.3879
    -8.1981  -8.0824  -7.4861  -7.4785  -7.4754  -7.4747  -7.4358  -7.4236
    -7.4205  -7.3029  -7.2984  -7.1060  -7.0953  -7.0752  -6.9073  -6.4997
    -6.2489  -6.2444  -5.8942  -5.8746  -5.8740  -5.7573  -5.7516  -5.4567
    -5.3181  -5.3096  -4.4628  -4.4370  -4.4323  -4.3555  -4.2457  -4.2348
    -4.2284  -4.1177  -3.8394  -2.7582  -2.7008  -0.7223  -0.7165  -0.0920
     0.2694   0.3073   0.3242   0.3291   0.9099   0.9594   0.9703   0.9761
     1.5942   1.7433   2.2055   2.3664   2.4826   2.5292   2.5600   2.5900
     2.5912

     the Fermi energy is    -1.7804 ev

!    total energy              =    -625.56074218 Ry
     Harris-Foulkes estimate   =    -625.56074248 Ry
     estimated scf accuracy    <       0.00000014 Ry

     The total energy is the sum of the following terms:

     one-electron contribution =   -3969.59885879 Ry
     hartree contribution      =    2021.50647244 Ry
     xc contribution           =    -235.40405195 Ry
     ewald contribution        =    1557.93569612 Ry
     smearing contrib. (-TS)   =       0.00000000 Ry

     convergence has been achieved in  11 iterations

     Writing output data file distance-1.8.save/

     init_run     :    165.61s CPU    167.43s WALL (       1 calls)
     electrons    :   3129.64s CPU   3157.48s WALL (       1 calls)

     Called by init_run:
     wfcinit      :    131.29s CPU    132.05s WALL (       1 calls)
     potinit      :     17.91s CPU     18.52s WALL (       1 calls)
     hinit0       :     10.52s CPU     10.58s WALL (       1 calls)

     Called by electrons:
     c_bands      :   2604.42s CPU   2618.10s WALL (      11 calls)
     sum_band     :    351.96s CPU    356.60s WALL (      11 calls)
     v_of_rho     :    123.65s CPU    131.01s WALL (      12 calls)
     newd         :     59.58s CPU     62.51s WALL (      12 calls)
     mix_rho      :      3.33s CPU      3.37s WALL (      11 calls)

     Called by c_bands:
     init_us_2    :      6.70s CPU      6.77s WALL (      92 calls)
     cegterg      :   2587.98s CPU   2601.48s WALL (      44 calls)

     Called by sum_band:
     sum_band:bec :      0.03s CPU      0.03s WALL (      44 calls)
     addusdens    :     84.20s CPU     87.38s WALL (      11 calls)

     Called by *egterg:
     h_psi        :   1425.45s CPU   1435.36s WALL (     259 calls)
     s_psi        :    453.06s CPU    453.47s WALL (     259 calls)
     g_psi        :      1.83s CPU      1.83s WALL (     211 calls)
     cdiaghg      :     23.16s CPU     23.18s WALL (     255 calls)

     Called by h_psi:
     h_psi:pot    :   1423.81s CPU   1432.09s WALL (     259 calls)
     h_psi:calbec :    451.61s CPU    451.98s WALL (     259 calls)
     vloc_psi     :    518.88s CPU    526.51s WALL (     259 calls)
     add_vuspsi   :    453.31s CPU    453.60s WALL (     259 calls)

     General routines
     calbec       :    609.07s CPU    609.53s WALL (     303 calls)
     fft          :     66.93s CPU     69.62s WALL (     754 calls)
     ffts         :      0.82s CPU      0.85s WALL (      23 calls)
     fftw         :    526.69s CPU    534.34s WALL (   35856 calls)
     interpolate  :      1.75s CPU      1.81s WALL (      12 calls)

     Parallel routines
     fft_scatt_xy :    138.04s CPU    139.01s WALL (   36633 calls)
     fft_scatt_yz :    152.31s CPU    159.21s WALL (   36633 calls)

     PWSCF        :  54m56.17s CPU  55m26.55s WALL


   This run was terminated on:   9:28:14  26Jun2022            

=------------------------------------------------------------------------------=
   JOB DONE.
=------------------------------------------------------------------------------=
