
     Program PWSCF v.6.4.1 starts on 26Jun2022 at  4:17:26 

     This program is part of the open-source Quantum ESPRESSO suite
     for quantum simulation of materials; please cite
         "P. Giannozzi et al., J. Phys.:Condens. Matter 21 395502 (2009);
         "P. Giannozzi et al., J. Phys.:Condens. Matter 29 465901 (2017);
          URL http://www.quantum-espresso.org", 
     in publications or presentations arising from this work. More details at
     http://www.quantum-espresso.org/quote

     Parallel version (MPI), running on     5 processors

     MPI processes distributed on     1 nodes
     R & G space division:  proc/nbgrp/npool/nimage =       5
     Reading input from distance-2.8.in

     Current dimensions of program PWSCF are:
     Max number of different atomic species (ntypx) = 10
     Max number of k-points (npk) =  40000
     Max angular momentum in pseudopotentials (lmaxx) =  3

     IMPORTANT: XC functional enforced from input :
     Exchange-correlation      = RVV10 ( 1  4 13  4 3 0)
     Any further DFT definition will be discarded
     Please, verify this is what you really want

               file H.pbe-rrkjus.UPF: wavefunction(s)  1S renormalized
               file H.pbe-rrkjus.UPF: wavefunction(s)  1S renormalized

     Subspace diagonalization in iterative solution of the eigenvalue problem:
     a serial algorithm will be used


     Parallelization info
     --------------------
     sticks:   dense  smooth     PW     G-vecs:    dense   smooth      PW
     Min        3662    2095    542               487826   210779   27834
     Max        3663    2096    543               487829   210784   27841
     Sum       18313   10477   2713              2439139  1053907  139193



     bravais-lattice index     =            4
     lattice parameter (alat)  =      23.2937  a.u.
     unit-cell volume          =   13319.7822 (a.u.)^3
     number of atoms/cell      =           52
     number of atomic types    =            3
     number of electrons       =       202.00
     number of Kohn-Sham states=          121
     kinetic-energy cutoff     =      70.0000  Ry
     charge density cutoff     =     490.0000  Ry
     convergence threshold     =      1.0E-06
     mixing beta               =       0.7000
     number of iterations used =            8  plain     mixing
     Exchange-correlation      = RVV10 ( 1  4 13  4 3 0)

     celldm(1)=  23.293684  celldm(2)=   0.000000  celldm(3)=   1.216892
     celldm(4)=   0.000000  celldm(5)=   0.000000  celldm(6)=   0.000000

     crystal axes: (cart. coord. in units of alat)
               a(1) = (   1.000000   0.000000   0.000000 )  
               a(2) = (  -0.500000   0.866025   0.000000 )  
               a(3) = (   0.000000   0.000000   1.216892 )  

     reciprocal axes: (cart. coord. in units 2 pi/alat)
               b(1) = (  1.000000  0.577350 -0.000000 )  
               b(2) = (  0.000000  1.154701  0.000000 )  
               b(3) = (  0.000000 -0.000000  0.821766 )  


     PseudoPot. # 1 for H  read from file:
     /home/cristian/Escritorio/Proyecto_Grafeno/pseudopotenciales/H.pbe-rrkjus.UPF
     MD5 check sum: 7cc9d459525c9a0585f487a71c3c9563
     Pseudo is Ultrasoft, Zval =  1.0
     Generated by new atomic code, or converted to UPF format
     Using radial grid of 1061 points,  2 beta functions with: 
                l(1) =   0
                l(2) =   0
     Q(r) pseudized with 0 coefficients 


     PseudoPot. # 2 for H  read from file:
     /home/cristian/Escritorio/Proyecto_Grafeno/pseudopotenciales/H.pbe-rrkjus.UPF
     MD5 check sum: 7cc9d459525c9a0585f487a71c3c9563
     Pseudo is Ultrasoft, Zval =  1.0
     Generated by new atomic code, or converted to UPF format
     Using radial grid of 1061 points,  2 beta functions with: 
                l(1) =   0
                l(2) =   0
     Q(r) pseudized with 0 coefficients 


     PseudoPot. # 3 for C  read from file:
     /home/cristian/Escritorio/Proyecto_Grafeno/pseudopotenciales/C.pbe-n-rrkjus_psl.1.0.0.UPF
     MD5 check sum: 1fdd950c42eb37d8afe3dd2f8d12311e
     Pseudo is Ultrasoft + core correction, Zval =  4.0
     Generated using "atomic" code by A. Dal Corso v.6.3MaX
     Using radial grid of 1073 points,  4 beta functions with: 
                l(1) =   0
                l(2) =   0
                l(3) =   1
                l(4) =   1
     Q(r) pseudized with 0 coefficients 


     vdW kernel table read from file rVV10_kernel_table
     MD5 check sum: b8e2538accc0c0b3206b45ba4daaba6c

     atomic species   valence    mass     pseudopotential
        H1             1.00     1.00794     H ( 1.00)
        H2             1.00     1.00794     H ( 1.00)
        C              4.00    12.01070     C ( 1.00)

     No symmetry found



   Cartesian axes

     site n.     atom                  positions (alat units)
         1           H1  tau(   1) = (   0.1694937   0.4618802   0.2271531  )
         2           H2  tau(   2) = (   0.2305063   0.4618802   0.2271531  )
         3           C   tau(   3) = (   0.0000000   0.0000000   0.0000000  )
         4           C   tau(   4) = (   0.0000000   0.1154701   0.0000000  )
         5           C   tau(   5) = (  -0.1000000   0.1732051   0.0000000  )
         6           C   tau(   6) = (  -0.1000000   0.2886751   0.0000000  )
         7           C   tau(   7) = (  -0.2000000   0.3464102   0.0000000  )
         8           C   tau(   8) = (  -0.2000000   0.4618802   0.0000000  )
         9           C   tau(   9) = (  -0.3000000   0.5196152   0.0000000  )
        10           C   tau(  10) = (  -0.3000000   0.6350853   0.0000000  )
        11           C   tau(  11) = (  -0.4000000   0.6928203   0.0000000  )
        12           C   tau(  12) = (  -0.4000000   0.8082904   0.0000000  )
        13           C   tau(  13) = (   0.2000000   0.0000000   0.0000000  )
        14           C   tau(  14) = (   0.2000000   0.1154701   0.0000000  )
        15           C   tau(  15) = (   0.1000000   0.1732051   0.0000000  )
        16           C   tau(  16) = (   0.1000000   0.2886751   0.0000000  )
        17           C   tau(  17) = (   0.0000000   0.3464102   0.0000000  )
        18           C   tau(  18) = (   0.0000000   0.4618802   0.0000000  )
        19           C   tau(  19) = (  -0.1000000   0.5196152   0.0000000  )
        20           C   tau(  20) = (  -0.1000000   0.6350853   0.0000000  )
        21           C   tau(  21) = (  -0.2000000   0.6928203   0.0000000  )
        22           C   tau(  22) = (  -0.2000000   0.8082904   0.0000000  )
        23           C   tau(  23) = (   0.4000000   0.0000000   0.0000000  )
        24           C   tau(  24) = (   0.4000000   0.1154701   0.0000000  )
        25           C   tau(  25) = (   0.3000000   0.1732051   0.0000000  )
        26           C   tau(  26) = (   0.3000000   0.2886751   0.0000000  )
        27           C   tau(  27) = (   0.2000000   0.3464102   0.0000000  )
        28           C   tau(  28) = (   0.2000000   0.4618802   0.0000000  )
        29           C   tau(  29) = (   0.1000000   0.5196152   0.0000000  )
        30           C   tau(  30) = (   0.1000000   0.6350853   0.0000000  )
        31           C   tau(  31) = (   0.0000000   0.6928203   0.0000000  )
        32           C   tau(  32) = (   0.0000000   0.8082904   0.0000000  )
        33           C   tau(  33) = (   0.6000000   0.0000000   0.0000000  )
        34           C   tau(  34) = (   0.6000000   0.1154701   0.0000000  )
        35           C   tau(  35) = (   0.5000000   0.1732051   0.0000000  )
        36           C   tau(  36) = (   0.5000000   0.2886751   0.0000000  )
        37           C   tau(  37) = (   0.4000000   0.3464102   0.0000000  )
        38           C   tau(  38) = (   0.4000000   0.4618802   0.0000000  )
        39           C   tau(  39) = (   0.3000000   0.5196152   0.0000000  )
        40           C   tau(  40) = (   0.3000000   0.6350853   0.0000000  )
        41           C   tau(  41) = (   0.2000000   0.6928203   0.0000000  )
        42           C   tau(  42) = (   0.2000000   0.8082904   0.0000000  )
        43           C   tau(  43) = (   0.8000000   0.0000000   0.0000000  )
        44           C   tau(  44) = (   0.8000000   0.1154701   0.0000000  )
        45           C   tau(  45) = (   0.7000000   0.1732051   0.0000000  )
        46           C   tau(  46) = (   0.7000000   0.2886751   0.0000000  )
        47           C   tau(  47) = (   0.6000000   0.3464102   0.0000000  )
        48           C   tau(  48) = (   0.6000000   0.4618802   0.0000000  )
        49           C   tau(  49) = (   0.5000000   0.5196152   0.0000000  )
        50           C   tau(  50) = (   0.5000000   0.6350853   0.0000000  )
        51           C   tau(  51) = (   0.4000000   0.6928203   0.0000000  )
        52           C   tau(  52) = (   0.4000000   0.8082904   0.0000000  )

     number of k points=     4  Marzari-Vanderbilt smearing, width (Ry)=  0.0010
                       cart. coord. in units 2pi/alat
        k(    1) = (   0.0000000   0.0000000   0.0000000), wk =   0.5000000
        k(    2) = (   0.0000000  -0.5773503   0.0000000), wk =   0.5000000
        k(    3) = (   0.5000000  -0.2886751   0.0000000), wk =   0.5000000
        k(    4) = (  -0.5000000  -0.2886751   0.0000000), wk =   0.5000000

     Dense  grid:  2439139 G-vectors     FFT dimensions: ( 180, 180, 200)

     Smooth grid:  1053907 G-vectors     FFT dimensions: ( 125, 125, 160)

     Estimated max dynamical RAM per process >       1.39 GB

     Estimated total dynamical RAM >       6.95 GB

     Check: negative core charge=   -0.000001

     Initial potential from superposition of free atoms

     starting charge  201.80551, renormalised to  202.00000

     negative rho (up, down):  1.063E-03 0.000E+00


---------------------------------------------------------------------------------
Carrying out rVV10 run using the following parameters:
Nqs =      20    Nr_points =    1024   r_max =   100.000
b_value =  6.30000    beta =  0.00901
     q_mesh =  0.00010000  0.00030000  0.00058939  0.00100810
               0.00161396  0.00249058  0.00375900  0.00559430
               0.00824984  0.01209221  0.01765183  0.02569619
               0.03733578  0.05417739  0.07854596  0.11380545
               0.16482331  0.23864234  0.34545298  0.50000000

Gradients computed in Reciprocal space

---------------------------------------------------------------------------------


     Starting wfcs are  202 randomized atomic wfcs

     total cpu time spent up to now is      167.5 secs

     Self-consistent Calculation

     iteration #  1     ecut=    70.00 Ry     beta= 0.70
     Davidson diagonalization with overlap
     ethr =  1.00E-02,  avg # of iterations =  2.0

     negative rho (up, down):  1.158E-03 0.000E+00

     total cpu time spent up to now is      480.6 secs

     total energy              =    -624.70280378 Ry
     Harris-Foulkes estimate   =    -628.26822993 Ry
     estimated scf accuracy    <       5.90663895 Ry

     iteration #  2     ecut=    70.00 Ry     beta= 0.70
     Davidson diagonalization with overlap
     ethr =  2.92E-03,  avg # of iterations =  8.5

     negative rho (up, down):  1.351E-03 0.000E+00

     total cpu time spent up to now is      783.7 secs

     total energy              =    -625.40205750 Ry
     Harris-Foulkes estimate   =    -625.76608866 Ry
     estimated scf accuracy    <       0.51819752 Ry

     iteration #  3     ecut=    70.00 Ry     beta= 0.70
     Davidson diagonalization with overlap
     ethr =  2.57E-04,  avg # of iterations = 10.0

     negative rho (up, down):  1.410E-03 0.000E+00

     total cpu time spent up to now is     1136.2 secs

     total energy              =    -625.37192354 Ry
     Harris-Foulkes estimate   =    -625.95468425 Ry
     estimated scf accuracy    <       1.52938638 Ry

     iteration #  4     ecut=    70.00 Ry     beta= 0.70
     Davidson diagonalization with overlap
     ethr =  2.57E-04,  avg # of iterations =  5.2

     negative rho (up, down):  1.506E-03 0.000E+00

     total cpu time spent up to now is     1420.1 secs

     total energy              =    -625.65333252 Ry
     Harris-Foulkes estimate   =    -625.66479972 Ry
     estimated scf accuracy    <       0.02692507 Ry

     iteration #  5     ecut=    70.00 Ry     beta= 0.70
     Davidson diagonalization with overlap
     ethr =  1.33E-05,  avg # of iterations =  7.2

     negative rho (up, down):  1.681E-03 0.000E+00

     total cpu time spent up to now is     1732.3 secs

     total energy              =    -625.65858469 Ry
     Harris-Foulkes estimate   =    -625.66332574 Ry
     estimated scf accuracy    <       0.01034344 Ry

     iteration #  6     ecut=    70.00 Ry     beta= 0.70
     Davidson diagonalization with overlap
     ethr =  5.12E-06,  avg # of iterations =  5.5

     negative rho (up, down):  1.829E-03 0.000E+00

     total cpu time spent up to now is     2002.5 secs

     total energy              =    -625.66066307 Ry
     Harris-Foulkes estimate   =    -625.66085276 Ry
     estimated scf accuracy    <       0.00032079 Ry

     iteration #  7     ecut=    70.00 Ry     beta= 0.70
     Davidson diagonalization with overlap
     ethr =  1.59E-07,  avg # of iterations = 12.8

     negative rho (up, down):  1.897E-03 0.000E+00

     total cpu time spent up to now is     2306.4 secs

     total energy              =    -625.66075262 Ry
     Harris-Foulkes estimate   =    -625.66078466 Ry
     estimated scf accuracy    <       0.00004757 Ry

     iteration #  8     ecut=    70.00 Ry     beta= 0.70
     Davidson diagonalization with overlap
     ethr =  2.35E-08,  avg # of iterations =  2.0

     negative rho (up, down):  1.906E-03 0.000E+00

     total cpu time spent up to now is     2572.8 secs

     total energy              =    -625.66076294 Ry
     Harris-Foulkes estimate   =    -625.66076656 Ry
     estimated scf accuracy    <       0.00000459 Ry

     iteration #  9     ecut=    70.00 Ry     beta= 0.70
     Davidson diagonalization with overlap
     ethr =  2.27E-09,  avg # of iterations =  2.2

     negative rho (up, down):  1.907E-03 0.000E+00

     total cpu time spent up to now is     2839.4 secs

     total energy              =    -625.66076372 Ry
     Harris-Foulkes estimate   =    -625.66076481 Ry
     estimated scf accuracy    <       0.00000199 Ry

     iteration # 10     ecut=    70.00 Ry     beta= 0.70
     Davidson diagonalization with overlap
     ethr =  9.85E-10,  avg # of iterations =  2.2

     negative rho (up, down):  1.908E-03 0.000E+00

     total cpu time spent up to now is     3077.6 secs

     End of self-consistent calculation

          k = 0.0000 0.0000 0.0000 (131685 PWs)   bands (ev):

   -21.1879 -20.2527 -20.2524 -20.2521 -20.2517 -20.2502 -20.2481 -18.4170
   -18.4167 -18.4163 -18.4158 -18.4147 -18.4140 -17.5240 -17.5240 -17.5236
   -17.5229 -17.5223 -17.5218 -15.3797 -15.3792 -15.3790 -15.3779 -15.3778
   -15.3770 -14.3715 -14.3709 -14.3709 -14.3699 -14.3698 -14.3692 -13.0305
   -13.0300 -13.0298 -13.0294 -13.0291 -13.0289 -10.6697 -10.6696 -10.6695
   -10.6688 -10.6685 -10.6682 -10.5477 -10.5475 -10.5471 -10.5467 -10.5457
   -10.5456  -9.3408  -9.1749  -9.1746  -9.1744  -9.1741  -9.1731  -9.1729
    -8.4351  -8.2067  -8.2039  -8.2036  -8.2031  -8.2021  -7.9278  -7.9277
    -7.9270  -7.9262  -7.9254  -7.9252  -7.8756  -7.8752  -7.8746  -7.8745
    -7.8733  -7.8732  -7.7244  -6.2810  -6.2805  -6.2800  -6.2800  -6.2784
    -6.2782  -6.0756  -6.0728  -6.0723  -6.0722  -6.0716  -6.0356  -5.1768
    -5.1749  -5.1744  -5.1739  -5.1737  -5.1545  -4.8082  -4.8082  -3.1901
    -3.1893  -3.1887  -3.1884  -3.1883  -3.1831  -0.3989  -0.3949  -0.3944
    -0.3936  -0.3931  -0.3923   1.3602   1.4471   1.4579   1.4622   1.4624
     1.4631   1.4640   2.2375   2.2504   2.4868   2.5912   2.5931   2.6635
     2.8571

          k = 0.0000-0.5774 0.0000 (131762 PWs)   bands (ev):

   -20.9529 -20.9526 -20.4854 -20.4834 -19.5573 -19.5570 -19.5555 -19.5548
   -19.0964 -19.0962 -18.1902 -18.1900 -18.1898 -18.1893 -16.8737 -16.8736
   -16.8718 -16.8713 -16.4678 -16.4672 -16.4666 -16.4665 -15.9828 -15.2558
   -15.2558 -14.9155 -14.0514 -14.0513 -14.0504 -14.0501 -13.5797 -13.5794
   -12.6467 -12.6464 -12.6449 -12.6442 -11.8492 -11.8488 -11.6899 -11.6897
   -11.6894 -11.6894 -10.4705 -10.4703 -10.2423 -10.2420 -10.2416 -10.2400
    -9.1987  -9.1985  -9.1985  -9.1979  -9.0854  -9.0385  -8.8271  -8.8270
    -8.8252  -8.8247  -8.5442  -8.4813  -8.3517  -8.3516  -8.3507  -8.3503
    -8.1585  -7.9653  -7.4396  -7.4386  -7.4385  -7.4376  -7.3886  -7.3865
    -7.3854  -7.2919  -7.2617  -7.2609  -7.0549  -7.0534  -6.8608  -6.8317
    -6.2080  -6.2063  -5.8432  -5.8390  -5.8389  -5.8204  -5.7151  -5.7143
    -5.2752  -5.2743  -4.4001  -4.3987  -4.3981  -4.3897  -4.1956  -4.1946
    -4.1945  -4.1877  -4.0463  -2.7134  -2.7115  -0.6773  -0.6757  -0.0251
     0.3526   0.3612   0.3619   0.3625   1.0091   1.0095   1.0103   1.0113
     1.6160   1.7168   2.0731   2.3469   2.5380   2.6072   2.6143   2.6291
     2.6293

          k = 0.5000-0.2887 0.0000 (131762 PWs)   bands (ev):

   -20.9538 -20.9518 -20.4848 -20.4841 -19.5569 -19.5567 -19.5561 -19.5548
   -19.0966 -19.0960 -18.1910 -18.1909 -18.1889 -18.1887 -16.8733 -16.8728
   -16.8726 -16.8718 -16.4677 -16.4672 -16.4668 -16.4665 -15.9827 -15.2559
   -15.2558 -14.9156 -14.0516 -14.0512 -14.0504 -14.0498 -13.5795 -13.5795
   -12.6462 -12.6459 -12.6455 -12.6445 -11.8491 -11.8489 -11.6903 -11.6901
   -11.6891 -11.6890 -10.4705 -10.4703 -10.2427 -10.2426 -10.2411 -10.2396
    -9.1987  -9.1986  -9.1985  -9.1979  -9.0841  -9.0398  -8.8271  -8.8264
    -8.8256  -8.8249  -8.5462  -8.4799  -8.3522  -8.3518  -8.3505  -8.3499
    -8.1585  -7.9638  -7.4393  -7.4387  -7.4384  -7.4380  -7.3882  -7.3864
    -7.3859  -7.2920  -7.2621  -7.2604  -7.0545  -7.0537  -6.8620  -6.8328
    -6.2076  -6.2066  -5.8410  -5.8401  -5.8399  -5.8182  -5.7157  -5.7137
    -5.2759  -5.2736  -4.4006  -4.3985  -4.3979  -4.3909  -4.1956  -4.1946
    -4.1942  -4.1876  -4.0468  -2.7133  -2.7112  -0.6765  -0.6762  -0.0269
     0.3560   0.3606   0.3618   0.3627   1.0062   1.0099   1.0104   1.0109
     1.5838   1.7211   2.1743   2.3447   2.4766   2.6086   2.6238   2.6287
     2.6294

          k =-0.5000-0.2887 0.0000 (131762 PWs)   bands (ev):

   -20.9538 -20.9518 -20.4848 -20.4841 -19.5569 -19.5567 -19.5561 -19.5548
   -19.0966 -19.0960 -18.1910 -18.1909 -18.1889 -18.1887 -16.8733 -16.8728
   -16.8726 -16.8718 -16.4677 -16.4672 -16.4668 -16.4665 -15.9827 -15.2559
   -15.2558 -14.9156 -14.0516 -14.0512 -14.0504 -14.0498 -13.5795 -13.5795
   -12.6462 -12.6458 -12.6455 -12.6445 -11.8491 -11.8489 -11.6903 -11.6901
   -11.6891 -11.6890 -10.4705 -10.4703 -10.2427 -10.2426 -10.2411 -10.2396
    -9.1987  -9.1986  -9.1985  -9.1979  -9.0841  -9.0398  -8.8271  -8.8264
    -8.8256  -8.8249  -8.5462  -8.4799  -8.3522  -8.3518  -8.3505  -8.3498
    -8.1585  -7.9638  -7.4393  -7.4387  -7.4384  -7.4380  -7.3882  -7.3864
    -7.3859  -7.2920  -7.2621  -7.2604  -7.0545  -7.0537  -6.8620  -6.8328
    -6.2076  -6.2066  -5.8410  -5.8401  -5.8399  -5.8182  -5.7157  -5.7137
    -5.2759  -5.2736  -4.4006  -4.3985  -4.3979  -4.3909  -4.1956  -4.1946
    -4.1942  -4.1876  -4.0468  -2.7133  -2.7112  -0.6765  -0.6762  -0.0269
     0.3560   0.3606   0.3618   0.3627   1.0062   1.0099   1.0104   1.0109
     1.5838   1.7211   2.1743   2.3447   2.4766   2.6086   2.6238   2.6287
     2.6294

     the Fermi energy is    -1.6344 ev

!    total energy              =    -625.66076391 Ry
     Harris-Foulkes estimate   =    -625.66076424 Ry
     estimated scf accuracy    <       0.00000023 Ry

     The total energy is the sum of the following terms:

     one-electron contribution =   -3942.33526834 Ry
     hartree contribution      =    2008.09811790 Ry
     xc contribution           =    -235.30828542 Ry
     ewald contribution        =    1543.88467194 Ry
     smearing contrib. (-TS)   =       0.00000000 Ry

     convergence has been achieved in  10 iterations

     Writing output data file distance-2.8.save/

     init_run     :    165.14s CPU    167.01s WALL (       1 calls)
     electrons    :   2886.17s CPU   2910.25s WALL (       1 calls)

     Called by init_run:
     wfcinit      :    129.24s CPU    130.21s WALL (       1 calls)
     potinit      :     18.13s CPU     18.64s WALL (       1 calls)
     hinit0       :     11.45s CPU     11.49s WALL (       1 calls)

     Called by electrons:
     c_bands      :   2405.36s CPU   2417.00s WALL (      10 calls)
     sum_band     :    321.20s CPU    324.88s WALL (      10 calls)
     v_of_rho     :    113.01s CPU    119.52s WALL (      11 calls)
     newd         :     57.24s CPU     60.16s WALL (      11 calls)
     mix_rho      :      2.90s CPU      2.93s WALL (      10 calls)

     Called by c_bands:
     init_us_2    :      5.98s CPU      6.06s WALL (      84 calls)
     cegterg      :   2390.16s CPU   2401.68s WALL (      40 calls)

     Called by sum_band:
     sum_band:bec :      0.03s CPU      0.03s WALL (      40 calls)
     addusdens    :     82.88s CPU     85.28s WALL (      10 calls)

     Called by *egterg:
     h_psi        :   1292.75s CPU   1301.64s WALL (     275 calls)
     s_psi        :    408.15s CPU    408.50s WALL (     275 calls)
     g_psi        :      1.63s CPU      1.63s WALL (     231 calls)
     cdiaghg      :     24.74s CPU     24.77s WALL (     271 calls)

     Called by h_psi:
     h_psi:pot    :   1291.05s CPU   1298.55s WALL (     275 calls)
     h_psi:calbec :    410.03s CPU    410.32s WALL (     275 calls)
     vloc_psi     :    473.23s CPU    480.21s WALL (     275 calls)
     add_vuspsi   :    407.79s CPU    408.02s WALL (     275 calls)

     General routines
     calbec       :    549.96s CPU    550.34s WALL (     315 calls)
     fft          :     63.18s CPU     65.44s WALL (     691 calls)
     ffts         :      0.68s CPU      0.71s WALL (      21 calls)
     fftw         :    477.24s CPU    484.18s WALL (   33186 calls)
     interpolate  :      1.56s CPU      1.61s WALL (      11 calls)

     Parallel routines
     fft_scatt_xy :    124.86s CPU    125.75s WALL (   33898 calls)
     fft_scatt_yz :    141.80s CPU    148.04s WALL (   33898 calls)

     PWSCF        :  50m52.23s CPU  51m18.87s WALL


   This run was terminated on:   5: 8:44  26Jun2022            

=------------------------------------------------------------------------------=
   JOB DONE.
=------------------------------------------------------------------------------=
