
     Program PWSCF v.6.4.1 starts on 26Jun2022 at  1:26: 9 

     This program is part of the open-source Quantum ESPRESSO suite
     for quantum simulation of materials; please cite
         "P. Giannozzi et al., J. Phys.:Condens. Matter 21 395502 (2009);
         "P. Giannozzi et al., J. Phys.:Condens. Matter 29 465901 (2017);
          URL http://www.quantum-espresso.org", 
     in publications or presentations arising from this work. More details at
     http://www.quantum-espresso.org/quote

     Parallel version (MPI), running on     5 processors

     MPI processes distributed on     1 nodes
     R & G space division:  proc/nbgrp/npool/nimage =       5
     Reading input from distance-4.5.in

     Current dimensions of program PWSCF are:
     Max number of different atomic species (ntypx) = 10
     Max number of k-points (npk) =  40000
     Max angular momentum in pseudopotentials (lmaxx) =  3

     IMPORTANT: XC functional enforced from input :
     Exchange-correlation      = RVV10 ( 1  4 13  4 3 0)
     Any further DFT definition will be discarded
     Please, verify this is what you really want

               file H.pbe-rrkjus.UPF: wavefunction(s)  1S renormalized
               file H.pbe-rrkjus.UPF: wavefunction(s)  1S renormalized

     Subspace diagonalization in iterative solution of the eigenvalue problem:
     a serial algorithm will be used


     Parallelization info
     --------------------
     sticks:   dense  smooth     PW     G-vecs:    dense   smooth      PW
     Min        3662    2095    542               487826   210779   27834
     Max        3663    2096    543               487829   210784   27841
     Sum       18313   10477   2713              2439139  1053907  139193



     bravais-lattice index     =            4
     lattice parameter (alat)  =      23.2937  a.u.
     unit-cell volume          =   13319.7822 (a.u.)^3
     number of atoms/cell      =           52
     number of atomic types    =            3
     number of electrons       =       202.00
     number of Kohn-Sham states=          121
     kinetic-energy cutoff     =      70.0000  Ry
     charge density cutoff     =     490.0000  Ry
     convergence threshold     =      1.0E-06
     mixing beta               =       0.7000
     number of iterations used =            8  plain     mixing
     Exchange-correlation      = RVV10 ( 1  4 13  4 3 0)

     celldm(1)=  23.293684  celldm(2)=   0.000000  celldm(3)=   1.216892
     celldm(4)=   0.000000  celldm(5)=   0.000000  celldm(6)=   0.000000

     crystal axes: (cart. coord. in units of alat)
               a(1) = (   1.000000   0.000000   0.000000 )  
               a(2) = (  -0.500000   0.866025   0.000000 )  
               a(3) = (   0.000000   0.000000   1.216892 )  

     reciprocal axes: (cart. coord. in units 2 pi/alat)
               b(1) = (  1.000000  0.577350 -0.000000 )  
               b(2) = (  0.000000  1.154701  0.000000 )  
               b(3) = (  0.000000 -0.000000  0.821766 )  


     PseudoPot. # 1 for H  read from file:
     /home/cristian/Escritorio/Proyecto_Grafeno/pseudopotenciales/H.pbe-rrkjus.UPF
     MD5 check sum: 7cc9d459525c9a0585f487a71c3c9563
     Pseudo is Ultrasoft, Zval =  1.0
     Generated by new atomic code, or converted to UPF format
     Using radial grid of 1061 points,  2 beta functions with: 
                l(1) =   0
                l(2) =   0
     Q(r) pseudized with 0 coefficients 


     PseudoPot. # 2 for H  read from file:
     /home/cristian/Escritorio/Proyecto_Grafeno/pseudopotenciales/H.pbe-rrkjus.UPF
     MD5 check sum: 7cc9d459525c9a0585f487a71c3c9563
     Pseudo is Ultrasoft, Zval =  1.0
     Generated by new atomic code, or converted to UPF format
     Using radial grid of 1061 points,  2 beta functions with: 
                l(1) =   0
                l(2) =   0
     Q(r) pseudized with 0 coefficients 


     PseudoPot. # 3 for C  read from file:
     /home/cristian/Escritorio/Proyecto_Grafeno/pseudopotenciales/C.pbe-n-rrkjus_psl.1.0.0.UPF
     MD5 check sum: 1fdd950c42eb37d8afe3dd2f8d12311e
     Pseudo is Ultrasoft + core correction, Zval =  4.0
     Generated using "atomic" code by A. Dal Corso v.6.3MaX
     Using radial grid of 1073 points,  4 beta functions with: 
                l(1) =   0
                l(2) =   0
                l(3) =   1
                l(4) =   1
     Q(r) pseudized with 0 coefficients 


     vdW kernel table read from file rVV10_kernel_table
     MD5 check sum: b8e2538accc0c0b3206b45ba4daaba6c

     atomic species   valence    mass     pseudopotential
        H1             1.00     1.00794     H ( 1.00)
        H2             1.00     1.00794     H ( 1.00)
        C              4.00    12.01070     C ( 1.00)

     No symmetry found



   Cartesian axes

     site n.     atom                  positions (alat units)
         1           H1  tau(   1) = (   0.1694937   0.4618802   0.3650675  )
         2           H2  tau(   2) = (   0.2305063   0.4618802   0.3650675  )
         3           C   tau(   3) = (   0.0000000   0.0000000   0.0000000  )
         4           C   tau(   4) = (   0.0000000   0.1154701   0.0000000  )
         5           C   tau(   5) = (  -0.1000000   0.1732051   0.0000000  )
         6           C   tau(   6) = (  -0.1000000   0.2886751   0.0000000  )
         7           C   tau(   7) = (  -0.2000000   0.3464102   0.0000000  )
         8           C   tau(   8) = (  -0.2000000   0.4618802   0.0000000  )
         9           C   tau(   9) = (  -0.3000000   0.5196152   0.0000000  )
        10           C   tau(  10) = (  -0.3000000   0.6350853   0.0000000  )
        11           C   tau(  11) = (  -0.4000000   0.6928203   0.0000000  )
        12           C   tau(  12) = (  -0.4000000   0.8082904   0.0000000  )
        13           C   tau(  13) = (   0.2000000   0.0000000   0.0000000  )
        14           C   tau(  14) = (   0.2000000   0.1154701   0.0000000  )
        15           C   tau(  15) = (   0.1000000   0.1732051   0.0000000  )
        16           C   tau(  16) = (   0.1000000   0.2886751   0.0000000  )
        17           C   tau(  17) = (   0.0000000   0.3464102   0.0000000  )
        18           C   tau(  18) = (   0.0000000   0.4618802   0.0000000  )
        19           C   tau(  19) = (  -0.1000000   0.5196152   0.0000000  )
        20           C   tau(  20) = (  -0.1000000   0.6350853   0.0000000  )
        21           C   tau(  21) = (  -0.2000000   0.6928203   0.0000000  )
        22           C   tau(  22) = (  -0.2000000   0.8082904   0.0000000  )
        23           C   tau(  23) = (   0.4000000   0.0000000   0.0000000  )
        24           C   tau(  24) = (   0.4000000   0.1154701   0.0000000  )
        25           C   tau(  25) = (   0.3000000   0.1732051   0.0000000  )
        26           C   tau(  26) = (   0.3000000   0.2886751   0.0000000  )
        27           C   tau(  27) = (   0.2000000   0.3464102   0.0000000  )
        28           C   tau(  28) = (   0.2000000   0.4618802   0.0000000  )
        29           C   tau(  29) = (   0.1000000   0.5196152   0.0000000  )
        30           C   tau(  30) = (   0.1000000   0.6350853   0.0000000  )
        31           C   tau(  31) = (   0.0000000   0.6928203   0.0000000  )
        32           C   tau(  32) = (   0.0000000   0.8082904   0.0000000  )
        33           C   tau(  33) = (   0.6000000   0.0000000   0.0000000  )
        34           C   tau(  34) = (   0.6000000   0.1154701   0.0000000  )
        35           C   tau(  35) = (   0.5000000   0.1732051   0.0000000  )
        36           C   tau(  36) = (   0.5000000   0.2886751   0.0000000  )
        37           C   tau(  37) = (   0.4000000   0.3464102   0.0000000  )
        38           C   tau(  38) = (   0.4000000   0.4618802   0.0000000  )
        39           C   tau(  39) = (   0.3000000   0.5196152   0.0000000  )
        40           C   tau(  40) = (   0.3000000   0.6350853   0.0000000  )
        41           C   tau(  41) = (   0.2000000   0.6928203   0.0000000  )
        42           C   tau(  42) = (   0.2000000   0.8082904   0.0000000  )
        43           C   tau(  43) = (   0.8000000   0.0000000   0.0000000  )
        44           C   tau(  44) = (   0.8000000   0.1154701   0.0000000  )
        45           C   tau(  45) = (   0.7000000   0.1732051   0.0000000  )
        46           C   tau(  46) = (   0.7000000   0.2886751   0.0000000  )
        47           C   tau(  47) = (   0.6000000   0.3464102   0.0000000  )
        48           C   tau(  48) = (   0.6000000   0.4618802   0.0000000  )
        49           C   tau(  49) = (   0.5000000   0.5196152   0.0000000  )
        50           C   tau(  50) = (   0.5000000   0.6350853   0.0000000  )
        51           C   tau(  51) = (   0.4000000   0.6928203   0.0000000  )
        52           C   tau(  52) = (   0.4000000   0.8082904   0.0000000  )

     number of k points=     4  Marzari-Vanderbilt smearing, width (Ry)=  0.0010
                       cart. coord. in units 2pi/alat
        k(    1) = (   0.0000000   0.0000000   0.0000000), wk =   0.5000000
        k(    2) = (   0.0000000  -0.5773503   0.0000000), wk =   0.5000000
        k(    3) = (   0.5000000  -0.2886751   0.0000000), wk =   0.5000000
        k(    4) = (  -0.5000000  -0.2886751   0.0000000), wk =   0.5000000

     Dense  grid:  2439139 G-vectors     FFT dimensions: ( 180, 180, 200)

     Smooth grid:  1053907 G-vectors     FFT dimensions: ( 125, 125, 160)

     Estimated max dynamical RAM per process >       1.39 GB

     Estimated total dynamical RAM >       6.95 GB

     Check: negative core charge=   -0.000001

     Initial potential from superposition of free atoms

     starting charge  201.80551, renormalised to  202.00000

     negative rho (up, down):  8.603E-04 0.000E+00


---------------------------------------------------------------------------------
Carrying out rVV10 run using the following parameters:
Nqs =      20    Nr_points =    1024   r_max =   100.000
b_value =  6.30000    beta =  0.00901
     q_mesh =  0.00010000  0.00030000  0.00058939  0.00100810
               0.00161396  0.00249058  0.00375900  0.00559430
               0.00824984  0.01209221  0.01765183  0.02569619
               0.03733578  0.05417739  0.07854596  0.11380545
               0.16482331  0.23864234  0.34545298  0.50000000

Gradients computed in Reciprocal space

---------------------------------------------------------------------------------


     Starting wfcs are  202 randomized atomic wfcs

     total cpu time spent up to now is      167.7 secs

     Self-consistent Calculation

     iteration #  1     ecut=    70.00 Ry     beta= 0.70
     Davidson diagonalization with overlap
     ethr =  1.00E-02,  avg # of iterations =  2.0

     negative rho (up, down):  8.773E-04 0.000E+00

     total cpu time spent up to now is      488.3 secs

     total energy              =    -624.76055737 Ry
     Harris-Foulkes estimate   =    -628.28527229 Ry
     estimated scf accuracy    <       5.86755874 Ry

     iteration #  2     ecut=    70.00 Ry     beta= 0.70
     Davidson diagonalization with overlap
     ethr =  2.90E-03,  avg # of iterations =  7.5

     negative rho (up, down):  1.048E-03 0.000E+00

     total cpu time spent up to now is      773.4 secs

     total energy              =    -625.63977327 Ry
     Harris-Foulkes estimate   =    -625.67872670 Ry
     estimated scf accuracy    <       0.11983923 Ry

     iteration #  3     ecut=    70.00 Ry     beta= 0.70
     Davidson diagonalization with overlap
     c_bands:  1 eigenvalues not converged
     ethr =  5.93E-05,  avg # of iterations = 15.5

     negative rho (up, down):  1.113E-03 0.000E+00

     total cpu time spent up to now is     1096.6 secs

     total energy              =    -625.63419882 Ry
     Harris-Foulkes estimate   =    -625.66982859 Ry
     estimated scf accuracy    <       0.05920791 Ry

     iteration #  4     ecut=    70.00 Ry     beta= 0.70
     Davidson diagonalization with overlap
     ethr =  2.93E-05,  avg # of iterations =  6.5

     negative rho (up, down):  1.324E-03 0.000E+00

     total cpu time spent up to now is     1397.7 secs

     total energy              =    -625.64709454 Ry
     Harris-Foulkes estimate   =    -625.67358624 Ry
     estimated scf accuracy    <       0.07272865 Ry

     iteration #  5     ecut=    70.00 Ry     beta= 0.70
     Davidson diagonalization with overlap
     ethr =  2.93E-05,  avg # of iterations =  6.0

     negative rho (up, down):  1.538E-03 0.000E+00

     total cpu time spent up to now is     1655.5 secs

     total energy              =    -625.65911776 Ry
     Harris-Foulkes estimate   =    -625.65948363 Ry
     estimated scf accuracy    <       0.00062363 Ry

     iteration #  6     ecut=    70.00 Ry     beta= 0.70
     Davidson diagonalization with overlap
     ethr =  3.09E-07,  avg # of iterations =  7.5

     negative rho (up, down):  1.733E-03 0.000E+00

     total cpu time spent up to now is     1959.8 secs

     total energy              =    -625.65932780 Ry
     Harris-Foulkes estimate   =    -625.65942024 Ry
     estimated scf accuracy    <       0.00014536 Ry

     iteration #  7     ecut=    70.00 Ry     beta= 0.70
     Davidson diagonalization with overlap
     ethr =  7.20E-08,  avg # of iterations =  2.5

     negative rho (up, down):  1.747E-03 0.000E+00

     total cpu time spent up to now is     2224.6 secs

     total energy              =    -625.65935671 Ry
     Harris-Foulkes estimate   =    -625.65936349 Ry
     estimated scf accuracy    <       0.00001033 Ry

     iteration #  8     ecut=    70.00 Ry     beta= 0.70
     Davidson diagonalization with overlap
     ethr =  5.11E-09,  avg # of iterations =  2.0

     negative rho (up, down):  1.755E-03 0.000E+00

     total cpu time spent up to now is     2486.5 secs

     End of self-consistent calculation

          k = 0.0000 0.0000 0.0000 (131685 PWs)   bands (ev):

   -21.1838 -20.2475 -20.2473 -20.2473 -20.2470 -20.2469 -20.2466 -18.4118
   -18.4117 -18.4117 -18.4117 -18.4116 -18.4116 -17.5192 -17.5191 -17.5191
   -17.5190 -17.5190 -17.5190 -15.3746 -15.3746 -15.3745 -15.3744 -15.3743
   -15.3742 -14.3665 -14.3664 -14.3664 -14.3664 -14.3663 -14.3663 -13.0257
   -13.0257 -13.0257 -13.0256 -13.0256 -13.0256 -10.6652 -10.6652 -10.6651
   -10.6651 -10.6650 -10.6650 -10.5430 -10.5429 -10.5428 -10.5427 -10.5427
   -10.5426  -9.3167  -9.1701  -9.1701  -9.1701  -9.1701  -9.1700  -9.1700
    -8.2000  -8.1989  -8.1989  -8.1988  -8.1984  -8.1978  -7.9229  -7.9228
    -7.9228  -7.9225  -7.9225  -7.9224  -7.8951  -7.8706  -7.8705  -7.8705
    -7.8704  -7.8704  -7.8703  -6.2760  -6.2759  -6.2759  -6.2759  -6.2758
    -6.2756  -6.0675  -6.0673  -6.0672  -6.0672  -6.0671  -6.0670  -5.1695
    -5.1693  -5.1692  -5.1691  -5.1689  -5.1689  -4.8043  -4.8043  -3.1840
    -3.1839  -3.1838  -3.1838  -3.1836  -3.1834  -0.3889  -0.3888  -0.3887
    -0.3886  -0.3885  -0.3884   1.3176   1.4672   1.4672   1.4673   1.4674
     1.4675   1.4676   2.2481   2.3479   2.5169   2.5712   2.5936   2.5958
     2.6702

          k = 0.0000-0.5774 0.0000 (131762 PWs)   bands (ev):

   -20.9488 -20.9485 -20.4804 -20.4803 -19.5522 -19.5521 -19.5520 -19.5520
   -19.0923 -19.0922 -18.1860 -18.1860 -18.1857 -18.1856 -16.8686 -16.8686
   -16.8686 -16.8685 -16.4631 -16.4631 -16.4629 -16.4629 -15.9787 -15.2519
   -15.2518 -14.9116 -14.0470 -14.0469 -14.0467 -14.0467 -13.5756 -13.5755
   -12.6416 -12.6416 -12.6415 -12.6415 -11.8450 -11.8450 -11.6858 -11.6857
   -11.6856 -11.6856 -10.4665 -10.4664 -10.2377 -10.2377 -10.2374 -10.2374
    -9.1945  -9.1945  -9.1945  -9.1945  -9.0346  -9.0341  -8.8223  -8.8222
    -8.8219  -8.8219  -8.4750  -8.4750  -8.3474  -8.3472  -8.3472  -8.3470
    -8.1547  -7.8970  -7.4348  -7.4348  -7.4347  -7.4347  -7.3815  -7.3812
    -7.3811  -7.3806  -7.2575  -7.2573  -7.0503  -7.0503  -6.8556  -6.8556
    -6.2033  -6.2033  -5.8349  -5.8348  -5.8346  -5.8345  -5.7110  -5.7107
    -5.2711  -5.2707  -4.3936  -4.3934  -4.3933  -4.3931  -4.1898  -4.1898
    -4.1893  -4.1892  -4.0431  -2.7078  -2.7078  -0.6714  -0.6714  -0.0187
     0.3668   0.3668   0.3672   0.3674   1.0151   1.0153   1.0154   1.0155
     1.6231   1.6401   2.1545   2.2855   2.5757   2.6331   2.6335   2.6341
     2.6342

          k = 0.5000-0.2887 0.0000 (131762 PWs)   bands (ev):

   -20.9489 -20.9484 -20.4804 -20.4803 -19.5522 -19.5521 -19.5520 -19.5520
   -19.0923 -19.0922 -18.1860 -18.1860 -18.1856 -18.1856 -16.8687 -16.8686
   -16.8686 -16.8685 -16.4631 -16.4631 -16.4629 -16.4629 -15.9787 -15.2519
   -15.2518 -14.9116 -14.0469 -14.0469 -14.0467 -14.0467 -13.5756 -13.5756
   -12.6417 -12.6416 -12.6416 -12.6414 -11.8450 -11.8450 -11.6858 -11.6857
   -11.6856 -11.6856 -10.4665 -10.4664 -10.2378 -10.2377 -10.2374 -10.2373
    -9.1945  -9.1945  -9.1945  -9.1944  -9.0346  -9.0341  -8.8223  -8.8222
    -8.8220  -8.8219  -8.4752  -8.4748  -8.3473  -8.3473  -8.3471  -8.3471
    -8.1547  -7.8970  -7.4348  -7.4347  -7.4347  -7.4347  -7.3814  -7.3812
    -7.3812  -7.3806  -7.2574  -7.2574  -7.0503  -7.0502  -6.8557  -6.8555
    -6.2034  -6.2032  -5.8351  -5.8350  -5.8344  -5.8343  -5.7110  -5.7107
    -5.2711  -5.2708  -4.3936  -4.3935  -4.3932  -4.3931  -4.1898  -4.1896
    -4.1894  -4.1892  -4.0431  -2.7078  -2.7078  -0.6714  -0.6714  -0.0187
     0.3668   0.3669   0.3672   0.3673   1.0151   1.0152   1.0154   1.0156
     1.6059   1.6434   2.2113   2.2827   2.4684   2.5804   2.6334   2.6336
     2.6343

          k =-0.5000-0.2887 0.0000 (131762 PWs)   bands (ev):

   -20.9489 -20.9484 -20.4804 -20.4803 -19.5522 -19.5521 -19.5520 -19.5520
   -19.0923 -19.0922 -18.1860 -18.1860 -18.1856 -18.1856 -16.8687 -16.8686
   -16.8686 -16.8684 -16.4631 -16.4631 -16.4629 -16.4629 -15.9787 -15.2519
   -15.2518 -14.9116 -14.0469 -14.0469 -14.0467 -14.0467 -13.5756 -13.5756
   -12.6417 -12.6416 -12.6416 -12.6414 -11.8450 -11.8450 -11.6858 -11.6857
   -11.6856 -11.6856 -10.4665 -10.4664 -10.2378 -10.2377 -10.2374 -10.2373
    -9.1945  -9.1945  -9.1945  -9.1944  -9.0346  -9.0341  -8.8223  -8.8222
    -8.8220  -8.8219  -8.4752  -8.4748  -8.3473  -8.3473  -8.3471  -8.3471
    -8.1547  -7.8970  -7.4348  -7.4347  -7.4347  -7.4347  -7.3814  -7.3812
    -7.3812  -7.3807  -7.2574  -7.2574  -7.0503  -7.0502  -6.8557  -6.8555
    -6.2034  -6.2032  -5.8351  -5.8350  -5.8344  -5.8343  -5.7110  -5.7107
    -5.2711  -5.2708  -4.3936  -4.3935  -4.3932  -4.3931  -4.1898  -4.1896
    -4.1894  -4.1892  -4.0431  -2.7078  -2.7078  -0.6714  -0.6714  -0.0187
     0.3668   0.3669   0.3672   0.3673   1.0151   1.0152   1.0154   1.0156
     1.6059   1.6434   2.2113   2.2827   2.4684   2.5804   2.6335   2.6337
     2.6343

     the Fermi energy is    -1.7854 ev

!    total energy              =    -625.65935804 Ry
     Harris-Foulkes estimate   =    -625.65935928 Ry
     estimated scf accuracy    <       0.00000043 Ry

     The total energy is the sum of the following terms:

     one-electron contribution =   -3907.12406956 Ry
     hartree contribution      =    1990.51873261 Ry
     xc contribution           =    -235.29628564 Ry
     ewald contribution        =    1526.24226455 Ry
     smearing contrib. (-TS)   =       0.00000000 Ry

     convergence has been achieved in   8 iterations

     Writing output data file distance-4.5.save/

     init_run     :    165.66s CPU    167.26s WALL (       1 calls)
     electrons    :   2299.62s CPU   2318.94s WALL (       1 calls)

     Called by init_run:
     wfcinit      :    127.32s CPU    128.10s WALL (       1 calls)
     potinit      :     19.28s CPU     19.83s WALL (       1 calls)
     hinit0       :     13.06s CPU     13.09s WALL (       1 calls)

     Called by electrons:
     c_bands      :   1923.17s CPU   1932.59s WALL (       8 calls)
     sum_band     :    251.50s CPU    254.54s WALL (       8 calls)
     v_of_rho     :     89.51s CPU     95.03s WALL (       9 calls)
     newd         :     46.88s CPU     48.87s WALL (       9 calls)
     mix_rho      :      2.19s CPU      2.22s WALL (       8 calls)

     Called by c_bands:
     init_us_2    :      4.67s CPU      4.72s WALL (      68 calls)
     cegterg      :   1912.70s CPU   1922.04s WALL (      32 calls)

     Called by sum_band:
     sum_band:bec :      0.02s CPU      0.02s WALL (      32 calls)
     addusdens    :     64.26s CPU     66.45s WALL (       8 calls)

     Called by *egterg:
     h_psi        :   1045.25s CPU   1052.31s WALL (     234 calls)
     s_psi        :    328.78s CPU    328.99s WALL (     234 calls)
     g_psi        :      1.29s CPU      1.29s WALL (     198 calls)
     cdiaghg      :     19.47s CPU     19.48s WALL (     230 calls)

     Called by h_psi:
     h_psi:pot    :   1043.94s CPU   1049.71s WALL (     234 calls)
     h_psi:calbec :    327.00s CPU    327.19s WALL (     234 calls)
     vloc_psi     :    387.80s CPU    393.21s WALL (     234 calls)
     add_vuspsi   :    329.13s CPU    329.31s WALL (     234 calls)

     General routines
     calbec       :    437.23s CPU    437.44s WALL (     266 calls)
     fft          :     49.93s CPU     51.67s WALL (     565 calls)
     ffts         :      0.57s CPU      0.58s WALL (      17 calls)
     fftw         :    385.05s CPU    390.25s WALL (   26842 calls)
     interpolate  :      1.31s CPU      1.33s WALL (       9 calls)

     Parallel routines
     fft_scatt_xy :    103.31s CPU    103.96s WALL (   27424 calls)
     fft_scatt_yz :    104.70s CPU    109.35s WALL (   27424 calls)

     PWSCF        :  41m 6.08s CPU  41m27.71s WALL


   This run was terminated on:   2: 7:37  26Jun2022            

=------------------------------------------------------------------------------=
   JOB DONE.
=------------------------------------------------------------------------------=
