
     Program PWSCF v.6.4.1 starts on 20Nov2022 at 14:21:51 

     This program is part of the open-source Quantum ESPRESSO suite
     for quantum simulation of materials; please cite
         "P. Giannozzi et al., J. Phys.:Condens. Matter 21 395502 (2009);
         "P. Giannozzi et al., J. Phys.:Condens. Matter 29 465901 (2017);
          URL http://www.quantum-espresso.org", 
     in publications or presentations arising from this work. More details at
     http://www.quantum-espresso.org/quote

     Parallel version (MPI), running on     6 processors

     MPI processes distributed on     1 nodes
     R & G space division:  proc/nbgrp/npool/nimage =       6
     Reading input from distance-3.0.in

     Current dimensions of program PWSCF are:
     Max number of different atomic species (ntypx) = 10
     Max number of k-points (npk) =  40000
     Max angular momentum in pseudopotentials (lmaxx) =  3

     IMPORTANT: XC functional enforced from input :
     Exchange-correlation      = RVV10 ( 1  4 13  4 3 0)
     Any further DFT definition will be discarded
     Please, verify this is what you really want

               file H.pbe-rrkjus.UPF: wavefunction(s)  1S renormalized

     Subspace diagonalization in iterative solution of the eigenvalue problem:
     a serial algorithm will be used


     Parallelization info
     --------------------
     sticks:   dense  smooth     PW     G-vecs:    dense   smooth      PW
     Min        3051    1746    432               270999   117096   14629
     Max        3053    1747    437               271001   117099   14630
     Sum       18313   10477   2611              1626001   702581   87777



     bravais-lattice index     =            4
     lattice parameter (alat)  =      23.2937  a.u.
     unit-cell volume          =    8879.8548 (a.u.)^3
     number of atoms/cell      =           52
     number of atomic types    =            3
     number of electrons       =       214.00
     number of Kohn-Sham states=          128
     kinetic-energy cutoff     =      70.0000  Ry
     charge density cutoff     =     490.0000  Ry
     convergence threshold     =      1.0E-06
     mixing beta               =       0.3000
     number of iterations used =            4  plain     mixing
     Exchange-correlation      = RVV10 ( 1  4 13  4 3 0)

     celldm(1)=  23.293684  celldm(2)=   0.000000  celldm(3)=   0.811261
     celldm(4)=   0.000000  celldm(5)=   0.000000  celldm(6)=   0.000000

     crystal axes: (cart. coord. in units of alat)
               a(1) = (   1.000000   0.000000   0.000000 )  
               a(2) = (  -0.500000   0.866025   0.000000 )  
               a(3) = (   0.000000   0.000000   0.811261 )  

     reciprocal axes: (cart. coord. in units 2 pi/alat)
               b(1) = (  1.000000  0.577350 -0.000000 )  
               b(2) = (  0.000000  1.154701  0.000000 )  
               b(3) = (  0.000000 -0.000000  1.232649 )  


     PseudoPot. # 1 for H  read from file:
     /home/cristian/Escritorio/Proyecto_Grafeno/pseudopotenciales/H.pbe-rrkjus.UPF
     MD5 check sum: 7cc9d459525c9a0585f487a71c3c9563
     Pseudo is Ultrasoft, Zval =  1.0
     Generated by new atomic code, or converted to UPF format
     Using radial grid of 1061 points,  2 beta functions with: 
                l(1) =   0
                l(2) =   0
     Q(r) pseudized with 0 coefficients 


     PseudoPot. # 2 for C  read from file:
     /home/cristian/Escritorio/Proyecto_Grafeno/pseudopotenciales/C.pbe-n-rrkjus_psl.1.0.0.UPF
     MD5 check sum: 1fdd950c42eb37d8afe3dd2f8d12311e
     Pseudo is Ultrasoft + core correction, Zval =  4.0
     Generated using "atomic" code by A. Dal Corso v.6.3MaX
     Using radial grid of 1073 points,  4 beta functions with: 
                l(1) =   0
                l(2) =   0
                l(3) =   1
                l(4) =   1
     Q(r) pseudized with 0 coefficients 


     PseudoPot. # 3 for Fe read from file:
     /home/cristian/Escritorio/Proyecto_Grafeno/pseudopotenciales/Fe.pbe-spn-rrkjus_psl.1.0.0.UPF
     MD5 check sum: 72ea77fed8e64ab3a2ccf2804dfc1862
     Pseudo is Ultrasoft + core correction, Zval = 16.0
     Generated using "atomic" code by A. Dal Corso v.6.3
     Using radial grid of 1191 points,  6 beta functions with: 
                l(1) =   0
                l(2) =   0
                l(3) =   1
                l(4) =   1
                l(5) =   2
                l(6) =   2
     Q(r) pseudized with 0 coefficients 


     vdW kernel table read from file rVV10_kernel_table
     MD5 check sum: b8e2538accc0c0b3206b45ba4daaba6c

     atomic species   valence    mass     pseudopotential
        H              1.00     1.00794     H ( 1.00)
        C              4.00    12.01070     C ( 1.00)
        Fe            16.00    55.84500     Fe( 1.00)

     Starting magnetic structure 
     atomic species   magnetization
        H            0.500
        C            0.300
        Fe           0.800

     No symmetry found


                                    s                        frac. trans.

      isym =  1     identity                                     

 cryst.   s( 1) = (     1          0          0      )
                  (     0          1          0      )
                  (     0          0          1      )

 cart.    s( 1) = (  1.0000000  0.0000000  0.0000000 )
                  (  0.0000000  1.0000000  0.0000000 )
                  (  0.0000000  0.0000000  1.0000000 )


     point group C_1 (1)    
     there are  1 classes
     the character table:

       E    
A      1.00

     the symmetry operations in each class and the name of the first element:

     E        1
          identity                                               

   Cartesian axes

     site n.     atom                  positions (alat units)
         1           H   tau(   1) = (   0.2666667   0.4618802   0.2433783  )
         2           H   tau(   2) = (   0.2666667   0.4618802   0.3043910  )
         3           C   tau(   3) = (   0.0000000   0.0000000   0.0000000  )
         4           C   tau(   4) = (   0.0000000   0.1154701   0.0000000  )
         5           C   tau(   5) = (  -0.1000000   0.1732051   0.0000000  )
         6           C   tau(   6) = (  -0.1000000   0.2886751   0.0000000  )
         7           C   tau(   7) = (  -0.2000000   0.3464102   0.0000000  )
         8           C   tau(   8) = (  -0.2000000   0.4618802   0.0000000  )
         9           C   tau(   9) = (  -0.3000000   0.5196152   0.0000000  )
        10           C   tau(  10) = (  -0.3000000   0.6350853   0.0000000  )
        11           C   tau(  11) = (  -0.4000000   0.6928203   0.0000000  )
        12           C   tau(  12) = (  -0.4000000   0.8082904   0.0000000  )
        13           C   tau(  13) = (   0.2000000   0.0000000   0.0000000  )
        14           C   tau(  14) = (   0.2000000   0.1154701   0.0000000  )
        15           C   tau(  15) = (   0.1000000   0.1732051   0.0000000  )
        16           C   tau(  16) = (   0.1000000   0.2886751   0.0000000  )
        17           C   tau(  17) = (   0.0000000   0.3464102   0.0000000  )
        18           C   tau(  18) = (   0.0000000   0.4618802   0.0000000  )
        19           C   tau(  19) = (  -0.1000000   0.5196152   0.0000000  )
        20           C   tau(  20) = (  -0.1000000   0.6350853   0.0000000  )
        21           C   tau(  21) = (  -0.2000000   0.6928203   0.0000000  )
        22           C   tau(  22) = (  -0.2000000   0.8082904   0.0000000  )
        23           C   tau(  23) = (   0.4000000   0.0000000   0.0000000  )
        24           C   tau(  24) = (   0.4000000   0.1154701   0.0000000  )
        25           C   tau(  25) = (   0.3000000   0.1732051   0.0000000  )
        26           C   tau(  26) = (   0.3000000   0.2886751   0.0000000  )
        27           C   tau(  27) = (   0.2000000   0.3464102   0.0000000  )
        28           Fe  tau(  28) = (   0.2000000   0.4618802   0.0000000  )
        29           C   tau(  29) = (   0.1000000   0.5196152   0.0000000  )
        30           C   tau(  30) = (   0.1000000   0.6350853   0.0000000  )
        31           C   tau(  31) = (   0.0000000   0.6928203   0.0000000  )
        32           C   tau(  32) = (   0.0000000   0.8082904   0.0000000  )
        33           C   tau(  33) = (   0.6000000   0.0000000   0.0000000  )
        34           C   tau(  34) = (   0.6000000   0.1154701   0.0000000  )
        35           C   tau(  35) = (   0.5000000   0.1732051   0.0000000  )
        36           C   tau(  36) = (   0.5000000   0.2886751   0.0000000  )
        37           C   tau(  37) = (   0.4000000   0.3464102   0.0000000  )
        38           C   tau(  38) = (   0.4000000   0.4618802   0.0000000  )
        39           C   tau(  39) = (   0.3000000   0.5196152   0.0000000  )
        40           C   tau(  40) = (   0.3000000   0.6350853   0.0000000  )
        41           C   tau(  41) = (   0.2000000   0.6928203   0.0000000  )
        42           C   tau(  42) = (   0.2000000   0.8082904   0.0000000  )
        43           C   tau(  43) = (   0.8000000   0.0000000   0.0000000  )
        44           C   tau(  44) = (   0.8000000   0.1154701   0.0000000  )
        45           C   tau(  45) = (   0.7000000   0.1732051   0.0000000  )
        46           C   tau(  46) = (   0.7000000   0.2886751   0.0000000  )
        47           C   tau(  47) = (   0.6000000   0.3464102   0.0000000  )
        48           C   tau(  48) = (   0.6000000   0.4618802   0.0000000  )
        49           C   tau(  49) = (   0.5000000   0.5196152   0.0000000  )
        50           C   tau(  50) = (   0.5000000   0.6350853   0.0000000  )
        51           C   tau(  51) = (   0.4000000   0.6928203   0.0000000  )
        52           C   tau(  52) = (   0.4000000   0.8082904   0.0000000  )

   Crystallographic axes

     site n.     atom                  positions (cryst. coord.)
         1           H   tau(   1) = (  0.5333333  0.5333333  0.3000000  )
         2           H   tau(   2) = (  0.5333333  0.5333333  0.3752072  )
         3           C   tau(   3) = (  0.0000000  0.0000000  0.0000000  )
         4           C   tau(   4) = (  0.0666667  0.1333333  0.0000000  )
         5           C   tau(   5) = (  0.0000000  0.2000000  0.0000000  )
         6           C   tau(   6) = (  0.0666667  0.3333333  0.0000000  )
         7           C   tau(   7) = (  0.0000000  0.4000000  0.0000000  )
         8           C   tau(   8) = (  0.0666667  0.5333333  0.0000000  )
         9           C   tau(   9) = (  0.0000000  0.6000000  0.0000000  )
        10           C   tau(  10) = (  0.0666667  0.7333333  0.0000000  )
        11           C   tau(  11) = (  0.0000000  0.8000000  0.0000000  )
        12           C   tau(  12) = (  0.0666667  0.9333333  0.0000000  )
        13           C   tau(  13) = (  0.2000000  0.0000000  0.0000000  )
        14           C   tau(  14) = (  0.2666667  0.1333333  0.0000000  )
        15           C   tau(  15) = (  0.2000000  0.2000000  0.0000000  )
        16           C   tau(  16) = (  0.2666667  0.3333333  0.0000000  )
        17           C   tau(  17) = (  0.2000000  0.4000000  0.0000000  )
        18           C   tau(  18) = (  0.2666667  0.5333333  0.0000000  )
        19           C   tau(  19) = (  0.2000000  0.6000000  0.0000000  )
        20           C   tau(  20) = (  0.2666667  0.7333333  0.0000000  )
        21           C   tau(  21) = (  0.2000000  0.8000000  0.0000000  )
        22           C   tau(  22) = (  0.2666667  0.9333333  0.0000000  )
        23           C   tau(  23) = (  0.4000000  0.0000000  0.0000000  )
        24           C   tau(  24) = (  0.4666667  0.1333333  0.0000000  )
        25           C   tau(  25) = (  0.4000000  0.2000000  0.0000000  )
        26           C   tau(  26) = (  0.4666667  0.3333333  0.0000000  )
        27           C   tau(  27) = (  0.4000000  0.4000000  0.0000000  )
        28           Fe  tau(  28) = (  0.4666667  0.5333333  0.0000000  )
        29           C   tau(  29) = (  0.4000000  0.6000000  0.0000000  )
        30           C   tau(  30) = (  0.4666667  0.7333333  0.0000000  )
        31           C   tau(  31) = (  0.4000000  0.8000000  0.0000000  )
        32           C   tau(  32) = (  0.4666667  0.9333333  0.0000000  )
        33           C   tau(  33) = (  0.6000000  0.0000000  0.0000000  )
        34           C   tau(  34) = (  0.6666667  0.1333333  0.0000000  )
        35           C   tau(  35) = (  0.6000000  0.2000000  0.0000000  )
        36           C   tau(  36) = (  0.6666667  0.3333333  0.0000000  )
        37           C   tau(  37) = (  0.6000000  0.4000000  0.0000000  )
        38           C   tau(  38) = (  0.6666667  0.5333333  0.0000000  )
        39           C   tau(  39) = (  0.6000000  0.6000000  0.0000000  )
        40           C   tau(  40) = (  0.6666667  0.7333333  0.0000000  )
        41           C   tau(  41) = (  0.6000000  0.8000000  0.0000000  )
        42           C   tau(  42) = (  0.6666667  0.9333333  0.0000000  )
        43           C   tau(  43) = (  0.8000000  0.0000000  0.0000000  )
        44           C   tau(  44) = (  0.8666667  0.1333333  0.0000000  )
        45           C   tau(  45) = (  0.8000000  0.2000000  0.0000000  )
        46           C   tau(  46) = (  0.8666667  0.3333333  0.0000000  )
        47           C   tau(  47) = (  0.8000000  0.4000000  0.0000000  )
        48           C   tau(  48) = (  0.8666667  0.5333333  0.0000000  )
        49           C   tau(  49) = (  0.8000000  0.6000000  0.0000000  )
        50           C   tau(  50) = (  0.8666667  0.7333333  0.0000000  )
        51           C   tau(  51) = (  0.8000000  0.8000000  0.0000000  )
        52           C   tau(  52) = (  0.8666667  0.9333333  0.0000000  )

     number of k points=     1  Marzari-Vanderbilt smearing, width (Ry)=  0.0010
                       cart. coord. in units 2pi/alat
        k(    1) = (   0.0000000   0.0000000   0.0000000), wk =   1.0000000

                       cryst. coord.
        k(    1) = (   0.0000000   0.0000000   0.0000000), wk =   1.0000000

     Dense  grid:  1626001 G-vectors     FFT dimensions: ( 180, 180, 135)

     Smooth grid:   702581 G-vectors     FFT dimensions: ( 125, 125, 108)

     Dynamical RAM for                 wfc:      28.59 MB

     Dynamical RAM for     wfc (w. buffer):      85.76 MB

     Dynamical RAM for           str. fact:      12.41 MB

     Dynamical RAM for           local pot:       0.00 MB

     Dynamical RAM for          nlocal pot:      92.46 MB

     Dynamical RAM for                qrad:      19.73 MB

     Dynamical RAM for          rho,v,vnew:      58.92 MB

     Dynamical RAM for               rhoin:      19.64 MB

     Dynamical RAM for            rho*nmix:      66.16 MB

     Dynamical RAM for           G-vectors:      16.40 MB

     Dynamical RAM for          h,s,v(r/c):      12.00 MB

     Dynamical RAM for          <psi|beta>:       0.81 MB

     Dynamical RAM for                 psi:     114.35 MB

     Dynamical RAM for                hpsi:     114.35 MB

     Dynamical RAM for                spsi:     114.35 MB

     Dynamical RAM for      wfcinit/wfcrot:      93.90 MB

     Dynamical RAM for           addusdens:     975.89 MB

     Estimated static dynamical RAM per process >     422.14 MB

     Estimated max dynamical RAM per process >       1.37 GB

     Estimated total dynamical RAM >       8.19 GB
     Generating pointlists ...
     new r_m :   0.0252 (alat units)  0.5862 (a.u.) for type    1
     new r_m :   0.0476 (alat units)  1.1095 (a.u.) for type    2
     new r_m :   0.0476 (alat units)  1.1095 (a.u.) for type    3

     Check: negative core charge=   -0.000002

     Initial potential from superposition of free atoms

     starting charge  213.80512, renormalised to  214.00000

     negative rho (up, down):  5.870E-05 1.033E-02


---------------------------------------------------------------------------------
Carrying out rVV10 run using the following parameters:
Nqs =      20    Nr_points =    1024   r_max =   100.000
b_value =  6.30000    beta =  0.00901
     q_mesh =  0.00010000  0.00030000  0.00058939  0.00100810
               0.00161396  0.00249058  0.00375900  0.00559430
               0.00824984  0.01209221  0.01765183  0.02569619
               0.03733578  0.05417739  0.07854596  0.11380545
               0.16482331  0.23864234  0.34545298  0.50000000

Gradients computed in Reciprocal space

---------------------------------------------------------------------------------


     Starting wfcs are  208 randomized atomic wfcs

     total cpu time spent up to now is       80.0 secs

     Self-consistent Calculation

     iteration #  1     ecut=    70.00 Ry     beta= 0.30
     Davidson diagonalization with overlap
     ethr =  1.00E-02,  avg # of iterations =  2.5

     negative rho (up, down):  7.446E-05 1.036E-02

     total cpu time spent up to now is      213.8 secs

     total energy              =    -858.06571469 Ry
     Harris-Foulkes estimate   =    -858.62523863 Ry
     estimated scf accuracy    <      10.14670497 Ry

     total magnetization       =     6.00 Bohr mag/cell
     absolute magnetization    =     6.65 Bohr mag/cell

     iteration #  2     ecut=    70.00 Ry     beta= 0.30
     Davidson diagonalization with overlap
     ethr =  4.74E-03,  avg # of iterations =  2.0

     negative rho (up, down):  1.037E-04 1.113E-02

     total cpu time spent up to now is      309.2 secs

     total energy              =    -858.45912195 Ry
     Harris-Foulkes estimate   =    -858.67005174 Ry
     estimated scf accuracy    <       5.03732973 Ry

     total magnetization       =     4.00 Bohr mag/cell
     absolute magnetization    =     5.61 Bohr mag/cell

     iteration #  3     ecut=    70.00 Ry     beta= 0.30
     Davidson diagonalization with overlap
     ethr =  2.35E-03,  avg # of iterations =  3.0

     negative rho (up, down):  1.905E-04 2.345E-02

     total cpu time spent up to now is      409.1 secs

     total energy              =    -858.68858332 Ry
     Harris-Foulkes estimate   =    -859.68576786 Ry
     estimated scf accuracy    <      10.26924451 Ry

     total magnetization       =     6.00 Bohr mag/cell
     absolute magnetization    =     6.18 Bohr mag/cell

     iteration #  4     ecut=    70.00 Ry     beta= 0.30
     Davidson diagonalization with overlap
     ethr =  2.35E-03,  avg # of iterations =  3.5

     negative rho (up, down):  2.452E-04 3.324E-02

     total cpu time spent up to now is      506.5 secs

     total energy              =    -859.83630552 Ry
     Harris-Foulkes estimate   =    -859.59265276 Ry
     estimated scf accuracy    <       0.82958850 Ry

     total magnetization       =     2.00 Bohr mag/cell
     absolute magnetization    =     3.50 Bohr mag/cell

     iteration #  5     ecut=    70.00 Ry     beta= 0.30
     Davidson diagonalization with overlap
     ethr =  3.88E-04,  avg # of iterations = 12.0

     negative rho (up, down):  2.929E-04 3.819E-02

     total cpu time spent up to now is      617.2 secs

     total energy              =    -859.97486730 Ry
     Harris-Foulkes estimate   =    -859.94640685 Ry
     estimated scf accuracy    <       0.52200697 Ry

     total magnetization       =     2.00 Bohr mag/cell
     absolute magnetization    =     3.02 Bohr mag/cell

     iteration #  6     ecut=    70.00 Ry     beta= 0.30
     Davidson diagonalization with overlap
     ethr =  2.44E-04,  avg # of iterations =  1.5

     negative rho (up, down):  4.577E-04 6.162E-02

     total cpu time spent up to now is      713.1 secs

     total energy              =    -860.02243077 Ry
     Harris-Foulkes estimate   =    -860.00330621 Ry
     estimated scf accuracy    <       0.14802436 Ry

     total magnetization       =     2.00 Bohr mag/cell
     absolute magnetization    =     2.88 Bohr mag/cell

     iteration #  7     ecut=    70.00 Ry     beta= 0.30
     Davidson diagonalization with overlap
     ethr =  6.92E-05,  avg # of iterations =  3.0

     negative rho (up, down):  2.877E-03 9.966E-02

     total cpu time spent up to now is      810.1 secs

     total energy              =    -860.04521800 Ry
     Harris-Foulkes estimate   =    -860.04951644 Ry
     estimated scf accuracy    <       0.14312502 Ry

     total magnetization       =     2.00 Bohr mag/cell
     absolute magnetization    =     2.75 Bohr mag/cell

     iteration #  8     ecut=    70.00 Ry     beta= 0.30
     Davidson diagonalization with overlap
     ethr =  6.69E-05,  avg # of iterations =  9.0

     negative rho (up, down):  2.355E-03 8.806E-02

     total cpu time spent up to now is      911.9 secs

     total energy              =    -860.04852118 Ry
     Harris-Foulkes estimate   =    -860.04976129 Ry
     estimated scf accuracy    <       0.05223857 Ry

     total magnetization       =     1.99 Bohr mag/cell
     absolute magnetization    =     2.73 Bohr mag/cell

     iteration #  9     ecut=    70.00 Ry     beta= 0.30
     Davidson diagonalization with overlap
     ethr =  2.44E-05,  avg # of iterations =  3.5

     negative rho (up, down):  2.182E-03 7.846E-02

     total cpu time spent up to now is     1009.2 secs

     total energy              =    -860.04746315 Ry
     Harris-Foulkes estimate   =    -860.05213345 Ry
     estimated scf accuracy    <       0.09183112 Ry

     total magnetization       =     2.01 Bohr mag/cell
     absolute magnetization    =     2.74 Bohr mag/cell

     iteration # 10     ecut=    70.00 Ry     beta= 0.30
     Davidson diagonalization with overlap
     ethr =  2.44E-05,  avg # of iterations =  1.0

     negative rho (up, down):  2.149E-03 7.673E-02

     total cpu time spent up to now is     1104.5 secs

     total energy              =    -860.05229516 Ry
     Harris-Foulkes estimate   =    -860.05360517 Ry
     estimated scf accuracy    <       0.06223052 Ry

     total magnetization       =     1.09 Bohr mag/cell
     absolute magnetization    =     2.58 Bohr mag/cell

     iteration # 11     ecut=    70.00 Ry     beta= 0.30
     Davidson diagonalization with overlap
     ethr =  2.44E-05,  avg # of iterations =  1.0

     negative rho (up, down):  1.286E-03 6.250E-02

     total cpu time spent up to now is     1199.7 secs

     total energy              =    -860.05509129 Ry
     Harris-Foulkes estimate   =    -860.05351443 Ry
     estimated scf accuracy    <       0.02927802 Ry

     total magnetization       =     2.00 Bohr mag/cell
     absolute magnetization    =     2.74 Bohr mag/cell

     iteration # 12     ecut=    70.00 Ry     beta= 0.30
     Davidson diagonalization with overlap
     ethr =  1.37E-05,  avg # of iterations =  2.0

     negative rho (up, down):  1.239E-03 6.517E-02

     total cpu time spent up to now is     1296.2 secs

     total energy              =    -860.05597094 Ry
     Harris-Foulkes estimate   =    -860.05559057 Ry
     estimated scf accuracy    <       0.01969871 Ry

     total magnetization       =     1.99 Bohr mag/cell
     absolute magnetization    =     2.78 Bohr mag/cell

     iteration # 13     ecut=    70.00 Ry     beta= 0.30
     Davidson diagonalization with overlap
     ethr =  9.21E-06,  avg # of iterations =  1.5

     negative rho (up, down):  1.328E-03 8.801E-02

     total cpu time spent up to now is     1391.5 secs

     total energy              =    -860.05527944 Ry
     Harris-Foulkes estimate   =    -860.05611857 Ry
     estimated scf accuracy    <       0.01605247 Ry

     total magnetization       =     1.98 Bohr mag/cell
     absolute magnetization    =     2.80 Bohr mag/cell

     iteration # 14     ecut=    70.00 Ry     beta= 0.30
     Davidson diagonalization with overlap
     ethr =  7.50E-06,  avg # of iterations =  8.5

     negative rho (up, down):  5.046E-04 7.104E-02

     total cpu time spent up to now is     1490.5 secs

     total energy              =    -860.05359086 Ry
     Harris-Foulkes estimate   =    -860.05544902 Ry
     estimated scf accuracy    <       0.02030736 Ry

     total magnetization       =     1.98 Bohr mag/cell
     absolute magnetization    =     2.79 Bohr mag/cell

     iteration # 15     ecut=    70.00 Ry     beta= 0.30
     Davidson diagonalization with overlap
     ethr =  7.50E-06,  avg # of iterations =  8.0

     negative rho (up, down):  6.285E-04 1.228E-01

     total cpu time spent up to now is     1616.9 secs

     total energy              =    -860.04069479 Ry
     Harris-Foulkes estimate   =    -860.06826230 Ry
     estimated scf accuracy    <       0.16120757 Ry

     total magnetization       =     2.00 Bohr mag/cell
     absolute magnetization    =     3.07 Bohr mag/cell

     iteration # 16     ecut=    70.00 Ry     beta= 0.30
     Davidson diagonalization with overlap
     ethr =  7.50E-06,  avg # of iterations =  3.5

     negative rho (up, down):  8.107E-04 1.196E-01

     total cpu time spent up to now is     1734.7 secs

     total energy              =    -860.05650729 Ry
     Harris-Foulkes estimate   =    -860.05671197 Ry
     estimated scf accuracy    <       0.02569540 Ry

     total magnetization       =     2.02 Bohr mag/cell
     absolute magnetization    =     2.82 Bohr mag/cell

     iteration # 17     ecut=    70.00 Ry     beta= 0.30
     Davidson diagonalization with overlap
     ethr =  7.50E-06,  avg # of iterations =  1.0

     negative rho (up, down):  5.211E-04 1.043E-01

     total cpu time spent up to now is     1829.8 secs

     total energy              =    -860.05514036 Ry
     Harris-Foulkes estimate   =    -860.05655206 Ry
     estimated scf accuracy    <       0.02864484 Ry

     total magnetization       =     1.96 Bohr mag/cell
     absolute magnetization    =     2.83 Bohr mag/cell

     iteration # 18     ecut=    70.00 Ry     beta= 0.30
     Davidson diagonalization with overlap
     ethr =  7.50E-06,  avg # of iterations =  2.5

     negative rho (up, down):  5.018E-04 9.589E-02

     total cpu time spent up to now is     1927.6 secs

     total energy              =    -860.05674208 Ry
     Harris-Foulkes estimate   =    -860.05667110 Ry
     estimated scf accuracy    <       0.00206106 Ry

     total magnetization       =     2.08 Bohr mag/cell
     absolute magnetization    =     2.88 Bohr mag/cell

     iteration # 19     ecut=    70.00 Ry     beta= 0.30
     Davidson diagonalization with overlap
     ethr =  9.63E-07,  avg # of iterations =  3.0

     negative rho (up, down):  5.090E-04 8.801E-02

     total cpu time spent up to now is     2024.4 secs

     total energy              =    -860.05713465 Ry
     Harris-Foulkes estimate   =    -860.05695617 Ry
     estimated scf accuracy    <       0.00329114 Ry

     total magnetization       =     2.04 Bohr mag/cell
     absolute magnetization    =     2.80 Bohr mag/cell

     iteration # 20     ecut=    70.00 Ry     beta= 0.30
     Davidson diagonalization with overlap
     ethr =  9.63E-07,  avg # of iterations =  1.5

     negative rho (up, down):  4.867E-04 7.115E-02

     total cpu time spent up to now is     2120.4 secs

     total energy              =    -860.05714382 Ry
     Harris-Foulkes estimate   =    -860.05738215 Ry
     estimated scf accuracy    <       0.01304024 Ry

     total magnetization       =     2.13 Bohr mag/cell
     absolute magnetization    =     3.00 Bohr mag/cell

     iteration # 21     ecut=    70.00 Ry     beta= 0.30
     Davidson diagonalization with overlap
     ethr =  9.63E-07,  avg # of iterations =  2.5

     negative rho (up, down):  6.237E-04 1.047E-01

     total cpu time spent up to now is     2224.8 secs

     total energy              =    -860.05631596 Ry
     Harris-Foulkes estimate   =    -860.05801665 Ry
     estimated scf accuracy    <       0.00348405 Ry

     total magnetization       =     2.15 Bohr mag/cell
     absolute magnetization    =     2.90 Bohr mag/cell

     iteration # 22     ecut=    70.00 Ry     beta= 0.30
     Davidson diagonalization with overlap
     ethr =  9.63E-07,  avg # of iterations =  2.0

     negative rho (up, down):  6.709E-04 1.105E-01

     total cpu time spent up to now is     2331.4 secs

     total energy              =    -860.05624584 Ry
     Harris-Foulkes estimate   =    -860.05672545 Ry
     estimated scf accuracy    <       0.00422271 Ry

     total magnetization       =     1.84 Bohr mag/cell
     absolute magnetization    =     2.91 Bohr mag/cell

     iteration # 23     ecut=    70.00 Ry     beta= 0.30
     Davidson diagonalization with overlap
     ethr =  9.63E-07,  avg # of iterations =  2.0

     negative rho (up, down):  7.649E-04 1.156E-01

     total cpu time spent up to now is     2431.7 secs

     total energy              =    -860.05571028 Ry
     Harris-Foulkes estimate   =    -860.05635976 Ry
     estimated scf accuracy    <       0.00100342 Ry

     total magnetization       =     2.00 Bohr mag/cell
     absolute magnetization    =     2.89 Bohr mag/cell

     iteration # 24     ecut=    70.00 Ry     beta= 0.30
     Davidson diagonalization with overlap
     ethr =  4.69E-07,  avg # of iterations =  3.0

     negative rho (up, down):  7.716E-04 1.062E-01

     total cpu time spent up to now is     2540.1 secs

     total energy              =    -860.05586845 Ry
     Harris-Foulkes estimate   =    -860.05590453 Ry
     estimated scf accuracy    <       0.00051116 Ry

     total magnetization       =     1.99 Bohr mag/cell
     absolute magnetization    =     2.91 Bohr mag/cell

     iteration # 25     ecut=    70.00 Ry     beta= 0.30
     Davidson diagonalization with overlap
     ethr =  2.39E-07,  avg # of iterations =  2.0

     negative rho (up, down):  7.255E-04 9.483E-02

     total cpu time spent up to now is     2644.4 secs

     total energy              =    -860.05610094 Ry
     Harris-Foulkes estimate   =    -860.05593963 Ry
     estimated scf accuracy    <       0.00029408 Ry

     total magnetization       =     2.00 Bohr mag/cell
     absolute magnetization    =     2.93 Bohr mag/cell

     iteration # 26     ecut=    70.00 Ry     beta= 0.30
     Davidson diagonalization with overlap
     ethr =  1.37E-07,  avg # of iterations =  3.0

     negative rho (up, down):  6.421E-04 7.065E-02

     total cpu time spent up to now is     2754.3 secs

     total energy              =    -860.05641362 Ry
     Harris-Foulkes estimate   =    -860.05619336 Ry
     estimated scf accuracy    <       0.00013460 Ry

     total magnetization       =     2.00 Bohr mag/cell
     absolute magnetization    =     2.98 Bohr mag/cell

     iteration # 27     ecut=    70.00 Ry     beta= 0.30
     Davidson diagonalization with overlap
     ethr =  6.29E-08,  avg # of iterations =  3.0

     negative rho (up, down):  6.271E-04 5.304E-02

     total cpu time spent up to now is     2866.1 secs

     total energy              =    -860.05651645 Ry
     Harris-Foulkes estimate   =    -860.05644894 Ry
     estimated scf accuracy    <       0.00013840 Ry

     total magnetization       =     1.98 Bohr mag/cell
     absolute magnetization    =     3.01 Bohr mag/cell

     iteration # 28     ecut=    70.00 Ry     beta= 0.30
     Davidson diagonalization with overlap
     ethr =  6.29E-08,  avg # of iterations =  2.0

     negative rho (up, down):  6.448E-04 4.849E-02

     total cpu time spent up to now is     2963.3 secs

     total energy              =    -860.05647129 Ry
     Harris-Foulkes estimate   =    -860.05652100 Ry
     estimated scf accuracy    <       0.00013487 Ry

     total magnetization       =     1.96 Bohr mag/cell
     absolute magnetization    =     3.02 Bohr mag/cell

     iteration # 29     ecut=    70.00 Ry     beta= 0.30
     Davidson diagonalization with overlap
     ethr =  6.29E-08,  avg # of iterations =  2.0

     negative rho (up, down):  6.418E-04 3.876E-02

     total cpu time spent up to now is     3063.9 secs

     total energy              =    -860.05649171 Ry
     Harris-Foulkes estimate   =    -860.05647816 Ry
     estimated scf accuracy    <       0.00009977 Ry

     total magnetization       =     1.99 Bohr mag/cell
     absolute magnetization    =     3.01 Bohr mag/cell

     iteration # 30     ecut=    70.00 Ry     beta= 0.30
     Davidson diagonalization with overlap
     ethr =  4.66E-08,  avg # of iterations =  1.0

     negative rho (up, down):  6.402E-04 3.175E-02

     total cpu time spent up to now is     3159.0 secs

     total energy              =    -860.05650041 Ry
     Harris-Foulkes estimate   =    -860.05649198 Ry
     estimated scf accuracy    <       0.00009562 Ry

     total magnetization       =     1.99 Bohr mag/cell
     absolute magnetization    =     3.01 Bohr mag/cell

     iteration # 31     ecut=    70.00 Ry     beta= 0.30
     Davidson diagonalization with overlap
     ethr =  4.47E-08,  avg # of iterations =  1.0

     negative rho (up, down):  6.336E-04 3.002E-02

     total cpu time spent up to now is     3254.2 secs

     total energy              =    -860.05651903 Ry
     Harris-Foulkes estimate   =    -860.05650162 Ry
     estimated scf accuracy    <       0.00009517 Ry

     total magnetization       =     1.99 Bohr mag/cell
     absolute magnetization    =     3.00 Bohr mag/cell

     iteration # 32     ecut=    70.00 Ry     beta= 0.30
     Davidson diagonalization with overlap
     ethr =  4.45E-08,  avg # of iterations =  2.0

     negative rho (up, down):  6.269E-04 2.653E-02

     total cpu time spent up to now is     3350.7 secs

     total energy              =    -860.05655745 Ry
     Harris-Foulkes estimate   =    -860.05652070 Ry
     estimated scf accuracy    <       0.00009534 Ry

     total magnetization       =     1.97 Bohr mag/cell
     absolute magnetization    =     3.01 Bohr mag/cell

     iteration # 33     ecut=    70.00 Ry     beta= 0.30
     Davidson diagonalization with overlap
     ethr =  4.45E-08,  avg # of iterations =  2.0

     negative rho (up, down):  6.349E-04 4.076E-02

     total cpu time spent up to now is     3450.1 secs

     total energy              =    -860.05639203 Ry
     Harris-Foulkes estimate   =    -860.05656277 Ry
     estimated scf accuracy    <       0.00012291 Ry

     total magnetization       =     1.96 Bohr mag/cell
     absolute magnetization    =     3.02 Bohr mag/cell

     iteration # 34     ecut=    70.00 Ry     beta= 0.30
     Davidson diagonalization with overlap
     ethr =  4.45E-08,  avg # of iterations =  2.0

     negative rho (up, down):  6.274E-04 4.336E-02

     total cpu time spent up to now is     3561.9 secs

     total energy              =    -860.05638404 Ry
     Harris-Foulkes estimate   =    -860.05645416 Ry
     estimated scf accuracy    <       0.00017596 Ry

     total magnetization       =     1.96 Bohr mag/cell
     absolute magnetization    =     3.02 Bohr mag/cell

     iteration # 35     ecut=    70.00 Ry     beta= 0.30
     Davidson diagonalization with overlap
     ethr =  4.45E-08,  avg # of iterations =  2.0

     negative rho (up, down):  6.107E-04 3.204E-02

     total cpu time spent up to now is     3669.9 secs

     total energy              =    -860.05644065 Ry
     Harris-Foulkes estimate   =    -860.05641044 Ry
     estimated scf accuracy    <       0.00006572 Ry

     total magnetization       =     1.91 Bohr mag/cell
     absolute magnetization    =     3.03 Bohr mag/cell

     iteration # 36     ecut=    70.00 Ry     beta= 0.30
     Davidson diagonalization with overlap
     ethr =  3.07E-08,  avg # of iterations =  2.0

     negative rho (up, down):  5.882E-04 2.601E-02

     total cpu time spent up to now is     3771.8 secs

     total energy              =    -860.05647052 Ry
     Harris-Foulkes estimate   =    -860.05644397 Ry
     estimated scf accuracy    <       0.00004973 Ry

     total magnetization       =     1.96 Bohr mag/cell
     absolute magnetization    =     3.02 Bohr mag/cell

     iteration # 37     ecut=    70.00 Ry     beta= 0.30
     Davidson diagonalization with overlap
     ethr =  2.32E-08,  avg # of iterations =  2.5

     negative rho (up, down):  5.963E-04 2.191E-02

     total cpu time spent up to now is     3878.3 secs

     total energy              =    -860.05647319 Ry
     Harris-Foulkes estimate   =    -860.05647857 Ry
     estimated scf accuracy    <       0.00003790 Ry

     total magnetization       =     1.94 Bohr mag/cell
     absolute magnetization    =     3.04 Bohr mag/cell

     iteration # 38     ecut=    70.00 Ry     beta= 0.30
     Davidson diagonalization with overlap
     ethr =  1.77E-08,  avg # of iterations =  1.0

     negative rho (up, down):  5.779E-04 2.422E-02

     total cpu time spent up to now is     3973.7 secs

     total energy              =    -860.05644847 Ry
     Harris-Foulkes estimate   =    -860.05647387 Ry
     estimated scf accuracy    <       0.00004299 Ry

     total magnetization       =     1.94 Bohr mag/cell
     absolute magnetization    =     3.04 Bohr mag/cell

     iteration # 39     ecut=    70.00 Ry     beta= 0.30
     Davidson diagonalization with overlap
     ethr =  1.77E-08,  avg # of iterations =  2.0

     negative rho (up, down):  5.650E-04 1.822E-02

     total cpu time spent up to now is     4084.7 secs

     total energy              =    -860.05649006 Ry
     Harris-Foulkes estimate   =    -860.05647092 Ry
     estimated scf accuracy    <       0.00002700 Ry

     total magnetization       =     1.95 Bohr mag/cell
     absolute magnetization    =     3.05 Bohr mag/cell

     iteration # 40     ecut=    70.00 Ry     beta= 0.30
     Davidson diagonalization with overlap
     ethr =  1.26E-08,  avg # of iterations =  3.0

     negative rho (up, down):  5.797E-04 1.620E-02

     total cpu time spent up to now is     4198.1 secs

     total energy              =    -860.05648938 Ry
     Harris-Foulkes estimate   =    -860.05650151 Ry
     estimated scf accuracy    <       0.00003632 Ry

     total magnetization       =     1.94 Bohr mag/cell
     absolute magnetization    =     3.07 Bohr mag/cell

     iteration # 41     ecut=    70.00 Ry     beta= 0.30
     Davidson diagonalization with overlap
     ethr =  1.26E-08,  avg # of iterations =  2.5

     negative rho (up, down):  5.774E-04 1.734E-02

     total cpu time spent up to now is     4298.9 secs

     total energy              =    -860.05648262 Ry
     Harris-Foulkes estimate   =    -860.05649379 Ry
     estimated scf accuracy    <       0.00003363 Ry

     total magnetization       =     1.94 Bohr mag/cell
     absolute magnetization    =     3.06 Bohr mag/cell

     iteration # 42     ecut=    70.00 Ry     beta= 0.30
     Davidson diagonalization with overlap
     ethr =  1.26E-08,  avg # of iterations =  2.0

     negative rho (up, down):  5.691E-04 1.754E-02

     total cpu time spent up to now is     4401.0 secs

     total energy              =    -860.05648692 Ry
     Harris-Foulkes estimate   =    -860.05648557 Ry
     estimated scf accuracy    <       0.00004109 Ry

     total magnetization       =     1.94 Bohr mag/cell
     absolute magnetization    =     3.06 Bohr mag/cell

     iteration # 43     ecut=    70.00 Ry     beta= 0.30
     Davidson diagonalization with overlap
     ethr =  1.26E-08,  avg # of iterations =  2.0

     negative rho (up, down):  5.720E-04 1.523E-02

     total cpu time spent up to now is     4503.7 secs

     total energy              =    -860.05648838 Ry
     Harris-Foulkes estimate   =    -860.05649024 Ry
     estimated scf accuracy    <       0.00003095 Ry

     total magnetization       =     1.94 Bohr mag/cell
     absolute magnetization    =     3.06 Bohr mag/cell

     iteration # 44     ecut=    70.00 Ry     beta= 0.30
     Davidson diagonalization with overlap
     ethr =  1.26E-08,  avg # of iterations =  2.0

     negative rho (up, down):  5.691E-04 1.401E-02

     total cpu time spent up to now is     4601.9 secs

     total energy              =    -860.05649986 Ry
     Harris-Foulkes estimate   =    -860.05648970 Ry
     estimated scf accuracy    <       0.00003266 Ry

     total magnetization       =     1.94 Bohr mag/cell
     absolute magnetization    =     3.06 Bohr mag/cell

     iteration # 45     ecut=    70.00 Ry     beta= 0.30
     Davidson diagonalization with overlap
     ethr =  1.26E-08,  avg # of iterations =  2.0

     negative rho (up, down):  5.677E-04 1.765E-02

     total cpu time spent up to now is     4704.7 secs

     total energy              =    -860.05647258 Ry
     Harris-Foulkes estimate   =    -860.05650334 Ry
     estimated scf accuracy    <       0.00003312 Ry

     total magnetization       =     1.94 Bohr mag/cell
     absolute magnetization    =     3.07 Bohr mag/cell

     iteration # 46     ecut=    70.00 Ry     beta= 0.30
     Davidson diagonalization with overlap
     ethr =  1.26E-08,  avg # of iterations =  2.0

     negative rho (up, down):  5.589E-04 1.772E-02

     total cpu time spent up to now is     4812.2 secs

     total energy              =    -860.05648053 Ry
     Harris-Foulkes estimate   =    -860.05648307 Ry
     estimated scf accuracy    <       0.00002998 Ry

     total magnetization       =     1.94 Bohr mag/cell
     absolute magnetization    =     3.06 Bohr mag/cell

     iteration # 47     ecut=    70.00 Ry     beta= 0.30
     Davidson diagonalization with overlap
     ethr =  1.26E-08,  avg # of iterations =  3.0

     negative rho (up, down):  5.674E-04 1.574E-02

     total cpu time spent up to now is     4928.3 secs

     total energy              =    -860.05647353 Ry
     Harris-Foulkes estimate   =    -860.05650043 Ry
     estimated scf accuracy    <       0.00005834 Ry

     total magnetization       =     1.94 Bohr mag/cell
     absolute magnetization    =     3.08 Bohr mag/cell

     iteration # 48     ecut=    70.00 Ry     beta= 0.30
     Davidson diagonalization with overlap
     ethr =  1.26E-08,  avg # of iterations =  3.0

     negative rho (up, down):  5.675E-04 1.420E-02

     total cpu time spent up to now is     5039.7 secs

     total energy              =    -860.05649082 Ry
     Harris-Foulkes estimate   =    -860.05649246 Ry
     estimated scf accuracy    <       0.00003014 Ry

     total magnetization       =     1.94 Bohr mag/cell
     absolute magnetization    =     3.08 Bohr mag/cell

     iteration # 49     ecut=    70.00 Ry     beta= 0.30
     Davidson diagonalization with overlap
     ethr =  1.26E-08,  avg # of iterations =  2.5

     negative rho (up, down):  5.698E-04 1.314E-02

     total cpu time spent up to now is     5150.9 secs

     total energy              =    -860.05650132 Ry
     Harris-Foulkes estimate   =    -860.05650029 Ry
     estimated scf accuracy    <       0.00000546 Ry

     total magnetization       =     1.95 Bohr mag/cell
     absolute magnetization    =     3.10 Bohr mag/cell

     iteration # 50     ecut=    70.00 Ry     beta= 0.30
     Davidson diagonalization with overlap
     ethr =  2.55E-09,  avg # of iterations =  2.0

     negative rho (up, down):  5.671E-04 1.225E-02

     total cpu time spent up to now is     5253.3 secs

     total energy              =    -860.05649969 Ry
     Harris-Foulkes estimate   =    -860.05650206 Ry
     estimated scf accuracy    <       0.00000453 Ry

     total magnetization       =     1.95 Bohr mag/cell
     absolute magnetization    =     3.11 Bohr mag/cell

     iteration # 51     ecut=    70.00 Ry     beta= 0.30
     Davidson diagonalization with overlap
     ethr =  2.12E-09,  avg # of iterations =  2.0

     negative rho (up, down):  5.684E-04 1.178E-02

     total cpu time spent up to now is     5358.0 secs

     total energy              =    -860.05650122 Ry
     Harris-Foulkes estimate   =    -860.05650044 Ry
     estimated scf accuracy    <       0.00000507 Ry

     total magnetization       =     1.95 Bohr mag/cell
     absolute magnetization    =     3.11 Bohr mag/cell

     iteration # 52     ecut=    70.00 Ry     beta= 0.30
     Davidson diagonalization with overlap
     ethr =  2.12E-09,  avg # of iterations =  2.0

     negative rho (up, down):  5.706E-04 1.152E-02

     total cpu time spent up to now is     5456.2 secs

     total energy              =    -860.05650209 Ry
     Harris-Foulkes estimate   =    -860.05650145 Ry
     estimated scf accuracy    <       0.00000509 Ry

     total magnetization       =     1.95 Bohr mag/cell
     absolute magnetization    =     3.11 Bohr mag/cell

     iteration # 53     ecut=    70.00 Ry     beta= 0.30
     Davidson diagonalization with overlap
     ethr =  2.12E-09,  avg # of iterations =  3.0

     negative rho (up, down):  5.691E-04 1.191E-02

     total cpu time spent up to now is     5569.0 secs

     total energy              =    -860.05649996 Ry
     Harris-Foulkes estimate   =    -860.05650395 Ry
     estimated scf accuracy    <       0.00000501 Ry

     total magnetization       =     1.95 Bohr mag/cell
     absolute magnetization    =     3.12 Bohr mag/cell

     iteration # 54     ecut=    70.00 Ry     beta= 0.30
     Davidson diagonalization with overlap
     ethr =  2.12E-09,  avg # of iterations =  2.5

     negative rho (up, down):  5.699E-04 1.163E-02

     total cpu time spent up to now is     5677.0 secs

     total energy              =    -860.05650192 Ry
     Harris-Foulkes estimate   =    -860.05650140 Ry
     estimated scf accuracy    <       0.00000467 Ry

     total magnetization       =     1.95 Bohr mag/cell
     absolute magnetization    =     3.11 Bohr mag/cell

     iteration # 55     ecut=    70.00 Ry     beta= 0.30
     Davidson diagonalization with overlap
     ethr =  2.12E-09,  avg # of iterations =  2.0

     negative rho (up, down):  5.716E-04 1.135E-02

     total cpu time spent up to now is     5773.4 secs

     total energy              =    -860.05650277 Ry
     Harris-Foulkes estimate   =    -860.05650205 Ry
     estimated scf accuracy    <       0.00000388 Ry

     total magnetization       =     1.95 Bohr mag/cell
     absolute magnetization    =     3.11 Bohr mag/cell

     iteration # 56     ecut=    70.00 Ry     beta= 0.30
     Davidson diagonalization with overlap
     ethr =  1.82E-09,  avg # of iterations =  2.0

     negative rho (up, down):  5.729E-04 1.124E-02

     total cpu time spent up to now is     5877.8 secs

     total energy              =    -860.05650398 Ry
     Harris-Foulkes estimate   =    -860.05650334 Ry
     estimated scf accuracy    <       0.00000362 Ry

     total magnetization       =     1.95 Bohr mag/cell
     absolute magnetization    =     3.11 Bohr mag/cell

     iteration # 57     ecut=    70.00 Ry     beta= 0.30
     Davidson diagonalization with overlap
     ethr =  1.69E-09,  avg # of iterations =  2.0

     negative rho (up, down):  5.711E-04 1.187E-02

     total cpu time spent up to now is     5980.0 secs

     total energy              =    -860.05650223 Ry
     Harris-Foulkes estimate   =    -860.05650438 Ry
     estimated scf accuracy    <       0.00000392 Ry

     total magnetization       =     1.95 Bohr mag/cell
     absolute magnetization    =     3.12 Bohr mag/cell

     iteration # 58     ecut=    70.00 Ry     beta= 0.30
     Davidson diagonalization with overlap
     ethr =  1.69E-09,  avg # of iterations =  2.0

     negative rho (up, down):  5.731E-04 1.163E-02

     total cpu time spent up to now is     6080.8 secs

     total energy              =    -860.05650347 Ry
     Harris-Foulkes estimate   =    -860.05650259 Ry
     estimated scf accuracy    <       0.00000371 Ry

     total magnetization       =     1.95 Bohr mag/cell
     absolute magnetization    =     3.11 Bohr mag/cell

     iteration # 59     ecut=    70.00 Ry     beta= 0.30
     Davidson diagonalization with overlap
     ethr =  1.69E-09,  avg # of iterations =  2.0

     negative rho (up, down):  5.723E-04 1.228E-02

     total cpu time spent up to now is     6185.8 secs

     total energy              =    -860.05650195 Ry
     Harris-Foulkes estimate   =    -860.05650423 Ry
     estimated scf accuracy    <       0.00000477 Ry

     total magnetization       =     1.95 Bohr mag/cell
     absolute magnetization    =     3.11 Bohr mag/cell

     iteration # 60     ecut=    70.00 Ry     beta= 0.30
     Davidson diagonalization with overlap
     ethr =  1.69E-09,  avg # of iterations =  2.0

     negative rho (up, down):  5.728E-04 1.184E-02

     total cpu time spent up to now is     6290.0 secs

     total energy              =    -860.05650265 Ry
     Harris-Foulkes estimate   =    -860.05650260 Ry
     estimated scf accuracy    <       0.00000385 Ry

     total magnetization       =     1.95 Bohr mag/cell
     absolute magnetization    =     3.11 Bohr mag/cell

     iteration # 61     ecut=    70.00 Ry     beta= 0.30
     Davidson diagonalization with overlap
     ethr =  1.69E-09,  avg # of iterations =  2.0

     negative rho (up, down):  5.727E-04 1.208E-02

     total cpu time spent up to now is     6396.4 secs

     total energy              =    -860.05650215 Ry
     Harris-Foulkes estimate   =    -860.05650366 Ry
     estimated scf accuracy    <       0.00000473 Ry

     total magnetization       =     1.95 Bohr mag/cell
     absolute magnetization    =     3.11 Bohr mag/cell

     iteration # 62     ecut=    70.00 Ry     beta= 0.30
     Davidson diagonalization with overlap
     ethr =  1.69E-09,  avg # of iterations =  2.0

     negative rho (up, down):  5.739E-04 1.162E-02

     total cpu time spent up to now is     6501.2 secs

     total energy              =    -860.05650422 Ry
     Harris-Foulkes estimate   =    -860.05650281 Ry
     estimated scf accuracy    <       0.00000502 Ry

     total magnetization       =     1.95 Bohr mag/cell
     absolute magnetization    =     3.11 Bohr mag/cell

     iteration # 63     ecut=    70.00 Ry     beta= 0.30
     Davidson diagonalization with overlap
     ethr =  1.69E-09,  avg # of iterations =  2.0

     negative rho (up, down):  5.735E-04 1.263E-02

     total cpu time spent up to now is     6604.0 secs

     total energy              =    -860.05650077 Ry
     Harris-Foulkes estimate   =    -860.05650470 Ry
     estimated scf accuracy    <       0.00000503 Ry

     total magnetization       =     1.95 Bohr mag/cell
     absolute magnetization    =     3.11 Bohr mag/cell

     iteration # 64     ecut=    70.00 Ry     beta= 0.30
     Davidson diagonalization with overlap
     ethr =  1.69E-09,  avg # of iterations =  2.0

     negative rho (up, down):  5.739E-04 1.198E-02

     total cpu time spent up to now is     6713.8 secs

     total energy              =    -860.05650383 Ry
     Harris-Foulkes estimate   =    -860.05650254 Ry
     estimated scf accuracy    <       0.00000805 Ry

     total magnetization       =     1.95 Bohr mag/cell
     absolute magnetization    =     3.11 Bohr mag/cell

     iteration # 65     ecut=    70.00 Ry     beta= 0.30
     Davidson diagonalization with overlap
     ethr =  1.69E-09,  avg # of iterations =  2.0

     negative rho (up, down):  5.748E-04 1.152E-02

     total cpu time spent up to now is     6813.4 secs

     total energy              =    -860.05650469 Ry
     Harris-Foulkes estimate   =    -860.05650410 Ry
     estimated scf accuracy    <       0.00000619 Ry

     total magnetization       =     1.95 Bohr mag/cell
     absolute magnetization    =     3.11 Bohr mag/cell

     iteration # 66     ecut=    70.00 Ry     beta= 0.30
     Davidson diagonalization with overlap
     ethr =  1.69E-09,  avg # of iterations =  2.5

     negative rho (up, down):  5.746E-04 1.230E-02

     total cpu time spent up to now is     6923.4 secs

     total energy              =    -860.05650381 Ry
     Harris-Foulkes estimate   =    -860.05650639 Ry
     estimated scf accuracy    <       0.00000604 Ry

     total magnetization       =     1.95 Bohr mag/cell
     absolute magnetization    =     3.11 Bohr mag/cell

     iteration # 67     ecut=    70.00 Ry     beta= 0.30
     Davidson diagonalization with overlap
     ethr =  1.69E-09,  avg # of iterations =  2.0

     negative rho (up, down):  5.760E-04 1.165E-02

     total cpu time spent up to now is     7028.4 secs

     total energy              =    -860.05650606 Ry
     Harris-Foulkes estimate   =    -860.05650449 Ry
     estimated scf accuracy    <       0.00000465 Ry

     total magnetization       =     1.95 Bohr mag/cell
     absolute magnetization    =     3.11 Bohr mag/cell

     iteration # 68     ecut=    70.00 Ry     beta= 0.30
     Davidson diagonalization with overlap
     ethr =  1.69E-09,  avg # of iterations =  2.0

     negative rho (up, down):  5.760E-04 1.198E-02

     total cpu time spent up to now is     7136.4 secs

     total energy              =    -860.05650623 Ry
     Harris-Foulkes estimate   =    -860.05650715 Ry
     estimated scf accuracy    <       0.00000564 Ry

     total magnetization       =     1.95 Bohr mag/cell
     absolute magnetization    =     3.11 Bohr mag/cell

     iteration # 69     ecut=    70.00 Ry     beta= 0.30
     Davidson diagonalization with overlap
     ethr =  1.69E-09,  avg # of iterations =  2.0

     negative rho (up, down):  5.757E-04 1.216E-02

     total cpu time spent up to now is     7240.7 secs

     total energy              =    -860.05650657 Ry
     Harris-Foulkes estimate   =    -860.05650675 Ry
     estimated scf accuracy    <       0.00000586 Ry

     total magnetization       =     1.95 Bohr mag/cell
     absolute magnetization    =     3.11 Bohr mag/cell

     iteration # 70     ecut=    70.00 Ry     beta= 0.30
     Davidson diagonalization with overlap
     ethr =  1.69E-09,  avg # of iterations =  2.0

     negative rho (up, down):  5.750E-04 1.255E-02

     total cpu time spent up to now is     7336.5 secs

     total energy              =    -860.05650554 Ry
     Harris-Foulkes estimate   =    -860.05650664 Ry
     estimated scf accuracy    <       0.00000589 Ry

     total magnetization       =     1.95 Bohr mag/cell
     absolute magnetization    =     3.11 Bohr mag/cell

     iteration # 71     ecut=    70.00 Ry     beta= 0.30
     Davidson diagonalization with overlap
     ethr =  1.69E-09,  avg # of iterations =  2.0

     negative rho (up, down):  5.743E-04 1.316E-02

     total cpu time spent up to now is     7432.8 secs

     total energy              =    -860.05650277 Ry
     Harris-Foulkes estimate   =    -860.05650564 Ry
     estimated scf accuracy    <       0.00000529 Ry

     total magnetization       =     1.95 Bohr mag/cell
     absolute magnetization    =     3.11 Bohr mag/cell

     iteration # 72     ecut=    70.00 Ry     beta= 0.30
     Davidson diagonalization with overlap
     ethr =  1.69E-09,  avg # of iterations =  2.0

     negative rho (up, down):  5.744E-04 1.313E-02

     total cpu time spent up to now is     7539.4 secs

     total energy              =    -860.05650211 Ry
     Harris-Foulkes estimate   =    -860.05650381 Ry
     estimated scf accuracy    <       0.00000465 Ry

     total magnetization       =     1.95 Bohr mag/cell
     absolute magnetization    =     3.11 Bohr mag/cell

     iteration # 73     ecut=    70.00 Ry     beta= 0.30
     Davidson diagonalization with overlap
     ethr =  1.69E-09,  avg # of iterations =  3.0

     negative rho (up, down):  5.754E-04 1.233E-02

     total cpu time spent up to now is     7646.3 secs

     total energy              =    -860.05650476 Ry
     Harris-Foulkes estimate   =    -860.05650377 Ry
     estimated scf accuracy    <       0.00002266 Ry

     total magnetization       =     1.95 Bohr mag/cell
     absolute magnetization    =     3.10 Bohr mag/cell

     iteration # 74     ecut=    70.00 Ry     beta= 0.30
     Davidson diagonalization with overlap
     ethr =  1.69E-09,  avg # of iterations =  2.5

     negative rho (up, down):  5.744E-04 1.343E-02

     total cpu time spent up to now is     7753.0 secs

     total energy              =    -860.05650004 Ry
     Harris-Foulkes estimate   =    -860.05650566 Ry
     estimated scf accuracy    <       0.00000960 Ry

     total magnetization       =     1.95 Bohr mag/cell
     absolute magnetization    =     3.11 Bohr mag/cell

     iteration # 75     ecut=    70.00 Ry     beta= 0.30
     Davidson diagonalization with overlap
     ethr =  1.69E-09,  avg # of iterations =  2.0

     negative rho (up, down):  5.749E-04 1.365E-02

     total cpu time spent up to now is     7863.6 secs

     total energy              =    -860.05650067 Ry
     Harris-Foulkes estimate   =    -860.05650228 Ry
     estimated scf accuracy    <       0.00001004 Ry

     total magnetization       =     1.95 Bohr mag/cell
     absolute magnetization    =     3.10 Bohr mag/cell

     iteration # 76     ecut=    70.00 Ry     beta= 0.30
     Davidson diagonalization with overlap
     ethr =  1.69E-09,  avg # of iterations =  2.0

     negative rho (up, down):  5.759E-04 1.245E-02

     total cpu time spent up to now is     7967.6 secs

     total energy              =    -860.05650297 Ry
     Harris-Foulkes estimate   =    -860.05650121 Ry
     estimated scf accuracy    <       0.00000879 Ry

     total magnetization       =     1.95 Bohr mag/cell
     absolute magnetization    =     3.10 Bohr mag/cell

     iteration # 77     ecut=    70.00 Ry     beta= 0.30
     Davidson diagonalization with overlap
     ethr =  1.69E-09,  avg # of iterations =  2.0

     negative rho (up, down):  5.772E-04 1.214E-02

     total cpu time spent up to now is     8070.3 secs

     total energy              =    -860.05650370 Ry
     Harris-Foulkes estimate   =    -860.05650345 Ry
     estimated scf accuracy    <       0.00000874 Ry

     total magnetization       =     1.95 Bohr mag/cell
     absolute magnetization    =     3.11 Bohr mag/cell

     iteration # 78     ecut=    70.00 Ry     beta= 0.30
     Davidson diagonalization with overlap
     ethr =  1.69E-09,  avg # of iterations =  2.0

     negative rho (up, down):  5.778E-04 1.332E-02

     total cpu time spent up to now is     8170.7 secs

     total energy              =    -860.05649937 Ry
     Harris-Foulkes estimate   =    -860.05650402 Ry
     estimated scf accuracy    <       0.00000651 Ry

     total magnetization       =     1.95 Bohr mag/cell
     absolute magnetization    =     3.11 Bohr mag/cell

     iteration # 79     ecut=    70.00 Ry     beta= 0.30
     Davidson diagonalization with overlap
     ethr =  1.69E-09,  avg # of iterations =  3.0

     negative rho (up, down):  5.777E-04 1.185E-02

     total cpu time spent up to now is     8285.5 secs

     total energy              =    -860.05650424 Ry
     Harris-Foulkes estimate   =    -860.05650366 Ry
     estimated scf accuracy    <       0.00000880 Ry

     total magnetization       =     1.95 Bohr mag/cell
     absolute magnetization    =     3.10 Bohr mag/cell

     iteration # 80     ecut=    70.00 Ry     beta= 0.30
     Davidson diagonalization with overlap
     ethr =  1.69E-09,  avg # of iterations =  2.0

     negative rho (up, down):  5.768E-04 1.344E-02

     total cpu time spent up to now is     8391.8 secs

     total energy              =    -860.05649554 Ry
     Harris-Foulkes estimate   =    -860.05650525 Ry
     estimated scf accuracy    <       0.00000612 Ry

     total magnetization       =     1.95 Bohr mag/cell
     absolute magnetization    =     3.11 Bohr mag/cell

     iteration # 81     ecut=    70.00 Ry     beta= 0.30
     Davidson diagonalization with overlap
     ethr =  1.69E-09,  avg # of iterations =  3.0

     negative rho (up, down):  5.791E-04 1.323E-02

     total cpu time spent up to now is     8506.0 secs

     total energy              =    -860.05649927 Ry
     Harris-Foulkes estimate   =    -860.05650063 Ry
     estimated scf accuracy    <       0.00000837 Ry

     total magnetization       =     1.95 Bohr mag/cell
     absolute magnetization    =     3.10 Bohr mag/cell

     iteration # 82     ecut=    70.00 Ry     beta= 0.30
     Davidson diagonalization with overlap
     ethr =  1.69E-09,  avg # of iterations =  2.0

     negative rho (up, down):  5.795E-04 1.236E-02

     total cpu time spent up to now is     8612.9 secs

     total energy              =    -860.05650067 Ry
     Harris-Foulkes estimate   =    -860.05650028 Ry
     estimated scf accuracy    <       0.00000574 Ry

     total magnetization       =     1.95 Bohr mag/cell
     absolute magnetization    =     3.10 Bohr mag/cell

     iteration # 83     ecut=    70.00 Ry     beta= 0.30
     Davidson diagonalization with overlap
     ethr =  1.69E-09,  avg # of iterations =  2.0

     negative rho (up, down):  5.816E-04 1.231E-02

     total cpu time spent up to now is     8709.0 secs

     total energy              =    -860.05650026 Ry
     Harris-Foulkes estimate   =    -860.05650086 Ry
     estimated scf accuracy    <       0.00000393 Ry

     total magnetization       =     1.95 Bohr mag/cell
     absolute magnetization    =     3.11 Bohr mag/cell

     iteration # 84     ecut=    70.00 Ry     beta= 0.30
     Davidson diagonalization with overlap
     ethr =  1.69E-09,  avg # of iterations =  2.5

     negative rho (up, down):  5.827E-04 1.173E-02

     total cpu time spent up to now is     8817.5 secs

     total energy              =    -860.05650196 Ry
     Harris-Foulkes estimate   =    -860.05650144 Ry
     estimated scf accuracy    <       0.00000243 Ry

     total magnetization       =     1.95 Bohr mag/cell
     absolute magnetization    =     3.11 Bohr mag/cell

     iteration # 85     ecut=    70.00 Ry     beta= 0.30
     Davidson diagonalization with overlap
     ethr =  1.14E-09,  avg # of iterations =  2.5

     negative rho (up, down):  5.819E-04 1.124E-02

     total cpu time spent up to now is     8922.3 secs

     total energy              =    -860.05650241 Ry
     Harris-Foulkes estimate   =    -860.05650243 Ry
     estimated scf accuracy    <       0.00000108 Ry

     total magnetization       =     1.95 Bohr mag/cell
     absolute magnetization    =     3.11 Bohr mag/cell

     iteration # 86     ecut=    70.00 Ry     beta= 0.30
     Davidson diagonalization with overlap
     ethr =  5.05E-10,  avg # of iterations =  2.0

     negative rho (up, down):  5.817E-04 1.117E-02

     total cpu time spent up to now is     9026.7 secs

     total energy              =    -860.05650218 Ry
     Harris-Foulkes estimate   =    -860.05650259 Ry
     estimated scf accuracy    <       0.00000142 Ry

     total magnetization       =     1.95 Bohr mag/cell
     absolute magnetization    =     3.11 Bohr mag/cell

     iteration # 87     ecut=    70.00 Ry     beta= 0.30
     Davidson diagonalization with overlap
     ethr =  5.05E-10,  avg # of iterations =  2.0

     negative rho (up, down):  5.813E-04 1.105E-02

     total cpu time spent up to now is     9132.8 secs

     total energy              =    -860.05650249 Ry
     Harris-Foulkes estimate   =    -860.05650248 Ry
     estimated scf accuracy    <       0.00000110 Ry

     total magnetization       =     1.95 Bohr mag/cell
     absolute magnetization    =     3.11 Bohr mag/cell

     iteration # 88     ecut=    70.00 Ry     beta= 0.30
     Davidson diagonalization with overlap
     ethr =  5.05E-10,  avg # of iterations =  2.0

     negative rho (up, down):  5.821E-04 1.129E-02

     total cpu time spent up to now is     9235.3 secs

     total energy              =    -860.05650216 Ry
     Harris-Foulkes estimate   =    -860.05650262 Ry
     estimated scf accuracy    <       0.00000131 Ry

     total magnetization       =     1.95 Bohr mag/cell
     absolute magnetization    =     3.11 Bohr mag/cell

     iteration # 89     ecut=    70.00 Ry     beta= 0.30
     Davidson diagonalization with overlap
     ethr =  5.05E-10,  avg # of iterations =  2.5

     negative rho (up, down):  5.820E-04 1.110E-02

     total cpu time spent up to now is     9346.8 secs

     total energy              =    -860.05650314 Ry
     Harris-Foulkes estimate   =    -860.05650294 Ry
     estimated scf accuracy    <       0.00000133 Ry

     total magnetization       =     1.95 Bohr mag/cell
     absolute magnetization    =     3.11 Bohr mag/cell

     iteration # 90     ecut=    70.00 Ry     beta= 0.30
     Davidson diagonalization with overlap
     ethr =  5.05E-10,  avg # of iterations =  2.0

     negative rho (up, down):  5.821E-04 1.159E-02

     total cpu time spent up to now is     9443.8 secs

     total energy              =    -860.05650039 Ry
     Harris-Foulkes estimate   =    -860.05650319 Ry
     estimated scf accuracy    <       0.00000145 Ry

     total magnetization       =     1.95 Bohr mag/cell
     absolute magnetization    =     3.11 Bohr mag/cell

     iteration # 91     ecut=    70.00 Ry     beta= 0.30
     Davidson diagonalization with overlap
     ethr =  5.05E-10,  avg # of iterations =  3.0

     negative rho (up, down):  5.820E-04 1.141E-02

     total cpu time spent up to now is     9560.5 secs

     total energy              =    -860.05650142 Ry
     Harris-Foulkes estimate   =    -860.05650154 Ry
     estimated scf accuracy    <       0.00000269 Ry

     total magnetization       =     1.95 Bohr mag/cell
     absolute magnetization    =     3.11 Bohr mag/cell

     iteration # 92     ecut=    70.00 Ry     beta= 0.30
     Davidson diagonalization with overlap
     ethr =  5.05E-10,  avg # of iterations =  2.0

     negative rho (up, down):  5.818E-04 1.128E-02

     total cpu time spent up to now is     9669.7 secs

     total energy              =    -860.05650175 Ry
     Harris-Foulkes estimate   =    -860.05650191 Ry
     estimated scf accuracy    <       0.00000114 Ry

     total magnetization       =     1.95 Bohr mag/cell
     absolute magnetization    =     3.11 Bohr mag/cell

     iteration # 93     ecut=    70.00 Ry     beta= 0.30
     Davidson diagonalization with overlap
     ethr =  5.05E-10,  avg # of iterations =  2.0

     negative rho (up, down):  5.820E-04 1.122E-02

     total cpu time spent up to now is     9771.4 secs

     total energy              =    -860.05650185 Ry
     Harris-Foulkes estimate   =    -860.05650187 Ry
     estimated scf accuracy    <       0.00000126 Ry

     total magnetization       =     1.95 Bohr mag/cell
     absolute magnetization    =     3.11 Bohr mag/cell

     iteration # 94     ecut=    70.00 Ry     beta= 0.30
     Davidson diagonalization with overlap
     ethr =  5.05E-10,  avg # of iterations =  2.0

     negative rho (up, down):  5.815E-04 1.100E-02

     total cpu time spent up to now is     9873.5 secs

     total energy              =    -860.05650262 Ry
     Harris-Foulkes estimate   =    -860.05650197 Ry
     estimated scf accuracy    <       0.00000118 Ry

     total magnetization       =     1.95 Bohr mag/cell
     absolute magnetization    =     3.11 Bohr mag/cell

     iteration # 95     ecut=    70.00 Ry     beta= 0.30
     Davidson diagonalization with overlap
     ethr =  5.05E-10,  avg # of iterations =  2.5

     negative rho (up, down):  5.812E-04 1.100E-02

     total cpu time spent up to now is     9980.8 secs

     total energy              =    -860.05650299 Ry
     Harris-Foulkes estimate   =    -860.05650292 Ry
     estimated scf accuracy    <       0.00000125 Ry

     total magnetization       =     1.95 Bohr mag/cell
     absolute magnetization    =     3.11 Bohr mag/cell

     iteration # 96     ecut=    70.00 Ry     beta= 0.30
     Davidson diagonalization with overlap
     ethr =  5.05E-10,  avg # of iterations =  2.0

     negative rho (up, down):  5.817E-04 1.119E-02

     total cpu time spent up to now is    10077.9 secs

     total energy              =    -860.05650225 Ry
     Harris-Foulkes estimate   =    -860.05650304 Ry
     estimated scf accuracy    <       0.00000125 Ry

     total magnetization       =     1.95 Bohr mag/cell
     absolute magnetization    =     3.11 Bohr mag/cell

     iteration # 97     ecut=    70.00 Ry     beta= 0.30
     Davidson diagonalization with overlap
     ethr =  5.05E-10,  avg # of iterations =  2.0

     negative rho (up, down):  5.823E-04 1.144E-02

     total cpu time spent up to now is    10185.3 secs

     total energy              =    -860.05650119 Ry
     Harris-Foulkes estimate   =    -860.05650253 Ry
     estimated scf accuracy    <       0.00000114 Ry

     total magnetization       =     1.95 Bohr mag/cell
     absolute magnetization    =     3.11 Bohr mag/cell

     iteration # 98     ecut=    70.00 Ry     beta= 0.30
     Davidson diagonalization with overlap
     ethr =  5.05E-10,  avg # of iterations =  3.0

     negative rho (up, down):  5.821E-04 1.135E-02

     total cpu time spent up to now is    10295.6 secs

     total energy              =    -860.05650153 Ry
     Harris-Foulkes estimate   =    -860.05650157 Ry
     estimated scf accuracy    <       0.00000147 Ry

     total magnetization       =     1.95 Bohr mag/cell
     absolute magnetization    =     3.11 Bohr mag/cell

     iteration # 99     ecut=    70.00 Ry     beta= 0.30
     Davidson diagonalization with overlap
     ethr =  5.05E-10,  avg # of iterations =  2.0

     negative rho (up, down):  5.808E-04 1.125E-02

     total cpu time spent up to now is    10402.1 secs

     total energy              =    -860.05650145 Ry
     Harris-Foulkes estimate   =    -860.05650182 Ry
     estimated scf accuracy    <       0.00000146 Ry

     total magnetization       =     1.95 Bohr mag/cell
     absolute magnetization    =     3.11 Bohr mag/cell

     iteration #100     ecut=    70.00 Ry     beta= 0.30
     Davidson diagonalization with overlap
     ethr =  5.05E-10,  avg # of iterations =  3.5

     negative rho (up, down):  5.809E-04 1.111E-02

     Magnetic moment per site:
     atom:    1    charge:    0.2104    magn:    0.0000    constr:    0.0000
     atom:    2    charge:    0.2122    magn:    0.0002    constr:    0.0000
     atom:    3    charge:    1.7170    magn:   -0.0125    constr:    0.0000
     atom:    4    charge:    1.7154    magn:    0.0168    constr:    0.0000
     atom:    5    charge:    1.7176    magn:   -0.0089    constr:    0.0000
     atom:    6    charge:    1.7142    magn:    0.0056    constr:    0.0000
     atom:    7    charge:    1.7176    magn:   -0.0090    constr:    0.0000
     atom:    8    charge:    1.7153    magn:    0.0170    constr:    0.0000
     atom:    9    charge:    1.7171    magn:   -0.0126    constr:    0.0000
     atom:   10    charge:    1.7148    magn:    0.0572    constr:    0.0000
     atom:   11    charge:    1.7174    magn:   -0.0161    constr:    0.0000
     atom:   12    charge:    1.7150    magn:    0.0563    constr:    0.0000
     atom:   13    charge:    1.7173    magn:   -0.0159    constr:    0.0000
     atom:   14    charge:    1.7156    magn:    0.0442    constr:    0.0000
     atom:   15    charge:    1.7138    magn:   -0.0124    constr:    0.0000
     atom:   16    charge:    1.7109    magn:    0.0551    constr:    0.0000
     atom:   17    charge:    1.7228    magn:   -0.0139    constr:    0.0000
     atom:   18    charge:    1.7109    magn:    0.0551    constr:    0.0000
     atom:   19    charge:    1.7138    magn:   -0.0123    constr:    0.0000
     atom:   20    charge:    1.7156    magn:    0.0437    constr:    0.0000
     atom:   21    charge:    1.7173    magn:   -0.0160    constr:    0.0000
     atom:   22    charge:    1.7158    magn:    0.0499    constr:    0.0000
     atom:   23    charge:    1.7168    magn:   -0.0120    constr:    0.0000
     atom:   24    charge:    1.7155    magn:    0.0158    constr:    0.0000
     atom:   25    charge:    1.7138    magn:   -0.0123    constr:    0.0000
     atom:   26    charge:    1.7115    magn:    0.0496    constr:    0.0000
     atom:   27    charge:    1.8521    magn:   -0.0196    constr:    0.0000
     atom:   28    charge:   11.1460    magn:    0.4803    constr:    0.0000
     atom:   29    charge:    1.8521    magn:   -0.0198    constr:    0.0000
     atom:   30    charge:    1.7116    magn:    0.0490    constr:    0.0000
     atom:   31    charge:    1.7137    magn:   -0.0123    constr:    0.0000
     atom:   32    charge:    1.7155    magn:    0.0159    constr:    0.0000
     atom:   33    charge:    1.7175    magn:   -0.0088    constr:    0.0000
     atom:   34    charge:    1.7141    magn:    0.0115    constr:    0.0000
     atom:   35    charge:    1.7175    magn:   -0.0087    constr:    0.0000
     atom:   36    charge:    1.7142    magn:    0.0056    constr:    0.0000
     atom:   37    charge:    1.7225    magn:   -0.0129    constr:    0.0000
     atom:   38    charge:    1.7115    magn:    0.0485    constr:    0.0000
     atom:   39    charge:    1.8517    magn:   -0.0198    constr:    0.0000
     atom:   40    charge:    1.7116    magn:    0.0478    constr:    0.0000
     atom:   41    charge:    1.7224    magn:   -0.0129    constr:    0.0000
     atom:   42    charge:    1.7142    magn:    0.0056    constr:    0.0000
     atom:   43    charge:    1.7176    magn:   -0.0090    constr:    0.0000
     atom:   44    charge:    1.7140    magn:    0.0126    constr:    0.0000
     atom:   45    charge:    1.7233    magn:   -0.0089    constr:    0.0000
     atom:   46    charge:    1.7140    magn:    0.0127    constr:    0.0000
     atom:   47    charge:    1.7176    magn:   -0.0090    constr:    0.0000
     atom:   48    charge:    1.7152    magn:    0.0178    constr:    0.0000
     atom:   49    charge:    1.7136    magn:   -0.0116    constr:    0.0000
     atom:   50    charge:    1.7162    magn:    0.0387    constr:    0.0000
     atom:   51    charge:    1.7136    magn:   -0.0116    constr:    0.0000
     atom:   52    charge:    1.7152    magn:    0.0177    constr:    0.0000

     total cpu time spent up to now is    10534.2 secs

     total energy              =    -860.05650333 Ry
     Harris-Foulkes estimate   =    -860.05650345 Ry
     estimated scf accuracy    <       0.00000128 Ry

     total magnetization       =     1.95 Bohr mag/cell
     absolute magnetization    =     3.12 Bohr mag/cell

     iteration #101     ecut=    70.00 Ry     beta= 0.30
     Davidson diagonalization with overlap
     ethr =  5.05E-10,  avg # of iterations =  2.0

     negative rho (up, down):  5.802E-04 1.089E-02

     Magnetic moment per site:
     atom:    1    charge:    0.2104    magn:    0.0000    constr:    0.0000
     atom:    2    charge:    0.2122    magn:    0.0002    constr:    0.0000
     atom:    3    charge:    1.7170    magn:   -0.0125    constr:    0.0000
     atom:    4    charge:    1.7154    magn:    0.0168    constr:    0.0000
     atom:    5    charge:    1.7176    magn:   -0.0089    constr:    0.0000
     atom:    6    charge:    1.7143    magn:    0.0056    constr:    0.0000
     atom:    7    charge:    1.7176    magn:   -0.0090    constr:    0.0000
     atom:    8    charge:    1.7153    magn:    0.0170    constr:    0.0000
     atom:    9    charge:    1.7171    magn:   -0.0126    constr:    0.0000
     atom:   10    charge:    1.7148    magn:    0.0572    constr:    0.0000
     atom:   11    charge:    1.7174    magn:   -0.0161    constr:    0.0000
     atom:   12    charge:    1.7150    magn:    0.0563    constr:    0.0000
     atom:   13    charge:    1.7173    magn:   -0.0160    constr:    0.0000
     atom:   14    charge:    1.7156    magn:    0.0443    constr:    0.0000
     atom:   15    charge:    1.7139    magn:   -0.0124    constr:    0.0000
     atom:   16    charge:    1.7109    magn:    0.0551    constr:    0.0000
     atom:   17    charge:    1.7228    magn:   -0.0139    constr:    0.0000
     atom:   18    charge:    1.7109    magn:    0.0551    constr:    0.0000
     atom:   19    charge:    1.7138    magn:   -0.0123    constr:    0.0000
     atom:   20    charge:    1.7156    magn:    0.0437    constr:    0.0000
     atom:   21    charge:    1.7173    magn:   -0.0160    constr:    0.0000
     atom:   22    charge:    1.7158    magn:    0.0500    constr:    0.0000
     atom:   23    charge:    1.7168    magn:   -0.0120    constr:    0.0000
     atom:   24    charge:    1.7155    magn:    0.0158    constr:    0.0000
     atom:   25    charge:    1.7138    magn:   -0.0123    constr:    0.0000
     atom:   26    charge:    1.7115    magn:    0.0496    constr:    0.0000
     atom:   27    charge:    1.8522    magn:   -0.0196    constr:    0.0000
     atom:   28    charge:   11.1458    magn:    0.4803    constr:    0.0000
     atom:   29    charge:    1.8521    magn:   -0.0198    constr:    0.0000
     atom:   30    charge:    1.7116    magn:    0.0489    constr:    0.0000
     atom:   31    charge:    1.7137    magn:   -0.0123    constr:    0.0000
     atom:   32    charge:    1.7155    magn:    0.0160    constr:    0.0000
     atom:   33    charge:    1.7175    magn:   -0.0088    constr:    0.0000
     atom:   34    charge:    1.7141    magn:    0.0115    constr:    0.0000
     atom:   35    charge:    1.7175    magn:   -0.0088    constr:    0.0000
     atom:   36    charge:    1.7142    magn:    0.0056    constr:    0.0000
     atom:   37    charge:    1.7225    magn:   -0.0129    constr:    0.0000
     atom:   38    charge:    1.7115    magn:    0.0485    constr:    0.0000
     atom:   39    charge:    1.8517    magn:   -0.0198    constr:    0.0000
     atom:   40    charge:    1.7116    magn:    0.0478    constr:    0.0000
     atom:   41    charge:    1.7224    magn:   -0.0129    constr:    0.0000
     atom:   42    charge:    1.7142    magn:    0.0056    constr:    0.0000
     atom:   43    charge:    1.7176    magn:   -0.0090    constr:    0.0000
     atom:   44    charge:    1.7140    magn:    0.0126    constr:    0.0000
     atom:   45    charge:    1.7233    magn:   -0.0089    constr:    0.0000
     atom:   46    charge:    1.7140    magn:    0.0127    constr:    0.0000
     atom:   47    charge:    1.7176    magn:   -0.0090    constr:    0.0000
     atom:   48    charge:    1.7152    magn:    0.0178    constr:    0.0000
     atom:   49    charge:    1.7136    magn:   -0.0116    constr:    0.0000
     atom:   50    charge:    1.7162    magn:    0.0388    constr:    0.0000
     atom:   51    charge:    1.7136    magn:   -0.0117    constr:    0.0000
     atom:   52    charge:    1.7152    magn:    0.0177    constr:    0.0000

     total cpu time spent up to now is    10632.2 secs

     End of self-consistent calculation

 ------ SPIN UP ------------


          k = 0.0000 0.0000 0.0000 ( 87777 PWs)   bands (ev):

   -88.8466 -55.7376 -55.6877 -54.0685 -19.8671 -19.0396 -19.0253 -18.9418
   -18.9159 -18.9112 -18.5803 -17.1676 -17.1587 -17.1570 -17.0918 -17.0872
   -16.7820 -16.3167 -16.3139 -16.2102 -16.1659 -16.1655 -15.4835 -14.2296
   -14.2143 -14.1338 -14.0824 -14.0799 -13.4222 -13.1515 -13.1480 -13.1227
   -12.8485 -12.8476 -12.4350 -11.9342 -11.9328 -11.7395 -11.4975 -11.4959
   -10.6236  -9.8022  -9.7988  -9.5222  -9.4037  -9.4024  -9.3173  -9.2868
    -9.2863  -9.2737  -8.8160  -8.8154  -8.2859  -8.2828  -8.1849  -8.0163
    -7.9216  -7.5311  -7.5281  -7.3407  -7.2352  -7.2284  -7.0777  -7.0775
    -6.9228  -6.9073  -6.9009  -6.8018  -6.6530  -6.6465  -6.6269  -6.6215
    -6.6107  -6.6075  -6.5631  -6.2263  -5.7441  -5.7399  -5.7167  -5.6987
    -5.4750  -5.4723  -5.3427  -5.0747  -4.9667  -4.8268  -4.7996  -4.7944
    -4.5519  -4.5472  -4.4839  -4.3307  -4.3200  -3.9586  -3.9574  -3.8693
    -3.7697  -3.7680  -3.2102  -2.9134  -2.9051  -1.9571  -1.8886  -1.8865
    -1.3586  -1.3198  -1.2170  -0.9044   0.8387   0.8852   0.8868   1.3968
     1.4085   1.5189   2.3133   2.3142   2.5323   2.6847   2.6859   2.7819
     3.2925   3.3016   3.4374   3.6632   3.6858   3.7346   3.7368   3.7576

     occupation numbers 
     1.0000   1.0000   1.0000   1.0000   1.0000   1.0000   1.0000   1.0000
     1.0000   1.0000   1.0000   1.0000   1.0000   1.0000   1.0000   1.0000
     1.0000   1.0000   1.0000   1.0000   1.0000   1.0000   1.0000   1.0000
     1.0000   1.0000   1.0000   1.0000   1.0000   1.0000   1.0000   1.0000
     1.0000   1.0000   1.0000   1.0000   1.0000   1.0000   1.0000   1.0000
     1.0000   1.0000   1.0000   1.0000   1.0000   1.0000   1.0000   1.0000
     1.0000   1.0000   1.0000   1.0000   1.0000   1.0000   1.0000   1.0000
     1.0000   1.0000   1.0000   1.0000   1.0000   1.0000   1.0000   1.0000
     1.0000   1.0000   1.0000   1.0000   1.0000   1.0000   1.0000   1.0000
     1.0000   1.0000   1.0000   1.0000   1.0000   1.0000   1.0000   1.0000
     1.0000   1.0000   1.0000   1.0000   1.0000   1.0000   1.0000   1.0000
     1.0000   1.0000   1.0000   1.0000   1.0000   1.0000   1.0000   1.0000
     1.0000   1.0000   1.0000   1.0000   1.0000   1.0000   1.0000   1.0000
     1.0000   1.0000   1.0000   0.9744   0.0000   0.0000   0.0000   0.0000
     0.0000   0.0000   0.0000   0.0000   0.0000   0.0000   0.0000   0.0000
     0.0000   0.0000   0.0000   0.0000   0.0000   0.0000   0.0000   0.0000

 ------ SPIN DOWN ----------


          k = 0.0000 0.0000 0.0000 ( 87777 PWs)   bands (ev):

   -88.0807 -55.0982 -55.0830 -53.1119 -19.8291 -18.9947 -18.9829 -18.9063
   -18.8936 -18.8886 -18.5271 -17.1353 -17.1302 -17.1262 -17.0424 -17.0391
   -16.7550 -16.2741 -16.2734 -16.1811 -16.1263 -16.1259 -15.4606 -14.1609
   -14.1521 -14.0781 -14.0732 -14.0699 -13.4324 -13.1273 -13.1251 -13.0938
   -12.8306 -12.8300 -12.4061 -11.8996 -11.8974 -11.7193 -11.4764 -11.4762
   -10.6009  -9.7516  -9.7493  -9.4926  -9.3742  -9.3740  -9.3016  -9.2657
    -9.2651  -9.2581  -8.8040  -8.8032  -8.2486  -8.2457  -8.1638  -7.9285
    -7.9059  -7.5182  -7.5147  -7.3073  -7.0770  -7.0723  -7.0296  -7.0290
    -6.8530  -6.8505  -6.8308  -6.7877  -6.6373  -6.6316  -6.6117  -6.5987
    -6.5956  -6.5470  -6.5280  -6.2012  -5.6914  -5.6882  -5.4831  -5.4793
    -5.4322  -5.4304  -5.2284  -5.0616  -4.9583  -4.7572  -4.7166  -4.7155
    -4.4688  -4.4641  -4.4176  -4.2080  -4.2071  -3.8371  -3.8357  -3.7867
    -3.7558  -3.7542  -3.1701  -2.6884  -2.6843  -1.8638  -1.8615  -1.8131
    -0.9408  -0.9227  -0.8298  -0.8079   0.9277   0.9300   0.9788   1.5482
     1.5486   1.6327   2.4729   2.4753   2.5449   2.8111   2.8130   2.8448
     3.4435   3.4462   3.5240   3.6793   3.7011   3.7408   3.7462   3.7619

     occupation numbers 
     1.0000   1.0000   1.0000   1.0000   1.0000   1.0000   1.0000   1.0000
     1.0000   1.0000   1.0000   1.0000   1.0000   1.0000   1.0000   1.0000
     1.0000   1.0000   1.0000   1.0000   1.0000   1.0000   1.0000   1.0000
     1.0000   1.0000   1.0000   1.0000   1.0000   1.0000   1.0000   1.0000
     1.0000   1.0000   1.0000   1.0000   1.0000   1.0000   1.0000   1.0000
     1.0000   1.0000   1.0000   1.0000   1.0000   1.0000   1.0000   1.0000
     1.0000   1.0000   1.0000   1.0000   1.0000   1.0000   1.0000   1.0000
     1.0000   1.0000   1.0000   1.0000   1.0000   1.0000   1.0000   1.0000
     1.0000   1.0000   1.0000   1.0000   1.0000   1.0000   1.0000   1.0000
     1.0000   1.0000   1.0000   1.0000   1.0000   1.0000   1.0000   1.0000
     1.0000   1.0000   1.0000   1.0000   1.0000   1.0000   1.0000   1.0000
     1.0000   1.0000   1.0000   1.0000   1.0000   1.0000   1.0000   1.0000
     1.0000   1.0000   1.0000   1.0000   1.0000   1.0000   1.0000   1.0000
     1.0001   1.0255   0.0000   0.0000   0.0000   0.0000   0.0000   0.0000
     0.0000   0.0000   0.0000   0.0000   0.0000   0.0000   0.0000   0.0000
     0.0000   0.0000   0.0000   0.0000   0.0000   0.0000   0.0000   0.0000

     the Fermi energy is    -0.8928 ev

!    total energy              =    -860.05650422 Ry
     Harris-Foulkes estimate   =    -860.05650340 Ry
     estimated scf accuracy    <       0.00000083 Ry

     The total energy is the sum of the following terms:

     one-electron contribution =   -2791.40183284 Ry
     hartree contribution      =    1439.51820619 Ry
     xc contribution           =    -259.31872327 Ry
     ewald contribution        =     751.14572256 Ry
     smearing contrib. (-TS)   =       0.00012314 Ry

     total magnetization       =     1.95 Bohr mag/cell
     absolute magnetization    =     3.12 Bohr mag/cell

     convergence has been achieved in 101 iterations

     Writing output data file gr-12-baricentro.save/

     init_run     :     77.48s CPU     78.82s WALL (       1 calls)
     electrons    :  10354.55s CPU  10552.33s WALL (       1 calls)

     Called by init_run:
     wfcinit      :     44.18s CPU     44.47s WALL (       1 calls)
     wfcinit:atom :      0.05s CPU      0.08s WALL (       2 calls)
     wfcinit:wfcr :     43.76s CPU     43.96s WALL (       2 calls)
     potinit      :     13.62s CPU     14.07s WALL (       1 calls)
     hinit0       :     10.33s CPU     10.36s WALL (       1 calls)

     Called by electrons:
     c_bands      :   6603.28s CPU   6639.66s WALL (     101 calls)
     sum_band     :   2186.75s CPU   2248.13s WALL (     101 calls)
     v_of_rho     :    751.31s CPU    794.11s WALL (     102 calls)
     v_h          :      8.30s CPU      8.54s WALL (     102 calls)
     v_xc         :    743.00s CPU    785.58s WALL (     102 calls)
     newd         :    763.63s CPU    820.44s WALL (     102 calls)
     mix_rho      :     40.54s CPU     41.30s WALL (     101 calls)

     Called by c_bands:
     init_us_2    :     19.09s CPU     19.17s WALL (     406 calls)
     cegterg      :   6549.36s CPU   6585.45s WALL (     202 calls)

     Called by sum_band:
     sum_band:bec :      0.17s CPU      0.17s WALL (     202 calls)
     addusdens    :   1359.20s CPU   1415.55s WALL (     101 calls)

     Called by *egterg:
     h_psi        :   3409.31s CPU   3434.01s WALL (     707 calls)
     s_psi        :   1155.57s CPU   1156.09s WALL (     707 calls)
     g_psi        :      3.57s CPU      3.58s WALL (     503 calls)
     cdiaghg      :     46.65s CPU     46.67s WALL (     705 calls)
     cegterg:over :    784.36s CPU    784.70s WALL (     503 calls)
     cegterg:upda :    485.40s CPU    488.46s WALL (     503 calls)
     cegterg:last :    351.55s CPU    351.63s WALL (     202 calls)

     Called by h_psi:
     h_psi:pot    :   3405.51s CPU   3425.42s WALL (     707 calls)
     h_psi:calbec :   1146.32s CPU   1146.83s WALL (     707 calls)
     vloc_psi     :   1101.90s CPU   1120.95s WALL (     707 calls)
     add_vuspsi   :   1157.27s CPU   1157.63s WALL (     707 calls)

     General routines
     calbec       :   1649.84s CPU   1650.59s WALL (     909 calls)
     fft          :    439.29s CPU    455.82s WALL (    7644 calls)
     ffts         :      7.64s CPU      7.91s WALL (     406 calls)
     fftw         :   1177.13s CPU   1197.87s WALL (  143890 calls)
     interpolate  :     18.26s CPU     18.76s WALL (     204 calls)

     Parallel routines
     fft_scatt_xy :    293.95s CPU    297.51s WALL (  151940 calls)
     fft_scatt_yz :    545.69s CPU    571.78s WALL (  151940 calls)

     PWSCF        :      2h53m CPU      2h57m WALL


   This run was terminated on:  17:19: 4  20Nov2022            

=------------------------------------------------------------------------------=
   JOB DONE.
=------------------------------------------------------------------------------=
