
     Program PWSCF v.6.4.1 starts on 17Nov2022 at  3:16:29 

     This program is part of the open-source Quantum ESPRESSO suite
     for quantum simulation of materials; please cite
         "P. Giannozzi et al., J. Phys.:Condens. Matter 21 395502 (2009);
         "P. Giannozzi et al., J. Phys.:Condens. Matter 29 465901 (2017);
          URL http://www.quantum-espresso.org", 
     in publications or presentations arising from this work. More details at
     http://www.quantum-espresso.org/quote

     Parallel version (MPI), running on     6 processors

     MPI processes distributed on     1 nodes
     R & G space division:  proc/nbgrp/npool/nimage =       6
     Reading input from distance-4.0.in

     Current dimensions of program PWSCF are:
     Max number of different atomic species (ntypx) = 10
     Max number of k-points (npk) =  40000
     Max angular momentum in pseudopotentials (lmaxx) =  3

     IMPORTANT: XC functional enforced from input :
     Exchange-correlation      = RVV10 ( 1  4 13  4 3 0)
     Any further DFT definition will be discarded
     Please, verify this is what you really want

               file H.pbe-rrkjus.UPF: wavefunction(s)  1S renormalized

     Subspace diagonalization in iterative solution of the eigenvalue problem:
     a serial algorithm will be used


     Parallelization info
     --------------------
     sticks:   dense  smooth     PW     G-vecs:    dense   smooth      PW
     Min        3051    1746    432               270999   117096   14629
     Max        3053    1747    437               271001   117099   14630
     Sum       18313   10477   2611              1626001   702581   87777



     bravais-lattice index     =            4
     lattice parameter (alat)  =      23.2937  a.u.
     unit-cell volume          =    8879.8548 (a.u.)^3
     number of atoms/cell      =           52
     number of atomic types    =            3
     number of electrons       =       214.00
     number of Kohn-Sham states=          128
     kinetic-energy cutoff     =      70.0000  Ry
     charge density cutoff     =     490.0000  Ry
     convergence threshold     =      1.0E-06
     mixing beta               =       0.3000
     number of iterations used =            4  plain     mixing
     Exchange-correlation      = RVV10 ( 1  4 13  4 3 0)

     celldm(1)=  23.293684  celldm(2)=   0.000000  celldm(3)=   0.811261
     celldm(4)=   0.000000  celldm(5)=   0.000000  celldm(6)=   0.000000

     crystal axes: (cart. coord. in units of alat)
               a(1) = (   1.000000   0.000000   0.000000 )  
               a(2) = (  -0.500000   0.866025   0.000000 )  
               a(3) = (   0.000000   0.000000   0.811261 )  

     reciprocal axes: (cart. coord. in units 2 pi/alat)
               b(1) = (  1.000000  0.577350 -0.000000 )  
               b(2) = (  0.000000  1.154701  0.000000 )  
               b(3) = (  0.000000 -0.000000  1.232649 )  


     PseudoPot. # 1 for H  read from file:
     /home/cristian/Escritorio/Proyecto_Grafeno/pseudopotenciales/H.pbe-rrkjus.UPF
     MD5 check sum: 7cc9d459525c9a0585f487a71c3c9563
     Pseudo is Ultrasoft, Zval =  1.0
     Generated by new atomic code, or converted to UPF format
     Using radial grid of 1061 points,  2 beta functions with: 
                l(1) =   0
                l(2) =   0
     Q(r) pseudized with 0 coefficients 


     PseudoPot. # 2 for C  read from file:
     /home/cristian/Escritorio/Proyecto_Grafeno/pseudopotenciales/C.pbe-n-rrkjus_psl.1.0.0.UPF
     MD5 check sum: 1fdd950c42eb37d8afe3dd2f8d12311e
     Pseudo is Ultrasoft + core correction, Zval =  4.0
     Generated using "atomic" code by A. Dal Corso v.6.3MaX
     Using radial grid of 1073 points,  4 beta functions with: 
                l(1) =   0
                l(2) =   0
                l(3) =   1
                l(4) =   1
     Q(r) pseudized with 0 coefficients 


     PseudoPot. # 3 for Fe read from file:
     /home/cristian/Escritorio/Proyecto_Grafeno/pseudopotenciales/Fe.pbe-spn-rrkjus_psl.1.0.0.UPF
     MD5 check sum: 72ea77fed8e64ab3a2ccf2804dfc1862
     Pseudo is Ultrasoft + core correction, Zval = 16.0
     Generated using "atomic" code by A. Dal Corso v.6.3
     Using radial grid of 1191 points,  6 beta functions with: 
                l(1) =   0
                l(2) =   0
                l(3) =   1
                l(4) =   1
                l(5) =   2
                l(6) =   2
     Q(r) pseudized with 0 coefficients 


     vdW kernel table read from file rVV10_kernel_table
     MD5 check sum: b8e2538accc0c0b3206b45ba4daaba6c

     atomic species   valence    mass     pseudopotential
        H              1.00     1.00794     H ( 1.00)
        C              4.00    12.01070     C ( 1.00)
        Fe            16.00    55.84500     Fe( 1.00)

     Starting magnetic structure 
     atomic species   magnetization
        H            0.500
        C            0.300
        Fe           0.800

     No symmetry found


                                    s                        frac. trans.

      isym =  1     identity                                     

 cryst.   s( 1) = (     1          0          0      )
                  (     0          1          0      )
                  (     0          0          1      )

 cart.    s( 1) = (  1.0000000  0.0000000  0.0000000 )
                  (  0.0000000  1.0000000  0.0000000 )
                  (  0.0000000  0.0000000  1.0000000 )


     point group C_1 (1)    
     there are  1 classes
     the character table:

       E    
A      1.00

     the symmetry operations in each class and the name of the first element:

     E        1
          identity                                               

   Cartesian axes

     site n.     atom                  positions (alat units)
         1           H   tau(   1) = (   0.2666667   0.4618802   0.3245045  )
         2           H   tau(   2) = (   0.2666667   0.4618802   0.3855171  )
         3           C   tau(   3) = (   0.0000000   0.0000000   0.0000000  )
         4           C   tau(   4) = (   0.0000000   0.1154701   0.0000000  )
         5           C   tau(   5) = (  -0.1000000   0.1732051   0.0000000  )
         6           C   tau(   6) = (  -0.1000000   0.2886751   0.0000000  )
         7           C   tau(   7) = (  -0.2000000   0.3464102   0.0000000  )
         8           C   tau(   8) = (  -0.2000000   0.4618802   0.0000000  )
         9           C   tau(   9) = (  -0.3000000   0.5196152   0.0000000  )
        10           C   tau(  10) = (  -0.3000000   0.6350853   0.0000000  )
        11           C   tau(  11) = (  -0.4000000   0.6928203   0.0000000  )
        12           C   tau(  12) = (  -0.4000000   0.8082904   0.0000000  )
        13           C   tau(  13) = (   0.2000000   0.0000000   0.0000000  )
        14           C   tau(  14) = (   0.2000000   0.1154701   0.0000000  )
        15           C   tau(  15) = (   0.1000000   0.1732051   0.0000000  )
        16           C   tau(  16) = (   0.1000000   0.2886751   0.0000000  )
        17           C   tau(  17) = (   0.0000000   0.3464102   0.0000000  )
        18           C   tau(  18) = (   0.0000000   0.4618802   0.0000000  )
        19           C   tau(  19) = (  -0.1000000   0.5196152   0.0000000  )
        20           C   tau(  20) = (  -0.1000000   0.6350853   0.0000000  )
        21           C   tau(  21) = (  -0.2000000   0.6928203   0.0000000  )
        22           C   tau(  22) = (  -0.2000000   0.8082904   0.0000000  )
        23           C   tau(  23) = (   0.4000000   0.0000000   0.0000000  )
        24           C   tau(  24) = (   0.4000000   0.1154701   0.0000000  )
        25           C   tau(  25) = (   0.3000000   0.1732051   0.0000000  )
        26           C   tau(  26) = (   0.3000000   0.2886751   0.0000000  )
        27           C   tau(  27) = (   0.2000000   0.3464102   0.0000000  )
        28           Fe  tau(  28) = (   0.2000000   0.4618802   0.0000000  )
        29           C   tau(  29) = (   0.1000000   0.5196152   0.0000000  )
        30           C   tau(  30) = (   0.1000000   0.6350853   0.0000000  )
        31           C   tau(  31) = (   0.0000000   0.6928203   0.0000000  )
        32           C   tau(  32) = (   0.0000000   0.8082904   0.0000000  )
        33           C   tau(  33) = (   0.6000000   0.0000000   0.0000000  )
        34           C   tau(  34) = (   0.6000000   0.1154701   0.0000000  )
        35           C   tau(  35) = (   0.5000000   0.1732051   0.0000000  )
        36           C   tau(  36) = (   0.5000000   0.2886751   0.0000000  )
        37           C   tau(  37) = (   0.4000000   0.3464102   0.0000000  )
        38           C   tau(  38) = (   0.4000000   0.4618802   0.0000000  )
        39           C   tau(  39) = (   0.3000000   0.5196152   0.0000000  )
        40           C   tau(  40) = (   0.3000000   0.6350853   0.0000000  )
        41           C   tau(  41) = (   0.2000000   0.6928203   0.0000000  )
        42           C   tau(  42) = (   0.2000000   0.8082904   0.0000000  )
        43           C   tau(  43) = (   0.8000000   0.0000000   0.0000000  )
        44           C   tau(  44) = (   0.8000000   0.1154701   0.0000000  )
        45           C   tau(  45) = (   0.7000000   0.1732051   0.0000000  )
        46           C   tau(  46) = (   0.7000000   0.2886751   0.0000000  )
        47           C   tau(  47) = (   0.6000000   0.3464102   0.0000000  )
        48           C   tau(  48) = (   0.6000000   0.4618802   0.0000000  )
        49           C   tau(  49) = (   0.5000000   0.5196152   0.0000000  )
        50           C   tau(  50) = (   0.5000000   0.6350853   0.0000000  )
        51           C   tau(  51) = (   0.4000000   0.6928203   0.0000000  )
        52           C   tau(  52) = (   0.4000000   0.8082904   0.0000000  )

   Crystallographic axes

     site n.     atom                  positions (cryst. coord.)
         1           H   tau(   1) = (  0.5333333  0.5333333  0.4000000  )
         2           H   tau(   2) = (  0.5333333  0.5333333  0.4752072  )
         3           C   tau(   3) = (  0.0000000  0.0000000  0.0000000  )
         4           C   tau(   4) = (  0.0666667  0.1333333  0.0000000  )
         5           C   tau(   5) = (  0.0000000  0.2000000  0.0000000  )
         6           C   tau(   6) = (  0.0666667  0.3333333  0.0000000  )
         7           C   tau(   7) = (  0.0000000  0.4000000  0.0000000  )
         8           C   tau(   8) = (  0.0666667  0.5333333  0.0000000  )
         9           C   tau(   9) = (  0.0000000  0.6000000  0.0000000  )
        10           C   tau(  10) = (  0.0666667  0.7333333  0.0000000  )
        11           C   tau(  11) = (  0.0000000  0.8000000  0.0000000  )
        12           C   tau(  12) = (  0.0666667  0.9333333  0.0000000  )
        13           C   tau(  13) = (  0.2000000  0.0000000  0.0000000  )
        14           C   tau(  14) = (  0.2666667  0.1333333  0.0000000  )
        15           C   tau(  15) = (  0.2000000  0.2000000  0.0000000  )
        16           C   tau(  16) = (  0.2666667  0.3333333  0.0000000  )
        17           C   tau(  17) = (  0.2000000  0.4000000  0.0000000  )
        18           C   tau(  18) = (  0.2666667  0.5333333  0.0000000  )
        19           C   tau(  19) = (  0.2000000  0.6000000  0.0000000  )
        20           C   tau(  20) = (  0.2666667  0.7333333  0.0000000  )
        21           C   tau(  21) = (  0.2000000  0.8000000  0.0000000  )
        22           C   tau(  22) = (  0.2666667  0.9333333  0.0000000  )
        23           C   tau(  23) = (  0.4000000  0.0000000  0.0000000  )
        24           C   tau(  24) = (  0.4666667  0.1333333  0.0000000  )
        25           C   tau(  25) = (  0.4000000  0.2000000  0.0000000  )
        26           C   tau(  26) = (  0.4666667  0.3333333  0.0000000  )
        27           C   tau(  27) = (  0.4000000  0.4000000  0.0000000  )
        28           Fe  tau(  28) = (  0.4666667  0.5333333  0.0000000  )
        29           C   tau(  29) = (  0.4000000  0.6000000  0.0000000  )
        30           C   tau(  30) = (  0.4666667  0.7333333  0.0000000  )
        31           C   tau(  31) = (  0.4000000  0.8000000  0.0000000  )
        32           C   tau(  32) = (  0.4666667  0.9333333  0.0000000  )
        33           C   tau(  33) = (  0.6000000  0.0000000  0.0000000  )
        34           C   tau(  34) = (  0.6666667  0.1333333  0.0000000  )
        35           C   tau(  35) = (  0.6000000  0.2000000  0.0000000  )
        36           C   tau(  36) = (  0.6666667  0.3333333  0.0000000  )
        37           C   tau(  37) = (  0.6000000  0.4000000  0.0000000  )
        38           C   tau(  38) = (  0.6666667  0.5333333  0.0000000  )
        39           C   tau(  39) = (  0.6000000  0.6000000  0.0000000  )
        40           C   tau(  40) = (  0.6666667  0.7333333  0.0000000  )
        41           C   tau(  41) = (  0.6000000  0.8000000  0.0000000  )
        42           C   tau(  42) = (  0.6666667  0.9333333  0.0000000  )
        43           C   tau(  43) = (  0.8000000  0.0000000  0.0000000  )
        44           C   tau(  44) = (  0.8666667  0.1333333  0.0000000  )
        45           C   tau(  45) = (  0.8000000  0.2000000  0.0000000  )
        46           C   tau(  46) = (  0.8666667  0.3333333  0.0000000  )
        47           C   tau(  47) = (  0.8000000  0.4000000  0.0000000  )
        48           C   tau(  48) = (  0.8666667  0.5333333  0.0000000  )
        49           C   tau(  49) = (  0.8000000  0.6000000  0.0000000  )
        50           C   tau(  50) = (  0.8666667  0.7333333  0.0000000  )
        51           C   tau(  51) = (  0.8000000  0.8000000  0.0000000  )
        52           C   tau(  52) = (  0.8666667  0.9333333  0.0000000  )

     number of k points=     1  Marzari-Vanderbilt smearing, width (Ry)=  0.0010
                       cart. coord. in units 2pi/alat
        k(    1) = (   0.0000000   0.0000000   0.0000000), wk =   1.0000000

                       cryst. coord.
        k(    1) = (   0.0000000   0.0000000   0.0000000), wk =   1.0000000

     Dense  grid:  1626001 G-vectors     FFT dimensions: ( 180, 180, 135)

     Smooth grid:   702581 G-vectors     FFT dimensions: ( 125, 125, 108)

     Dynamical RAM for                 wfc:      28.59 MB

     Dynamical RAM for     wfc (w. buffer):      85.76 MB

     Dynamical RAM for           str. fact:      12.41 MB

     Dynamical RAM for           local pot:       0.00 MB

     Dynamical RAM for          nlocal pot:      92.46 MB

     Dynamical RAM for                qrad:      19.73 MB

     Dynamical RAM for          rho,v,vnew:      58.92 MB

     Dynamical RAM for               rhoin:      19.64 MB

     Dynamical RAM for            rho*nmix:      66.16 MB

     Dynamical RAM for           G-vectors:      16.40 MB

     Dynamical RAM for          h,s,v(r/c):      12.00 MB

     Dynamical RAM for          <psi|beta>:       0.81 MB

     Dynamical RAM for                 psi:     114.35 MB

     Dynamical RAM for                hpsi:     114.35 MB

     Dynamical RAM for                spsi:     114.35 MB

     Dynamical RAM for      wfcinit/wfcrot:      93.90 MB

     Dynamical RAM for           addusdens:     975.89 MB

     Estimated static dynamical RAM per process >     422.14 MB

     Estimated max dynamical RAM per process >       1.37 GB

     Estimated total dynamical RAM >       8.19 GB
     Generating pointlists ...
     new r_m :   0.0252 (alat units)  0.5862 (a.u.) for type    1
     new r_m :   0.0476 (alat units)  1.1095 (a.u.) for type    2
     new r_m :   0.0476 (alat units)  1.1095 (a.u.) for type    3

     Check: negative core charge=   -0.000002

     Initial potential from superposition of free atoms

     starting charge  213.80512, renormalised to  214.00000

     negative rho (up, down):  6.356E-05 9.299E-03


---------------------------------------------------------------------------------
Carrying out rVV10 run using the following parameters:
Nqs =      20    Nr_points =    1024   r_max =   100.000
b_value =  6.30000    beta =  0.00901
     q_mesh =  0.00010000  0.00030000  0.00058939  0.00100810
               0.00161396  0.00249058  0.00375900  0.00559430
               0.00824984  0.01209221  0.01765183  0.02569619
               0.03733578  0.05417739  0.07854596  0.11380545
               0.16482331  0.23864234  0.34545298  0.50000000

Gradients computed in Reciprocal space

---------------------------------------------------------------------------------


     Starting wfcs are  208 randomized atomic wfcs

     total cpu time spent up to now is       75.8 secs

     Self-consistent Calculation

     iteration #  1     ecut=    70.00 Ry     beta= 0.30
     Davidson diagonalization with overlap
     ethr =  1.00E-02,  avg # of iterations =  2.5

     negative rho (up, down):  7.486E-05 9.376E-03

     total cpu time spent up to now is      201.0 secs

     total energy              =    -858.10948949 Ry
     Harris-Foulkes estimate   =    -858.63154672 Ry
     estimated scf accuracy    <      10.05884643 Ry

     total magnetization       =     6.00 Bohr mag/cell
     absolute magnetization    =     6.66 Bohr mag/cell

     iteration #  2     ecut=    70.00 Ry     beta= 0.30
     Davidson diagonalization with overlap
     ethr =  4.70E-03,  avg # of iterations =  2.0

     negative rho (up, down):  1.017E-04 1.085E-02

     total cpu time spent up to now is      291.3 secs

     total energy              =    -858.50194335 Ry
     Harris-Foulkes estimate   =    -858.65015185 Ry
     estimated scf accuracy    <       4.89501825 Ry

     total magnetization       =     4.00 Bohr mag/cell
     absolute magnetization    =     5.62 Bohr mag/cell

     iteration #  3     ecut=    70.00 Ry     beta= 0.30
     Davidson diagonalization with overlap
     ethr =  2.29E-03,  avg # of iterations =  3.5

     negative rho (up, down):  1.824E-04 2.273E-02

     total cpu time spent up to now is      386.4 secs

     total energy              =    -858.72016828 Ry
     Harris-Foulkes estimate   =    -859.79503018 Ry
     estimated scf accuracy    <      10.88470375 Ry

     total magnetization       =     6.00 Bohr mag/cell
     absolute magnetization    =     6.17 Bohr mag/cell

     iteration #  4     ecut=    70.00 Ry     beta= 0.30
     Davidson diagonalization with overlap
     ethr =  2.29E-03,  avg # of iterations =  3.0

     negative rho (up, down):  2.300E-04 3.047E-02

     total cpu time spent up to now is      478.4 secs

     total energy              =    -859.84451911 Ry
     Harris-Foulkes estimate   =    -859.59423276 Ry
     estimated scf accuracy    <       0.73858747 Ry

     total magnetization       =     2.00 Bohr mag/cell
     absolute magnetization    =     3.45 Bohr mag/cell

     iteration #  5     ecut=    70.00 Ry     beta= 0.30
     Davidson diagonalization with overlap
     ethr =  3.45E-04,  avg # of iterations = 10.0

     negative rho (up, down):  2.720E-04 3.531E-02

     total cpu time spent up to now is      581.1 secs

     total energy              =    -859.96981716 Ry
     Harris-Foulkes estimate   =    -859.95130483 Ry
     estimated scf accuracy    <       0.57706293 Ry

     total magnetization       =     2.00 Bohr mag/cell
     absolute magnetization    =     3.01 Bohr mag/cell

     iteration #  6     ecut=    70.00 Ry     beta= 0.30
     Davidson diagonalization with overlap
     ethr =  2.70E-04,  avg # of iterations =  4.5

     negative rho (up, down):  5.123E-04 6.353E-02

     total cpu time spent up to now is      673.3 secs

     total energy              =    -860.02146564 Ry
     Harris-Foulkes estimate   =    -860.00142470 Ry
     estimated scf accuracy    <       0.14763410 Ry

     total magnetization       =     2.00 Bohr mag/cell
     absolute magnetization    =     2.89 Bohr mag/cell

     iteration #  7     ecut=    70.00 Ry     beta= 0.30
     Davidson diagonalization with overlap
     ethr =  6.90E-05,  avg # of iterations =  7.5

     negative rho (up, down):  3.024E-03 9.821E-02

     total cpu time spent up to now is      769.8 secs

     total energy              =    -860.04319754 Ry
     Harris-Foulkes estimate   =    -860.04782000 Ry
     estimated scf accuracy    <       0.13366935 Ry

     total magnetization       =     2.00 Bohr mag/cell
     absolute magnetization    =     2.75 Bohr mag/cell

     iteration #  8     ecut=    70.00 Ry     beta= 0.30
     Davidson diagonalization with overlap
     ethr =  6.25E-05,  avg # of iterations =  2.0

     negative rho (up, down):  2.350E-03 8.659E-02

     total cpu time spent up to now is      860.9 secs

     total energy              =    -860.04637076 Ry
     Harris-Foulkes estimate   =    -860.04729555 Ry
     estimated scf accuracy    <       0.05243493 Ry

     total magnetization       =     1.98 Bohr mag/cell
     absolute magnetization    =     2.74 Bohr mag/cell

     iteration #  9     ecut=    70.00 Ry     beta= 0.30
     Davidson diagonalization with overlap
     ethr =  2.45E-05,  avg # of iterations =  2.5

     negative rho (up, down):  2.176E-03 7.787E-02

     total cpu time spent up to now is      952.8 secs

     total energy              =    -860.04437118 Ry
     Harris-Foulkes estimate   =    -860.04997056 Ry
     estimated scf accuracy    <       0.10826137 Ry

     total magnetization       =     2.01 Bohr mag/cell
     absolute magnetization    =     2.74 Bohr mag/cell

     iteration # 10     ecut=    70.00 Ry     beta= 0.30
     Davidson diagonalization with overlap
     ethr =  2.45E-05,  avg # of iterations =  1.0

     negative rho (up, down):  2.168E-03 7.558E-02

     total cpu time spent up to now is     1043.0 secs

     total energy              =    -860.05011959 Ry
     Harris-Foulkes estimate   =    -860.05145975 Ry
     estimated scf accuracy    <       0.06293639 Ry

     total magnetization       =     1.11 Bohr mag/cell
     absolute magnetization    =     2.58 Bohr mag/cell

     iteration # 11     ecut=    70.00 Ry     beta= 0.30
     Davidson diagonalization with overlap
     ethr =  2.45E-05,  avg # of iterations =  1.0

     negative rho (up, down):  1.239E-03 5.966E-02

     total cpu time spent up to now is     1133.2 secs

     total energy              =    -860.05263437 Ry
     Harris-Foulkes estimate   =    -860.05126666 Ry
     estimated scf accuracy    <       0.03167056 Ry

     total magnetization       =     2.00 Bohr mag/cell
     absolute magnetization    =     2.74 Bohr mag/cell

     iteration # 12     ecut=    70.00 Ry     beta= 0.30
     Davidson diagonalization with overlap
     ethr =  1.48E-05,  avg # of iterations =  1.0

     negative rho (up, down):  9.630E-04 5.047E-02

     total cpu time spent up to now is     1223.6 secs

     total energy              =    -860.05331710 Ry
     Harris-Foulkes estimate   =    -860.05303881 Ry
     estimated scf accuracy    <       0.02102030 Ry

     total magnetization       =     2.00 Bohr mag/cell
     absolute magnetization    =     2.78 Bohr mag/cell

     iteration # 13     ecut=    70.00 Ry     beta= 0.30
     Davidson diagonalization with overlap
     ethr =  9.82E-06,  avg # of iterations =  6.5

     negative rho (up, down):  8.233E-04 4.777E-02

     total cpu time spent up to now is     1316.6 secs

     total energy              =    -860.05374047 Ry
     Harris-Foulkes estimate   =    -860.05350399 Ry
     estimated scf accuracy    <       0.01611376 Ry

     total magnetization       =     1.97 Bohr mag/cell
     absolute magnetization    =     2.81 Bohr mag/cell

     iteration # 14     ecut=    70.00 Ry     beta= 0.30
     Davidson diagonalization with overlap
     ethr =  7.53E-06,  avg # of iterations =  1.0

     negative rho (up, down):  5.140E-04 4.218E-02

     total cpu time spent up to now is     1406.8 secs

     total energy              =    -860.05186745 Ry
     Harris-Foulkes estimate   =    -860.05383912 Ry
     estimated scf accuracy    <       0.01790964 Ry

     total magnetization       =     1.83 Bohr mag/cell
     absolute magnetization    =     2.87 Bohr mag/cell

     iteration # 15     ecut=    70.00 Ry     beta= 0.30
     Davidson diagonalization with overlap
     ethr =  7.53E-06,  avg # of iterations =  8.0

     negative rho (up, down):  5.833E-04 2.489E-02

     total cpu time spent up to now is     1507.3 secs

     total energy              =    -860.05306057 Ry
     Harris-Foulkes estimate   =    -860.05369673 Ry
     estimated scf accuracy    <       0.00752126 Ry

     total magnetization       =     2.00 Bohr mag/cell
     absolute magnetization    =     2.83 Bohr mag/cell

     iteration # 16     ecut=    70.00 Ry     beta= 0.30
     Davidson diagonalization with overlap
     ethr =  3.51E-06,  avg # of iterations =  3.0

     negative rho (up, down):  4.854E-04 1.873E-02

     total cpu time spent up to now is     1603.6 secs

     total energy              =    -860.05449855 Ry
     Harris-Foulkes estimate   =    -860.05423182 Ry
     estimated scf accuracy    <       0.00217575 Ry

     total magnetization       =     2.13 Bohr mag/cell
     absolute magnetization    =     3.00 Bohr mag/cell

     iteration # 17     ecut=    70.00 Ry     beta= 0.30
     Davidson diagonalization with overlap
     ethr =  1.02E-06,  avg # of iterations =  7.5

     negative rho (up, down):  5.137E-04 3.684E-02

     total cpu time spent up to now is     1700.5 secs

     total energy              =    -860.05446629 Ry
     Harris-Foulkes estimate   =    -860.05460460 Ry
     estimated scf accuracy    <       0.00268670 Ry

     total magnetization       =     2.13 Bohr mag/cell
     absolute magnetization    =     3.04 Bohr mag/cell

     iteration # 18     ecut=    70.00 Ry     beta= 0.30
     Davidson diagonalization with overlap
     ethr =  1.02E-06,  avg # of iterations =  1.0

     negative rho (up, down):  6.319E-04 8.145E-02

     total cpu time spent up to now is     1790.9 secs

     total energy              =    -860.05294129 Ry
     Harris-Foulkes estimate   =    -860.05450110 Ry
     estimated scf accuracy    <       0.00172580 Ry

     total magnetization       =     2.07 Bohr mag/cell
     absolute magnetization    =     3.02 Bohr mag/cell

     iteration # 19     ecut=    70.00 Ry     beta= 0.30
     Davidson diagonalization with overlap
     ethr =  8.06E-07,  avg # of iterations =  3.0

     negative rho (up, down):  5.204E-04 6.140E-02

     total cpu time spent up to now is     1897.2 secs

     total energy              =    -860.05370180 Ry
     Harris-Foulkes estimate   =    -860.05363740 Ry
     estimated scf accuracy    <       0.00215882 Ry

     total magnetization       =     2.00 Bohr mag/cell
     absolute magnetization    =     2.96 Bohr mag/cell

     iteration # 20     ecut=    70.00 Ry     beta= 0.30
     Davidson diagonalization with overlap
     ethr =  8.06E-07,  avg # of iterations =  2.5

     negative rho (up, down):  4.543E-04 3.648E-02

     total cpu time spent up to now is     1989.8 secs

     total energy              =    -860.05400079 Ry
     Harris-Foulkes estimate   =    -860.05387020 Ry
     estimated scf accuracy    <       0.00160935 Ry

     total magnetization       =     2.04 Bohr mag/cell
     absolute magnetization    =     2.93 Bohr mag/cell

     iteration # 21     ecut=    70.00 Ry     beta= 0.30
     Davidson diagonalization with overlap
     ethr =  7.52E-07,  avg # of iterations =  2.5

     negative rho (up, down):  5.297E-04 2.814E-02

     total cpu time spent up to now is     2089.9 secs

     total energy              =    -860.05447734 Ry
     Harris-Foulkes estimate   =    -860.05425990 Ry
     estimated scf accuracy    <       0.00092178 Ry

     total magnetization       =     2.02 Bohr mag/cell
     absolute magnetization    =     3.00 Bohr mag/cell

     iteration # 22     ecut=    70.00 Ry     beta= 0.30
     Davidson diagonalization with overlap
     ethr =  4.31E-07,  avg # of iterations =  2.5

     negative rho (up, down):  5.295E-04 4.006E-02

     total cpu time spent up to now is     2190.7 secs

     total energy              =    -860.05458985 Ry
     Harris-Foulkes estimate   =    -860.05463803 Ry
     estimated scf accuracy    <       0.00095700 Ry

     total magnetization       =     2.08 Bohr mag/cell
     absolute magnetization    =     3.02 Bohr mag/cell

     iteration # 23     ecut=    70.00 Ry     beta= 0.30
     Davidson diagonalization with overlap
     ethr =  4.31E-07,  avg # of iterations =  1.0

     negative rho (up, down):  5.124E-04 5.431E-02

     total cpu time spent up to now is     2281.0 secs

     total energy              =    -860.05429074 Ry
     Harris-Foulkes estimate   =    -860.05459134 Ry
     estimated scf accuracy    <       0.00091078 Ry

     total magnetization       =     2.09 Bohr mag/cell
     absolute magnetization    =     3.03 Bohr mag/cell

     iteration # 24     ecut=    70.00 Ry     beta= 0.30
     Davidson diagonalization with overlap
     ethr =  4.26E-07,  avg # of iterations =  2.0

     negative rho (up, down):  4.928E-04 5.819E-02

     total cpu time spent up to now is     2374.6 secs

     total energy              =    -860.05414590 Ry
     Harris-Foulkes estimate   =    -860.05429018 Ry
     estimated scf accuracy    <       0.00063890 Ry

     total magnetization       =     1.99 Bohr mag/cell
     absolute magnetization    =     3.08 Bohr mag/cell

     iteration # 25     ecut=    70.00 Ry     beta= 0.30
     Davidson diagonalization with overlap
     ethr =  2.99E-07,  avg # of iterations =  2.0

     negative rho (up, down):  4.960E-04 5.293E-02

     total cpu time spent up to now is     2468.3 secs

     total energy              =    -860.05430311 Ry
     Harris-Foulkes estimate   =    -860.05421910 Ry
     estimated scf accuracy    <       0.00471187 Ry

     total magnetization       =     1.78 Bohr mag/cell
     absolute magnetization    =     3.07 Bohr mag/cell

     iteration # 26     ecut=    70.00 Ry     beta= 0.30
     Davidson diagonalization with overlap
     ethr =  2.99E-07,  avg # of iterations =  1.5

     negative rho (up, down):  5.324E-04 6.291E-02

     total cpu time spent up to now is     2558.8 secs

     total energy              =    -860.05407976 Ry
     Harris-Foulkes estimate   =    -860.05431398 Ry
     estimated scf accuracy    <       0.00750107 Ry

     total magnetization       =     1.74 Bohr mag/cell
     absolute magnetization    =     3.07 Bohr mag/cell

     iteration # 27     ecut=    70.00 Ry     beta= 0.30
     Davidson diagonalization with overlap
     ethr =  2.99E-07,  avg # of iterations =  2.0

     negative rho (up, down):  5.889E-04 6.824E-02

     total cpu time spent up to now is     2658.1 secs

     total energy              =    -860.05405353 Ry
     Harris-Foulkes estimate   =    -860.05417443 Ry
     estimated scf accuracy    <       0.00800032 Ry

     total magnetization       =     1.76 Bohr mag/cell
     absolute magnetization    =     3.06 Bohr mag/cell

     iteration # 28     ecut=    70.00 Ry     beta= 0.30
     Davidson diagonalization with overlap
     ethr =  2.99E-07,  avg # of iterations =  2.0

     negative rho (up, down):  6.027E-04 6.093E-02

     total cpu time spent up to now is     2758.1 secs

     total energy              =    -860.05406290 Ry
     Harris-Foulkes estimate   =    -860.05417067 Ry
     estimated scf accuracy    <       0.00784731 Ry

     total magnetization       =     1.72 Bohr mag/cell
     absolute magnetization    =     3.07 Bohr mag/cell

     iteration # 29     ecut=    70.00 Ry     beta= 0.30
     Davidson diagonalization with overlap
     ethr =  2.99E-07,  avg # of iterations =  1.0

     negative rho (up, down):  5.763E-04 4.828E-02

     total cpu time spent up to now is     2848.4 secs

     total energy              =    -860.05423958 Ry
     Harris-Foulkes estimate   =    -860.05409139 Ry
     estimated scf accuracy    <       0.00104085 Ry

     total magnetization       =     1.91 Bohr mag/cell
     absolute magnetization    =     3.07 Bohr mag/cell

     iteration # 30     ecut=    70.00 Ry     beta= 0.30
     Davidson diagonalization with overlap
     ethr =  2.99E-07,  avg # of iterations =  2.0

     negative rho (up, down):  5.550E-04 4.047E-02

     total cpu time spent up to now is     2940.1 secs

     total energy              =    -860.05435673 Ry
     Harris-Foulkes estimate   =    -860.05426537 Ry
     estimated scf accuracy    <       0.00030905 Ry

     total magnetization       =     2.03 Bohr mag/cell
     absolute magnetization    =     3.09 Bohr mag/cell

     iteration # 31     ecut=    70.00 Ry     beta= 0.30
     Davidson diagonalization with overlap
     ethr =  1.44E-07,  avg # of iterations =  2.0

     negative rho (up, down):  5.450E-04 4.219E-02

     total cpu time spent up to now is     3031.3 secs

     total energy              =    -860.05425472 Ry
     Harris-Foulkes estimate   =    -860.05436345 Ry
     estimated scf accuracy    <       0.00037797 Ry

     total magnetization       =     2.05 Bohr mag/cell
     absolute magnetization    =     3.11 Bohr mag/cell

     iteration # 32     ecut=    70.00 Ry     beta= 0.30
     Davidson diagonalization with overlap
     ethr =  1.44E-07,  avg # of iterations =  2.0

     negative rho (up, down):  5.440E-04 4.306E-02

     total cpu time spent up to now is     3126.7 secs

     total energy              =    -860.05426848 Ry
     Harris-Foulkes estimate   =    -860.05428263 Ry
     estimated scf accuracy    <       0.00037252 Ry

     total magnetization       =     1.99 Bohr mag/cell
     absolute magnetization    =     3.09 Bohr mag/cell

     iteration # 33     ecut=    70.00 Ry     beta= 0.30
     Davidson diagonalization with overlap
     ethr =  1.44E-07,  avg # of iterations =  2.0

     negative rho (up, down):  5.403E-04 3.405E-02

     total cpu time spent up to now is     3222.4 secs

     total energy              =    -860.05441448 Ry
     Harris-Foulkes estimate   =    -860.05429855 Ry
     estimated scf accuracy    <       0.00031252 Ry

     total magnetization       =     2.02 Bohr mag/cell
     absolute magnetization    =     3.09 Bohr mag/cell

     iteration # 34     ecut=    70.00 Ry     beta= 0.30
     Davidson diagonalization with overlap
     ethr =  1.44E-07,  avg # of iterations =  2.0

     negative rho (up, down):  5.366E-04 3.691E-02

     total cpu time spent up to now is     3316.9 secs

     total energy              =    -860.05441794 Ry
     Harris-Foulkes estimate   =    -860.05444057 Ry
     estimated scf accuracy    <       0.00083180 Ry

     total magnetization       =     2.11 Bohr mag/cell
     absolute magnetization    =     3.11 Bohr mag/cell

     iteration # 35     ecut=    70.00 Ry     beta= 0.30
     Davidson diagonalization with overlap
     ethr =  1.44E-07,  avg # of iterations =  1.0

     negative rho (up, down):  5.392E-04 3.578E-02

     total cpu time spent up to now is     3407.1 secs

     total energy              =    -860.05450697 Ry
     Harris-Foulkes estimate   =    -860.05441918 Ry
     estimated scf accuracy    <       0.00078418 Ry

     total magnetization       =     2.10 Bohr mag/cell
     absolute magnetization    =     3.11 Bohr mag/cell

     iteration # 36     ecut=    70.00 Ry     beta= 0.30
     Davidson diagonalization with overlap
     ethr =  1.44E-07,  avg # of iterations =  2.0

     negative rho (up, down):  5.401E-04 3.574E-02

     total cpu time spent up to now is     3499.3 secs

     total energy              =    -860.05460152 Ry
     Harris-Foulkes estimate   =    -860.05451907 Ry
     estimated scf accuracy    <       0.00081335 Ry

     total magnetization       =     2.13 Bohr mag/cell
     absolute magnetization    =     3.12 Bohr mag/cell

     iteration # 37     ecut=    70.00 Ry     beta= 0.30
     Davidson diagonalization with overlap
     ethr =  1.44E-07,  avg # of iterations =  2.0

     negative rho (up, down):  5.466E-04 4.557E-02

     total cpu time spent up to now is     3593.3 secs

     total energy              =    -860.05449839 Ry
     Harris-Foulkes estimate   =    -860.05462230 Ry
     estimated scf accuracy    <       0.00140883 Ry

     total magnetization       =     2.17 Bohr mag/cell
     absolute magnetization    =     3.14 Bohr mag/cell

     iteration # 38     ecut=    70.00 Ry     beta= 0.30
     Davidson diagonalization with overlap
     ethr =  1.44E-07,  avg # of iterations =  2.0

     negative rho (up, down):  5.590E-04 5.825E-02

     total cpu time spent up to now is     3689.1 secs

     total energy              =    -860.05425295 Ry
     Harris-Foulkes estimate   =    -860.05452549 Ry
     estimated scf accuracy    <       0.00115186 Ry

     total magnetization       =     2.15 Bohr mag/cell
     absolute magnetization    =     3.14 Bohr mag/cell

     iteration # 39     ecut=    70.00 Ry     beta= 0.30
     Davidson diagonalization with overlap
     ethr =  1.44E-07,  avg # of iterations =  2.0

     negative rho (up, down):  5.403E-04 4.487E-02

     total cpu time spent up to now is     3793.8 secs

     total energy              =    -860.05446277 Ry
     Harris-Foulkes estimate   =    -860.05445296 Ry
     estimated scf accuracy    <       0.00116653 Ry

     total magnetization       =     1.92 Bohr mag/cell
     absolute magnetization    =     3.13 Bohr mag/cell

     iteration # 40     ecut=    70.00 Ry     beta= 0.30
     Davidson diagonalization with overlap
     ethr =  1.44E-07,  avg # of iterations =  2.0

     negative rho (up, down):  5.576E-04 4.528E-02

     total cpu time spent up to now is     3886.8 secs

     total energy              =    -860.05444567 Ry
     Harris-Foulkes estimate   =    -860.05448567 Ry
     estimated scf accuracy    <       0.00158828 Ry

     total magnetization       =     1.89 Bohr mag/cell
     absolute magnetization    =     3.11 Bohr mag/cell

     iteration # 41     ecut=    70.00 Ry     beta= 0.30
     Davidson diagonalization with overlap
     ethr =  1.44E-07,  avg # of iterations =  2.5

     negative rho (up, down):  5.551E-04 4.276E-02

     total cpu time spent up to now is     3990.0 secs

     total energy              =    -860.05464342 Ry
     Harris-Foulkes estimate   =    -860.05459055 Ry
     estimated scf accuracy    <       0.00134545 Ry

     total magnetization       =     2.17 Bohr mag/cell
     absolute magnetization    =     3.18 Bohr mag/cell

     iteration # 42     ecut=    70.00 Ry     beta= 0.30
     Davidson diagonalization with overlap
     ethr =  1.44E-07,  avg # of iterations =  2.0

     negative rho (up, down):  5.489E-04 4.454E-02

     total cpu time spent up to now is     4082.0 secs

     total energy              =    -860.05460908 Ry
     Harris-Foulkes estimate   =    -860.05465000 Ry
     estimated scf accuracy    <       0.00090995 Ry

     total magnetization       =     2.14 Bohr mag/cell
     absolute magnetization    =     3.18 Bohr mag/cell

     iteration # 43     ecut=    70.00 Ry     beta= 0.30
     Davidson diagonalization with overlap
     ethr =  1.44E-07,  avg # of iterations =  2.0

     negative rho (up, down):  5.555E-04 4.696E-02

     total cpu time spent up to now is     4177.5 secs

     total energy              =    -860.05465618 Ry
     Harris-Foulkes estimate   =    -860.05462989 Ry
     estimated scf accuracy    <       0.00117604 Ry

     total magnetization       =     2.15 Bohr mag/cell
     absolute magnetization    =     3.18 Bohr mag/cell

     iteration # 44     ecut=    70.00 Ry     beta= 0.30
     Davidson diagonalization with overlap
     ethr =  1.44E-07,  avg # of iterations =  2.0

     negative rho (up, down):  5.404E-04 4.234E-02

     total cpu time spent up to now is     4271.5 secs

     total energy              =    -860.05465241 Ry
     Harris-Foulkes estimate   =    -860.05467627 Ry
     estimated scf accuracy    <       0.00121925 Ry

     total magnetization       =     2.16 Bohr mag/cell
     absolute magnetization    =     3.19 Bohr mag/cell

     iteration # 45     ecut=    70.00 Ry     beta= 0.30
     Davidson diagonalization with overlap
     ethr =  1.44E-07,  avg # of iterations =  2.0

     negative rho (up, down):  5.595E-04 4.306E-02

     total cpu time spent up to now is     4370.2 secs

     total energy              =    -860.05485044 Ry
     Harris-Foulkes estimate   =    -860.05470159 Ry
     estimated scf accuracy    <       0.00078694 Ry

     total magnetization       =     2.11 Bohr mag/cell
     absolute magnetization    =     3.17 Bohr mag/cell

     iteration # 46     ecut=    70.00 Ry     beta= 0.30
     Davidson diagonalization with overlap
     ethr =  1.44E-07,  avg # of iterations =  3.0

     negative rho (up, down):  5.576E-04 6.685E-02

     total cpu time spent up to now is     4479.1 secs

     total energy              =    -860.05421149 Ry
     Harris-Foulkes estimate   =    -860.05508220 Ry
     estimated scf accuracy    <       0.00201418 Ry

     total magnetization       =     2.16 Bohr mag/cell
     absolute magnetization    =     3.24 Bohr mag/cell

     iteration # 47     ecut=    70.00 Ry     beta= 0.30
     Davidson diagonalization with overlap
     ethr =  1.44E-07,  avg # of iterations =  3.0

     negative rho (up, down):  5.664E-04 7.509E-02

     total cpu time spent up to now is     4588.7 secs

     total energy              =    -860.05419715 Ry
     Harris-Foulkes estimate   =    -860.05454152 Ry
     estimated scf accuracy    <       0.00037005 Ry

     total magnetization       =     2.04 Bohr mag/cell
     absolute magnetization    =     3.14 Bohr mag/cell

     iteration # 48     ecut=    70.00 Ry     beta= 0.30
     Davidson diagonalization with overlap
     ethr =  1.44E-07,  avg # of iterations =  3.0

     negative rho (up, down):  5.691E-04 6.138E-02

     total cpu time spent up to now is     4694.6 secs

     total energy              =    -860.05438623 Ry
     Harris-Foulkes estimate   =    -860.05434801 Ry
     estimated scf accuracy    <       0.00023213 Ry

     total magnetization       =     2.00 Bohr mag/cell
     absolute magnetization    =     3.17 Bohr mag/cell

     iteration # 49     ecut=    70.00 Ry     beta= 0.30
     Davidson diagonalization with overlap
     ethr =  1.08E-07,  avg # of iterations =  2.5

     negative rho (up, down):  5.597E-04 5.166E-02

     total cpu time spent up to now is     4793.1 secs

     total energy              =    -860.05445416 Ry
     Harris-Foulkes estimate   =    -860.05443370 Ry
     estimated scf accuracy    <       0.00041332 Ry

     total magnetization       =     2.00 Bohr mag/cell
     absolute magnetization    =     3.21 Bohr mag/cell

     iteration # 50     ecut=    70.00 Ry     beta= 0.30
     Davidson diagonalization with overlap
     ethr =  1.08E-07,  avg # of iterations =  2.0

     negative rho (up, down):  5.563E-04 4.617E-02

     total cpu time spent up to now is     4894.0 secs

     total energy              =    -860.05449916 Ry
     Harris-Foulkes estimate   =    -860.05448221 Ry
     estimated scf accuracy    <       0.00044746 Ry

     total magnetization       =     2.00 Bohr mag/cell
     absolute magnetization    =     3.21 Bohr mag/cell

     iteration # 51     ecut=    70.00 Ry     beta= 0.30
     Davidson diagonalization with overlap
     ethr =  1.08E-07,  avg # of iterations =  2.0

     negative rho (up, down):  5.563E-04 4.860E-02

     total cpu time spent up to now is     4988.6 secs

     total energy              =    -860.05444088 Ry
     Harris-Foulkes estimate   =    -860.05452122 Ry
     estimated scf accuracy    <       0.00033395 Ry

     total magnetization       =     2.00 Bohr mag/cell
     absolute magnetization    =     3.19 Bohr mag/cell

     iteration # 52     ecut=    70.00 Ry     beta= 0.30
     Davidson diagonalization with overlap
     ethr =  1.08E-07,  avg # of iterations =  2.0

     negative rho (up, down):  5.597E-04 6.474E-02

     total cpu time spent up to now is     5082.8 secs

     total energy              =    -860.05403713 Ry
     Harris-Foulkes estimate   =    -860.05445393 Ry
     estimated scf accuracy    <       0.00029564 Ry

     total magnetization       =     2.00 Bohr mag/cell
     absolute magnetization    =     3.19 Bohr mag/cell

     iteration # 53     ecut=    70.00 Ry     beta= 0.30
     Davidson diagonalization with overlap
     ethr =  1.08E-07,  avg # of iterations =  2.0

     negative rho (up, down):  5.517E-04 4.556E-02

     total cpu time spent up to now is     5190.8 secs

     total energy              =    -860.05437280 Ry
     Harris-Foulkes estimate   =    -860.05428672 Ry
     estimated scf accuracy    <       0.00019274 Ry

     total magnetization       =     2.00 Bohr mag/cell
     absolute magnetization    =     3.18 Bohr mag/cell

     iteration # 54     ecut=    70.00 Ry     beta= 0.30
     Davidson diagonalization with overlap
     ethr =  9.01E-08,  avg # of iterations =  2.0

     negative rho (up, down):  5.621E-04 5.198E-02

     total cpu time spent up to now is     5293.1 secs

     total energy              =    -860.05420739 Ry
     Harris-Foulkes estimate   =    -860.05441997 Ry
     estimated scf accuracy    <       0.00021678 Ry

     total magnetization       =     2.00 Bohr mag/cell
     absolute magnetization    =     3.17 Bohr mag/cell

     iteration # 55     ecut=    70.00 Ry     beta= 0.30
     Davidson diagonalization with overlap
     ethr =  9.01E-08,  avg # of iterations =  2.0

     negative rho (up, down):  5.711E-04 6.352E-02

     total cpu time spent up to now is     5395.9 secs

     total energy              =    -860.05395018 Ry
     Harris-Foulkes estimate   =    -860.05427000 Ry
     estimated scf accuracy    <       0.00013630 Ry

     total magnetization       =     2.00 Bohr mag/cell
     absolute magnetization    =     3.16 Bohr mag/cell

     iteration # 56     ecut=    70.00 Ry     beta= 0.30
     Davidson diagonalization with overlap
     ethr =  6.37E-08,  avg # of iterations =  3.0

     negative rho (up, down):  5.586E-04 4.983E-02

     total cpu time spent up to now is     5504.6 secs

     total energy              =    -860.05416137 Ry
     Harris-Foulkes estimate   =    -860.05413778 Ry
     estimated scf accuracy    <       0.00002360 Ry

     total magnetization       =     2.00 Bohr mag/cell
     absolute magnetization    =     3.17 Bohr mag/cell

     iteration # 57     ecut=    70.00 Ry     beta= 0.30
     Davidson diagonalization with overlap
     ethr =  1.10E-08,  avg # of iterations =  2.0

     negative rho (up, down):  5.465E-04 3.693E-02

     total cpu time spent up to now is     5603.6 secs

     total energy              =    -860.05418636 Ry
     Harris-Foulkes estimate   =    -860.05416560 Ry
     estimated scf accuracy    <       0.00001694 Ry

     total magnetization       =     2.00 Bohr mag/cell
     absolute magnetization    =     3.17 Bohr mag/cell

     iteration # 58     ecut=    70.00 Ry     beta= 0.30
     Davidson diagonalization with overlap
     ethr =  7.91E-09,  avg # of iterations =  2.5

     negative rho (up, down):  5.460E-04 2.763E-02

     total cpu time spent up to now is     5705.8 secs

     total energy              =    -860.05419780 Ry
     Harris-Foulkes estimate   =    -860.05419200 Ry
     estimated scf accuracy    <       0.00001658 Ry

     total magnetization       =     2.00 Bohr mag/cell
     absolute magnetization    =     3.17 Bohr mag/cell

     iteration # 59     ecut=    70.00 Ry     beta= 0.30
     Davidson diagonalization with overlap
     ethr =  7.75E-09,  avg # of iterations =  2.0

     negative rho (up, down):  5.436E-04 1.875E-02

     total cpu time spent up to now is     5801.9 secs

     total energy              =    -860.05420256 Ry
     Harris-Foulkes estimate   =    -860.05419934 Ry
     estimated scf accuracy    <       0.00001672 Ry

     total magnetization       =     2.00 Bohr mag/cell
     absolute magnetization    =     3.17 Bohr mag/cell

     iteration # 60     ecut=    70.00 Ry     beta= 0.30
     Davidson diagonalization with overlap
     ethr =  7.75E-09,  avg # of iterations =  2.0

     negative rho (up, down):  5.432E-04 1.562E-02

     total cpu time spent up to now is     5903.8 secs

     total energy              =    -860.05420881 Ry
     Harris-Foulkes estimate   =    -860.05420756 Ry
     estimated scf accuracy    <       0.00001647 Ry

     total magnetization       =     2.00 Bohr mag/cell
     absolute magnetization    =     3.17 Bohr mag/cell

     iteration # 61     ecut=    70.00 Ry     beta= 0.30
     Davidson diagonalization with overlap
     ethr =  7.70E-09,  avg # of iterations =  2.0

     negative rho (up, down):  5.434E-04 1.599E-02

     total cpu time spent up to now is     5995.7 secs

     total energy              =    -860.05420594 Ry
     Harris-Foulkes estimate   =    -860.05420958 Ry
     estimated scf accuracy    <       0.00001697 Ry

     total magnetization       =     2.00 Bohr mag/cell
     absolute magnetization    =     3.18 Bohr mag/cell

     iteration # 62     ecut=    70.00 Ry     beta= 0.30
     Davidson diagonalization with overlap
     ethr =  7.70E-09,  avg # of iterations =  2.0

     negative rho (up, down):  5.406E-04 1.332E-02

     total cpu time spent up to now is     6092.8 secs

     total energy              =    -860.05421361 Ry
     Harris-Foulkes estimate   =    -860.05420786 Ry
     estimated scf accuracy    <       0.00001810 Ry

     total magnetization       =     2.00 Bohr mag/cell
     absolute magnetization    =     3.18 Bohr mag/cell

     iteration # 63     ecut=    70.00 Ry     beta= 0.30
     Davidson diagonalization with overlap
     ethr =  7.70E-09,  avg # of iterations =  2.0

     negative rho (up, down):  5.455E-04 1.619E-02

     total cpu time spent up to now is     6187.9 secs

     total energy              =    -860.05419771 Ry
     Harris-Foulkes estimate   =    -860.05421534 Ry
     estimated scf accuracy    <       0.00002409 Ry

     total magnetization       =     2.00 Bohr mag/cell
     absolute magnetization    =     3.18 Bohr mag/cell

     iteration # 64     ecut=    70.00 Ry     beta= 0.30
     Davidson diagonalization with overlap
     ethr =  7.70E-09,  avg # of iterations =  2.5

     negative rho (up, down):  5.455E-04 1.662E-02

     total cpu time spent up to now is     6289.8 secs

     total energy              =    -860.05420062 Ry
     Harris-Foulkes estimate   =    -860.05420401 Ry
     estimated scf accuracy    <       0.00001659 Ry

     total magnetization       =     2.00 Bohr mag/cell
     absolute magnetization    =     3.17 Bohr mag/cell

     iteration # 65     ecut=    70.00 Ry     beta= 0.30
     Davidson diagonalization with overlap
     ethr =  7.70E-09,  avg # of iterations =  2.0

     negative rho (up, down):  5.400E-04 1.329E-02

     total cpu time spent up to now is     6386.2 secs

     total energy              =    -860.05420854 Ry
     Harris-Foulkes estimate   =    -860.05420269 Ry
     estimated scf accuracy    <       0.00001219 Ry

     total magnetization       =     2.00 Bohr mag/cell
     absolute magnetization    =     3.17 Bohr mag/cell

     iteration # 66     ecut=    70.00 Ry     beta= 0.30
     Davidson diagonalization with overlap
     ethr =  5.70E-09,  avg # of iterations =  2.0

     negative rho (up, down):  5.400E-04 1.264E-02

     total cpu time spent up to now is     6487.9 secs

     total energy              =    -860.05421001 Ry
     Harris-Foulkes estimate   =    -860.05421166 Ry
     estimated scf accuracy    <       0.00001300 Ry

     total magnetization       =     2.00 Bohr mag/cell
     absolute magnetization    =     3.18 Bohr mag/cell

     iteration # 67     ecut=    70.00 Ry     beta= 0.30
     Davidson diagonalization with overlap
     ethr =  5.70E-09,  avg # of iterations =  2.0

     negative rho (up, down):  5.401E-04 1.213E-02

     total cpu time spent up to now is     6588.4 secs

     total energy              =    -860.05421238 Ry
     Harris-Foulkes estimate   =    -860.05421244 Ry
     estimated scf accuracy    <       0.00001383 Ry

     total magnetization       =     2.00 Bohr mag/cell
     absolute magnetization    =     3.18 Bohr mag/cell

     iteration # 68     ecut=    70.00 Ry     beta= 0.30
     Davidson diagonalization with overlap
     ethr =  5.70E-09,  avg # of iterations =  2.0

     negative rho (up, down):  5.431E-04 1.365E-02

     total cpu time spent up to now is     6682.6 secs

     total energy              =    -860.05419869 Ry
     Harris-Foulkes estimate   =    -860.05421324 Ry
     estimated scf accuracy    <       0.00001379 Ry

     total magnetization       =     2.00 Bohr mag/cell
     absolute magnetization    =     3.18 Bohr mag/cell

     iteration # 69     ecut=    70.00 Ry     beta= 0.30
     Davidson diagonalization with overlap
     ethr =  5.70E-09,  avg # of iterations =  2.0

     negative rho (up, down):  5.432E-04 1.288E-02

     total cpu time spent up to now is     6787.0 secs

     total energy              =    -860.05420343 Ry
     Harris-Foulkes estimate   =    -860.05420516 Ry
     estimated scf accuracy    <       0.00000901 Ry

     total magnetization       =     2.00 Bohr mag/cell
     absolute magnetization    =     3.18 Bohr mag/cell

     iteration # 70     ecut=    70.00 Ry     beta= 0.30
     Davidson diagonalization with overlap
     ethr =  4.21E-09,  avg # of iterations =  2.0

     negative rho (up, down):  5.424E-04 1.198E-02

     total cpu time spent up to now is     6878.5 secs

     total energy              =    -860.05420502 Ry
     Harris-Foulkes estimate   =    -860.05420375 Ry
     estimated scf accuracy    <       0.00000796 Ry

     total magnetization       =     2.00 Bohr mag/cell
     absolute magnetization    =     3.17 Bohr mag/cell

     iteration # 71     ecut=    70.00 Ry     beta= 0.30
     Davidson diagonalization with overlap
     ethr =  3.72E-09,  avg # of iterations =  2.0

     negative rho (up, down):  5.401E-04 1.008E-02

     total cpu time spent up to now is     6969.8 secs

     total energy              =    -860.05420873 Ry
     Harris-Foulkes estimate   =    -860.05420528 Ry
     estimated scf accuracy    <       0.00000839 Ry

     total magnetization       =     2.00 Bohr mag/cell
     absolute magnetization    =     3.18 Bohr mag/cell

     iteration # 72     ecut=    70.00 Ry     beta= 0.30
     Davidson diagonalization with overlap
     ethr =  3.72E-09,  avg # of iterations =  2.0

     negative rho (up, down):  5.405E-04 1.037E-02

     total cpu time spent up to now is     7064.5 secs

     total energy              =    -860.05420724 Ry
     Harris-Foulkes estimate   =    -860.05420966 Ry
     estimated scf accuracy    <       0.00000978 Ry

     total magnetization       =     2.00 Bohr mag/cell
     absolute magnetization    =     3.18 Bohr mag/cell

     iteration # 73     ecut=    70.00 Ry     beta= 0.30
     Davidson diagonalization with overlap
     ethr =  3.72E-09,  avg # of iterations =  2.0

     negative rho (up, down):  5.413E-04 1.140E-02

     total cpu time spent up to now is     7160.9 secs

     total energy              =    -860.05420457 Ry
     Harris-Foulkes estimate   =    -860.05420810 Ry
     estimated scf accuracy    <       0.00000961 Ry

     total magnetization       =     2.00 Bohr mag/cell
     absolute magnetization    =     3.18 Bohr mag/cell

     iteration # 74     ecut=    70.00 Ry     beta= 0.30
     Davidson diagonalization with overlap
     ethr =  3.72E-09,  avg # of iterations =  2.0

     negative rho (up, down):  5.412E-04 1.077E-02

     total cpu time spent up to now is     7261.0 secs

     total energy              =    -860.05420603 Ry
     Harris-Foulkes estimate   =    -860.05420625 Ry
     estimated scf accuracy    <       0.00000796 Ry

     total magnetization       =     2.00 Bohr mag/cell
     absolute magnetization    =     3.18 Bohr mag/cell

     iteration # 75     ecut=    70.00 Ry     beta= 0.30
     Davidson diagonalization with overlap
     ethr =  3.72E-09,  avg # of iterations =  1.0

     negative rho (up, down):  5.411E-04 1.121E-02

     total cpu time spent up to now is     7351.1 secs

     total energy              =    -860.05420547 Ry
     Harris-Foulkes estimate   =    -860.05420608 Ry
     estimated scf accuracy    <       0.00000775 Ry

     total magnetization       =     2.00 Bohr mag/cell
     absolute magnetization    =     3.18 Bohr mag/cell

     iteration # 76     ecut=    70.00 Ry     beta= 0.30
     Davidson diagonalization with overlap
     ethr =  3.62E-09,  avg # of iterations =  2.0

     negative rho (up, down):  5.407E-04 1.056E-02

     total cpu time spent up to now is     7443.8 secs

     total energy              =    -860.05420708 Ry
     Harris-Foulkes estimate   =    -860.05420630 Ry
     estimated scf accuracy    <       0.00000775 Ry

     total magnetization       =     2.00 Bohr mag/cell
     absolute magnetization    =     3.18 Bohr mag/cell

     iteration # 77     ecut=    70.00 Ry     beta= 0.30
     Davidson diagonalization with overlap
     ethr =  3.62E-09,  avg # of iterations =  1.0

     negative rho (up, down):  5.392E-04 9.578E-03

     total cpu time spent up to now is     7534.3 secs

     total energy              =    -860.05420611 Ry
     Harris-Foulkes estimate   =    -860.05420715 Ry
     estimated scf accuracy    <       0.00000815 Ry

     total magnetization       =     2.00 Bohr mag/cell
     absolute magnetization    =     3.18 Bohr mag/cell

     iteration # 78     ecut=    70.00 Ry     beta= 0.30
     Davidson diagonalization with overlap
     ethr =  3.62E-09,  avg # of iterations =  2.5

     negative rho (up, down):  5.392E-04 9.485E-03

     total cpu time spent up to now is     7636.2 secs

     total energy              =    -860.05420891 Ry
     Harris-Foulkes estimate   =    -860.05420870 Ry
     estimated scf accuracy    <       0.00000826 Ry

     total magnetization       =     2.00 Bohr mag/cell
     absolute magnetization    =     3.18 Bohr mag/cell

     iteration # 79     ecut=    70.00 Ry     beta= 0.30
     Davidson diagonalization with overlap
     ethr =  3.62E-09,  avg # of iterations =  1.0

     negative rho (up, down):  5.388E-04 9.220E-03

     total cpu time spent up to now is     7726.8 secs

     total energy              =    -860.05420994 Ry
     Harris-Foulkes estimate   =    -860.05420892 Ry
     estimated scf accuracy    <       0.00000843 Ry

     total magnetization       =     2.00 Bohr mag/cell
     absolute magnetization    =     3.18 Bohr mag/cell

     iteration # 80     ecut=    70.00 Ry     beta= 0.30
     Davidson diagonalization with overlap
     ethr =  3.62E-09,  avg # of iterations =  2.0

     negative rho (up, down):  5.400E-04 1.111E-02

     total cpu time spent up to now is     7826.5 secs

     total energy              =    -860.05420364 Ry
     Harris-Foulkes estimate   =    -860.05421137 Ry
     estimated scf accuracy    <       0.00001004 Ry

     total magnetization       =     2.00 Bohr mag/cell
     absolute magnetization    =     3.18 Bohr mag/cell

     iteration # 81     ecut=    70.00 Ry     beta= 0.30
     Davidson diagonalization with overlap
     ethr =  3.62E-09,  avg # of iterations =  2.5

     negative rho (up, down):  5.398E-04 1.085E-02

     total cpu time spent up to now is     7930.1 secs

     total energy              =    -860.05420829 Ry
     Harris-Foulkes estimate   =    -860.05420695 Ry
     estimated scf accuracy    <       0.00000761 Ry

     total magnetization       =     2.00 Bohr mag/cell
     absolute magnetization    =     3.18 Bohr mag/cell

     iteration # 82     ecut=    70.00 Ry     beta= 0.30
     Davidson diagonalization with overlap
     ethr =  3.55E-09,  avg # of iterations =  2.0

     negative rho (up, down):  5.385E-04 9.847E-03

     total cpu time spent up to now is     8024.7 secs

     total energy              =    -860.05420867 Ry
     Harris-Foulkes estimate   =    -860.05420915 Ry
     estimated scf accuracy    <       0.00000902 Ry

     total magnetization       =     2.00 Bohr mag/cell
     absolute magnetization    =     3.18 Bohr mag/cell

     iteration # 83     ecut=    70.00 Ry     beta= 0.30
     Davidson diagonalization with overlap
     ethr =  3.55E-09,  avg # of iterations =  2.0

     negative rho (up, down):  5.386E-04 9.947E-03

     total cpu time spent up to now is     8118.0 secs

     total energy              =    -860.05420901 Ry
     Harris-Foulkes estimate   =    -860.05420973 Ry
     estimated scf accuracy    <       0.00000846 Ry

     total magnetization       =     2.00 Bohr mag/cell
     absolute magnetization    =     3.18 Bohr mag/cell

     iteration # 84     ecut=    70.00 Ry     beta= 0.30
     Davidson diagonalization with overlap
     ethr =  3.55E-09,  avg # of iterations =  2.0

     negative rho (up, down):  5.385E-04 9.590E-03

     total cpu time spent up to now is     8213.3 secs

     total energy              =    -860.05420990 Ry
     Harris-Foulkes estimate   =    -860.05420993 Ry
     estimated scf accuracy    <       0.00000833 Ry

     total magnetization       =     2.00 Bohr mag/cell
     absolute magnetization    =     3.18 Bohr mag/cell

     iteration # 85     ecut=    70.00 Ry     beta= 0.30
     Davidson diagonalization with overlap
     ethr =  3.55E-09,  avg # of iterations =  2.0

     negative rho (up, down):  5.384E-04 1.021E-02

     total cpu time spent up to now is     8305.0 secs

     total energy              =    -860.05420741 Ry
     Harris-Foulkes estimate   =    -860.05421017 Ry
     estimated scf accuracy    <       0.00000924 Ry

     total magnetization       =     2.00 Bohr mag/cell
     absolute magnetization    =     3.18 Bohr mag/cell

     iteration # 86     ecut=    70.00 Ry     beta= 0.30
     Davidson diagonalization with overlap
     ethr =  3.55E-09,  avg # of iterations =  2.0

     negative rho (up, down):  5.381E-04 9.251E-03

     total cpu time spent up to now is     8408.6 secs

     total energy              =    -860.05421012 Ry
     Harris-Foulkes estimate   =    -860.05421127 Ry
     estimated scf accuracy    <       0.00000957 Ry

     total magnetization       =     2.00 Bohr mag/cell
     absolute magnetization    =     3.18 Bohr mag/cell

     iteration # 87     ecut=    70.00 Ry     beta= 0.30
     Davidson diagonalization with overlap
     ethr =  3.55E-09,  avg # of iterations =  2.0

     negative rho (up, down):  5.390E-04 1.171E-02

     total cpu time spent up to now is     8512.8 secs

     total energy              =    -860.05420156 Ry
     Harris-Foulkes estimate   =    -860.05421455 Ry
     estimated scf accuracy    <       0.00001236 Ry

     total magnetization       =     2.00 Bohr mag/cell
     absolute magnetization    =     3.18 Bohr mag/cell

     iteration # 88     ecut=    70.00 Ry     beta= 0.30
     Davidson diagonalization with overlap
     ethr =  3.55E-09,  avg # of iterations =  2.5

     negative rho (up, down):  5.386E-04 1.130E-02

     total cpu time spent up to now is     8619.1 secs

     total energy              =    -860.05420622 Ry
     Harris-Foulkes estimate   =    -860.05420703 Ry
     estimated scf accuracy    <       0.00000697 Ry

     total magnetization       =     2.00 Bohr mag/cell
     absolute magnetization    =     3.18 Bohr mag/cell

     iteration # 89     ecut=    70.00 Ry     beta= 0.30
     Davidson diagonalization with overlap
     ethr =  3.26E-09,  avg # of iterations =  2.0

     negative rho (up, down):  5.382E-04 1.006E-02

     total cpu time spent up to now is     8718.7 secs

     total energy              =    -860.05420869 Ry
     Harris-Foulkes estimate   =    -860.05420785 Ry
     estimated scf accuracy    <       0.00000743 Ry

     total magnetization       =     2.00 Bohr mag/cell
     absolute magnetization    =     3.18 Bohr mag/cell

     iteration # 90     ecut=    70.00 Ry     beta= 0.30
     Davidson diagonalization with overlap
     ethr =  3.26E-09,  avg # of iterations =  1.5

     negative rho (up, down):  5.382E-04 9.551E-03

     total cpu time spent up to now is     8809.6 secs

     total energy              =    -860.05420937 Ry
     Harris-Foulkes estimate   =    -860.05420879 Ry
     estimated scf accuracy    <       0.00000807 Ry

     total magnetization       =     2.00 Bohr mag/cell
     absolute magnetization    =     3.18 Bohr mag/cell

     iteration # 91     ecut=    70.00 Ry     beta= 0.30
     Davidson diagonalization with overlap
     ethr =  3.26E-09,  avg # of iterations =  2.0

     negative rho (up, down):  5.382E-04 9.536E-03

     total cpu time spent up to now is     8901.0 secs

     total energy              =    -860.05420958 Ry
     Harris-Foulkes estimate   =    -860.05420958 Ry
     estimated scf accuracy    <       0.00000809 Ry

     total magnetization       =     2.00 Bohr mag/cell
     absolute magnetization    =     3.18 Bohr mag/cell

     iteration # 92     ecut=    70.00 Ry     beta= 0.30
     Davidson diagonalization with overlap
     ethr =  3.26E-09,  avg # of iterations =  1.5

     negative rho (up, down):  5.380E-04 9.877E-03

     total cpu time spent up to now is     8991.3 secs

     total energy              =    -860.05420890 Ry
     Harris-Foulkes estimate   =    -860.05420965 Ry
     estimated scf accuracy    <       0.00000803 Ry

     total magnetization       =     2.00 Bohr mag/cell
     absolute magnetization    =     3.18 Bohr mag/cell

     iteration # 93     ecut=    70.00 Ry     beta= 0.30
     Davidson diagonalization with overlap
     ethr =  3.26E-09,  avg # of iterations =  2.0

     negative rho (up, down):  5.380E-04 9.579E-03

     total cpu time spent up to now is     9092.7 secs

     total energy              =    -860.05420933 Ry
     Harris-Foulkes estimate   =    -860.05421069 Ry
     estimated scf accuracy    <       0.00000820 Ry

     total magnetization       =     2.00 Bohr mag/cell
     absolute magnetization    =     3.18 Bohr mag/cell

     iteration # 94     ecut=    70.00 Ry     beta= 0.30
     Davidson diagonalization with overlap
     ethr =  3.26E-09,  avg # of iterations =  2.0

     negative rho (up, down):  5.382E-04 1.061E-02

     total cpu time spent up to now is     9192.7 secs

     total energy              =    -860.05420758 Ry
     Harris-Foulkes estimate   =    -860.05421101 Ry
     estimated scf accuracy    <       0.00000932 Ry

     total magnetization       =     2.00 Bohr mag/cell
     absolute magnetization    =     3.18 Bohr mag/cell

     iteration # 95     ecut=    70.00 Ry     beta= 0.30
     Davidson diagonalization with overlap
     ethr =  3.26E-09,  avg # of iterations =  2.0

     negative rho (up, down):  5.377E-04 1.034E-02

     total cpu time spent up to now is     9291.0 secs

     total energy              =    -860.05420923 Ry
     Harris-Foulkes estimate   =    -860.05420907 Ry
     estimated scf accuracy    <       0.00000702 Ry

     total magnetization       =     2.00 Bohr mag/cell
     absolute magnetization    =     3.18 Bohr mag/cell

     iteration # 96     ecut=    70.00 Ry     beta= 0.30
     Davidson diagonalization with overlap
     ethr =  3.26E-09,  avg # of iterations =  2.0

     negative rho (up, down):  5.379E-04 1.034E-02

     total cpu time spent up to now is     9392.5 secs

     total energy              =    -860.05421112 Ry
     Harris-Foulkes estimate   =    -860.05421188 Ry
     estimated scf accuracy    <       0.00001090 Ry

     total magnetization       =     2.00 Bohr mag/cell
     absolute magnetization    =     3.18 Bohr mag/cell

     iteration # 97     ecut=    70.00 Ry     beta= 0.30
     Davidson diagonalization with overlap
     ethr =  3.26E-09,  avg # of iterations =  1.5

     negative rho (up, down):  5.378E-04 1.059E-02

     total cpu time spent up to now is     9483.1 secs

     total energy              =    -860.05420862 Ry
     Harris-Foulkes estimate   =    -860.05421124 Ry
     estimated scf accuracy    <       0.00001183 Ry

     total magnetization       =     2.00 Bohr mag/cell
     absolute magnetization    =     3.18 Bohr mag/cell

     iteration # 98     ecut=    70.00 Ry     beta= 0.30
     Davidson diagonalization with overlap
     ethr =  3.26E-09,  avg # of iterations =  2.0

     negative rho (up, down):  5.373E-04 1.005E-02

     total cpu time spent up to now is     9586.4 secs

     total energy              =    -860.05421205 Ry
     Harris-Foulkes estimate   =    -860.05421170 Ry
     estimated scf accuracy    <       0.00000899 Ry

     total magnetization       =     2.00 Bohr mag/cell
     absolute magnetization    =     3.18 Bohr mag/cell

     iteration # 99     ecut=    70.00 Ry     beta= 0.30
     Davidson diagonalization with overlap
     ethr =  3.26E-09,  avg # of iterations =  1.0

     negative rho (up, down):  5.378E-04 1.006E-02

     total cpu time spent up to now is     9676.7 secs

     total energy              =    -860.05421162 Ry
     Harris-Foulkes estimate   =    -860.05421213 Ry
     estimated scf accuracy    <       0.00000911 Ry

     total magnetization       =     2.00 Bohr mag/cell
     absolute magnetization    =     3.19 Bohr mag/cell

     iteration #100     ecut=    70.00 Ry     beta= 0.30
     Davidson diagonalization with overlap
     ethr =  3.26E-09,  avg # of iterations =  2.0

     negative rho (up, down):  5.375E-04 9.567E-03

     Magnetic moment per site:
     atom:    1    charge:    0.2107    magn:   -0.0000    constr:    0.0000
     atom:    2    charge:    0.2119    magn:   -0.0000    constr:    0.0000
     atom:    3    charge:    1.7171    magn:   -0.0127    constr:    0.0000
     atom:    4    charge:    1.7153    magn:    0.0178    constr:    0.0000
     atom:    5    charge:    1.7177    magn:   -0.0086    constr:    0.0000
     atom:    6    charge:    1.7142    magn:    0.0057    constr:    0.0000
     atom:    7    charge:    1.7177    magn:   -0.0087    constr:    0.0000
     atom:    8    charge:    1.7153    magn:    0.0178    constr:    0.0000
     atom:    9    charge:    1.7171    magn:   -0.0127    constr:    0.0000
     atom:   10    charge:    1.7149    magn:    0.0590    constr:    0.0000
     atom:   11    charge:    1.7176    magn:   -0.0172    constr:    0.0000
     atom:   12    charge:    1.7149    magn:    0.0589    constr:    0.0000
     atom:   13    charge:    1.7176    magn:   -0.0172    constr:    0.0000
     atom:   14    charge:    1.7155    magn:    0.0459    constr:    0.0000
     atom:   15    charge:    1.7140    magn:   -0.0135    constr:    0.0000
     atom:   16    charge:    1.7106    magn:    0.0555    constr:    0.0000
     atom:   17    charge:    1.7228    magn:   -0.0123    constr:    0.0000
     atom:   18    charge:    1.7106    magn:    0.0556    constr:    0.0000
     atom:   19    charge:    1.7140    magn:   -0.0136    constr:    0.0000
     atom:   20    charge:    1.7155    magn:    0.0460    constr:    0.0000
     atom:   21    charge:    1.7176    magn:   -0.0173    constr:    0.0000
     atom:   22    charge:    1.7149    magn:    0.0590    constr:    0.0000
     atom:   23    charge:    1.7171    magn:   -0.0127    constr:    0.0000
     atom:   24    charge:    1.7153    magn:    0.0177    constr:    0.0000
     atom:   25    charge:    1.7140    magn:   -0.0134    constr:    0.0000
     atom:   26    charge:    1.7106    magn:    0.0553    constr:    0.0000
     atom:   27    charge:    1.8518    magn:   -0.0186    constr:    0.0000
     atom:   28    charge:   11.1427    magn:    0.4497    constr:    0.0000
     atom:   29    charge:    1.8518    magn:   -0.0189    constr:    0.0000
     atom:   30    charge:    1.7106    magn:    0.0555    constr:    0.0000
     atom:   31    charge:    1.7140    magn:   -0.0135    constr:    0.0000
     atom:   32    charge:    1.7153    magn:    0.0178    constr:    0.0000
     atom:   33    charge:    1.7177    magn:   -0.0086    constr:    0.0000
     atom:   34    charge:    1.7139    magn:    0.0126    constr:    0.0000
     atom:   35    charge:    1.7177    magn:   -0.0086    constr:    0.0000
     atom:   36    charge:    1.7142    magn:    0.0056    constr:    0.0000
     atom:   37    charge:    1.7228    magn:   -0.0120    constr:    0.0000
     atom:   38    charge:    1.7106    magn:    0.0552    constr:    0.0000
     atom:   39    charge:    1.8518    magn:   -0.0188    constr:    0.0000
     atom:   40    charge:    1.7106    magn:    0.0553    constr:    0.0000
     atom:   41    charge:    1.7228    magn:   -0.0122    constr:    0.0000
     atom:   42    charge:    1.7142    magn:    0.0056    constr:    0.0000
     atom:   43    charge:    1.7177    magn:   -0.0086    constr:    0.0000
     atom:   44    charge:    1.7139    magn:    0.0126    constr:    0.0000
     atom:   45    charge:    1.7235    magn:   -0.0055    constr:    0.0000
     atom:   46    charge:    1.7139    magn:    0.0126    constr:    0.0000
     atom:   47    charge:    1.7177    magn:   -0.0086    constr:    0.0000
     atom:   48    charge:    1.7153    magn:    0.0177    constr:    0.0000
     atom:   49    charge:    1.7140    magn:   -0.0133    constr:    0.0000
     atom:   50    charge:    1.7155    magn:    0.0458    constr:    0.0000
     atom:   51    charge:    1.7140    magn:   -0.0134    constr:    0.0000
     atom:   52    charge:    1.7153    magn:    0.0178    constr:    0.0000

     total cpu time spent up to now is     9768.8 secs

     total energy              =    -860.05421395 Ry
     Harris-Foulkes estimate   =    -860.05421186 Ry
     estimated scf accuracy    <       0.00000926 Ry

     total magnetization       =     2.00 Bohr mag/cell
     absolute magnetization    =     3.18 Bohr mag/cell

     iteration #101     ecut=    70.00 Ry     beta= 0.30
     Davidson diagonalization with overlap
     ethr =  3.26E-09,  avg # of iterations =  2.0

     negative rho (up, down):  5.376E-04 1.087E-02

     total cpu time spent up to now is     9869.7 secs

     total energy              =    -860.05421020 Ry
     Harris-Foulkes estimate   =    -860.05421622 Ry
     estimated scf accuracy    <       0.00001299 Ry

     total magnetization       =     2.00 Bohr mag/cell
     absolute magnetization    =     3.18 Bohr mag/cell

     iteration #102     ecut=    70.00 Ry     beta= 0.30
     Davidson diagonalization with overlap
     ethr =  3.26E-09,  avg # of iterations =  2.0

     negative rho (up, down):  5.381E-04 1.233E-02

     total cpu time spent up to now is     9971.2 secs

     total energy              =    -860.05420842 Ry
     Harris-Foulkes estimate   =    -860.05421277 Ry
     estimated scf accuracy    <       0.00001063 Ry

     total magnetization       =     2.00 Bohr mag/cell
     absolute magnetization    =     3.18 Bohr mag/cell

     iteration #103     ecut=    70.00 Ry     beta= 0.30
     Davidson diagonalization with overlap
     ethr =  3.26E-09,  avg # of iterations =  3.0

     negative rho (up, down):  5.367E-04 1.032E-02

     total cpu time spent up to now is    10075.2 secs

     total energy              =    -860.05421225 Ry
     Harris-Foulkes estimate   =    -860.05421213 Ry
     estimated scf accuracy    <       0.00000948 Ry

     total magnetization       =     2.00 Bohr mag/cell
     absolute magnetization    =     3.19 Bohr mag/cell

     iteration #104     ecut=    70.00 Ry     beta= 0.30
     Davidson diagonalization with overlap
     ethr =  3.26E-09,  avg # of iterations =  2.0

     negative rho (up, down):  5.386E-04 1.106E-02

     total cpu time spent up to now is    10171.9 secs

     total energy              =    -860.05421032 Ry
     Harris-Foulkes estimate   =    -860.05421355 Ry
     estimated scf accuracy    <       0.00001142 Ry

     total magnetization       =     2.00 Bohr mag/cell
     absolute magnetization    =     3.19 Bohr mag/cell

     iteration #105     ecut=    70.00 Ry     beta= 0.30
     Davidson diagonalization with overlap
     ethr =  3.26E-09,  avg # of iterations =  2.0

     negative rho (up, down):  5.377E-04 9.994E-03

     total cpu time spent up to now is    10274.8 secs

     total energy              =    -860.05421520 Ry
     Harris-Foulkes estimate   =    -860.05421278 Ry
     estimated scf accuracy    <       0.00001079 Ry

     total magnetization       =     2.00 Bohr mag/cell
     absolute magnetization    =     3.18 Bohr mag/cell

     iteration #106     ecut=    70.00 Ry     beta= 0.30
     Davidson diagonalization with overlap
     ethr =  3.26E-09,  avg # of iterations =  2.0

     negative rho (up, down):  5.384E-04 1.224E-02

     total cpu time spent up to now is    10375.4 secs

     total energy              =    -860.05420716 Ry
     Harris-Foulkes estimate   =    -860.05421717 Ry
     estimated scf accuracy    <       0.00001370 Ry

     total magnetization       =     2.00 Bohr mag/cell
     absolute magnetization    =     3.19 Bohr mag/cell

     iteration #107     ecut=    70.00 Ry     beta= 0.30
     Davidson diagonalization with overlap
     ethr =  3.26E-09,  avg # of iterations =  2.0

     negative rho (up, down):  5.389E-04 1.328E-02

     total cpu time spent up to now is    10480.1 secs

     total energy              =    -860.05420864 Ry
     Harris-Foulkes estimate   =    -860.05421124 Ry
     estimated scf accuracy    <       0.00000995 Ry

     total magnetization       =     2.00 Bohr mag/cell
     absolute magnetization    =     3.18 Bohr mag/cell

     iteration #108     ecut=    70.00 Ry     beta= 0.30
     Davidson diagonalization with overlap
     ethr =  3.26E-09,  avg # of iterations =  2.0

     negative rho (up, down):  5.374E-04 1.022E-02

     total cpu time spent up to now is    10583.9 secs

     total energy              =    -860.05421485 Ry
     Harris-Foulkes estimate   =    -860.05421266 Ry
     estimated scf accuracy    <       0.00001001 Ry

     total magnetization       =     2.00 Bohr mag/cell
     absolute magnetization    =     3.18 Bohr mag/cell

     iteration #109     ecut=    70.00 Ry     beta= 0.30
     Davidson diagonalization with overlap
     ethr =  3.26E-09,  avg # of iterations =  2.0

     negative rho (up, down):  5.378E-04 1.072E-02

     total cpu time spent up to now is    10682.4 secs

     total energy              =    -860.05421506 Ry
     Harris-Foulkes estimate   =    -860.05421631 Ry
     estimated scf accuracy    <       0.00001274 Ry

     total magnetization       =     2.00 Bohr mag/cell
     absolute magnetization    =     3.18 Bohr mag/cell

     iteration #110     ecut=    70.00 Ry     beta= 0.30
     Davidson diagonalization with overlap
     ethr =  3.26E-09,  avg # of iterations =  2.0

     negative rho (up, down):  5.380E-04 1.153E-02

     total cpu time spent up to now is    10774.3 secs

     total energy              =    -860.05421239 Ry
     Harris-Foulkes estimate   =    -860.05421550 Ry
     estimated scf accuracy    <       0.00001332 Ry

     total magnetization       =     2.00 Bohr mag/cell
     absolute magnetization    =     3.18 Bohr mag/cell

     iteration #111     ecut=    70.00 Ry     beta= 0.30
     Davidson diagonalization with overlap
     ethr =  3.26E-09,  avg # of iterations =  3.0

     negative rho (up, down):  5.375E-04 1.079E-02

     total cpu time spent up to now is    10875.5 secs

     total energy              =    -860.05421585 Ry
     Harris-Foulkes estimate   =    -860.05421422 Ry
     estimated scf accuracy    <       0.00001079 Ry

     total magnetization       =     2.00 Bohr mag/cell
     absolute magnetization    =     3.18 Bohr mag/cell

[...]

     iteration #148     ecut=    70.00 Ry     beta= 0.30
     Davidson diagonalization with overlap
     ethr =  1.40E-09,  avg # of iterations =  2.0

     negative rho (up, down):  5.368E-04 9.336E-03

     total cpu time spent up to now is    14559.6 secs

     total energy              =    -860.05420820 Ry
     Harris-Foulkes estimate   =    -860.05420757 Ry
     estimated scf accuracy    <       0.00000279 Ry

     total magnetization       =     2.00 Bohr mag/cell
     absolute magnetization    =     3.19 Bohr mag/cell

     iteration #149     ecut=    70.00 Ry     beta= 0.30
     Davidson diagonalization with overlap
     ethr =  1.30E-09,  avg # of iterations =  1.5

     negative rho (up, down):  5.368E-04 9.507E-03

     total cpu time spent up to now is    14650.6 secs

     total energy              =    -860.05420639 Ry
     Harris-Foulkes estimate   =    -860.05420825 Ry
     estimated scf accuracy    <       0.00000306 Ry

     total magnetization       =     2.00 Bohr mag/cell
     absolute magnetization    =     3.19 Bohr mag/cell

     iteration #150     ecut=    70.00 Ry     beta= 0.30
     Davidson diagonalization with overlap
     ethr =  1.30E-09,  avg # of iterations =  2.0

     negative rho (up, down):  5.366E-04 9.246E-03

     total cpu time spent up to now is    14751.0 secs

     total energy              =    -860.05420696 Ry
     Harris-Foulkes estimate   =    -860.05420700 Ry
     estimated scf accuracy    <       0.00000205 Ry

     total magnetization       =     2.00 Bohr mag/cell
     absolute magnetization    =     3.19 Bohr mag/cell

     iteration #151     ecut=    70.00 Ry     beta= 0.30
     Davidson diagonalization with overlap
     ethr =  9.60E-10,  avg # of iterations =  2.0

     negative rho (up, down):  5.364E-04 8.624E-03

     total cpu time spent up to now is    14851.3 secs

     total energy              =    -860.05420799 Ry
     Harris-Foulkes estimate   =    -860.05420741 Ry
     estimated scf accuracy    <       0.00000190 Ry

     total magnetization       =     2.00 Bohr mag/cell
     absolute magnetization    =     3.19 Bohr mag/cell

     iteration #152     ecut=    70.00 Ry     beta= 0.30
     Davidson diagonalization with overlap
     ethr =  8.89E-10,  avg # of iterations =  2.0

     negative rho (up, down):  5.365E-04 8.719E-03

     total cpu time spent up to now is    14944.2 secs

     total energy              =    -860.05420744 Ry
     Harris-Foulkes estimate   =    -860.05420808 Ry
     estimated scf accuracy    <       0.00000219 Ry

     total magnetization       =     2.00 Bohr mag/cell
     absolute magnetization    =     3.19 Bohr mag/cell

     iteration #153     ecut=    70.00 Ry     beta= 0.30
     Davidson diagonalization with overlap
     ethr =  8.89E-10,  avg # of iterations =  2.0

     negative rho (up, down):  5.365E-04 8.579E-03

     total cpu time spent up to now is    15040.4 secs

     total energy              =    -860.05420753 Ry
     Harris-Foulkes estimate   =    -860.05420766 Ry
     estimated scf accuracy    <       0.00000200 Ry

     total magnetization       =     2.00 Bohr mag/cell
     absolute magnetization    =     3.19 Bohr mag/cell

     iteration #154     ecut=    70.00 Ry     beta= 0.30
     Davidson diagonalization with overlap
     ethr =  8.89E-10,  avg # of iterations =  2.0

     negative rho (up, down):  5.364E-04 8.230E-03

     total cpu time spent up to now is    15132.2 secs

     total energy              =    -860.05420810 Ry
     Harris-Foulkes estimate   =    -860.05420759 Ry
     estimated scf accuracy    <       0.00000184 Ry

     total magnetization       =     2.00 Bohr mag/cell
     absolute magnetization    =     3.19 Bohr mag/cell

     iteration #155     ecut=    70.00 Ry     beta= 0.30
     Davidson diagonalization with overlap
     ethr =  8.59E-10,  avg # of iterations =  2.0

     negative rho (up, down):  5.364E-04 8.523E-03

     total cpu time spent up to now is    15228.3 secs

     total energy              =    -860.05420679 Ry
     Harris-Foulkes estimate   =    -860.05420827 Ry
     estimated scf accuracy    <       0.00000223 Ry

     total magnetization       =     2.00 Bohr mag/cell
     absolute magnetization    =     3.19 Bohr mag/cell

     iteration #156     ecut=    70.00 Ry     beta= 0.30
     Davidson diagonalization with overlap
     ethr =  8.59E-10,  avg # of iterations =  2.0

     negative rho (up, down):  5.362E-04 8.353E-03

     total cpu time spent up to now is    15328.6 secs

     total energy              =    -860.05420786 Ry
     Harris-Foulkes estimate   =    -860.05420734 Ry
     estimated scf accuracy    <       0.00000156 Ry

     total magnetization       =     2.00 Bohr mag/cell
     absolute magnetization    =     3.19 Bohr mag/cell

     iteration #157     ecut=    70.00 Ry     beta= 0.30
     Davidson diagonalization with overlap
     ethr =  7.28E-10,  avg # of iterations =  2.0

     negative rho (up, down):  5.362E-04 8.193E-03

     total cpu time spent up to now is    15429.3 secs

     total energy              =    -860.05420791 Ry
     Harris-Foulkes estimate   =    -860.05420828 Ry
     estimated scf accuracy    <       0.00000200 Ry

     total magnetization       =     2.00 Bohr mag/cell
     absolute magnetization    =     3.19 Bohr mag/cell

     iteration #158     ecut=    70.00 Ry     beta= 0.30
     Davidson diagonalization with overlap
     ethr =  7.28E-10,  avg # of iterations =  2.0

     negative rho (up, down):  5.362E-04 8.481E-03

     total cpu time spent up to now is    15521.3 secs

     total energy              =    -860.05420651 Ry
     Harris-Foulkes estimate   =    -860.05420796 Ry
     estimated scf accuracy    <       0.00000175 Ry

     total magnetization       =     2.00 Bohr mag/cell
     absolute magnetization    =     3.19 Bohr mag/cell

     iteration #159     ecut=    70.00 Ry     beta= 0.30
     Davidson diagonalization with overlap
     ethr =  7.28E-10,  avg # of iterations =  3.0

     negative rho (up, down):  5.362E-04 8.311E-03

     total cpu time spent up to now is    15624.5 secs

     total energy              =    -860.05420664 Ry
     Harris-Foulkes estimate   =    -860.05420711 Ry
     estimated scf accuracy    <       0.00000184 Ry

     total magnetization       =     2.00 Bohr mag/cell
     absolute magnetization    =     3.19 Bohr mag/cell

     iteration #160     ecut=    70.00 Ry     beta= 0.30
     Davidson diagonalization with overlap
     ethr =  7.28E-10,  avg # of iterations =  3.0

     negative rho (up, down):  5.359E-04 8.387E-03

     total cpu time spent up to now is    15722.8 secs

     total energy              =    -860.05420672 Ry
     Harris-Foulkes estimate   =    -860.05420697 Ry
     estimated scf accuracy    <       0.00000103 Ry

     total magnetization       =     2.00 Bohr mag/cell
     absolute magnetization    =     3.19 Bohr mag/cell

     iteration #161     ecut=    70.00 Ry     beta= 0.30
     Davidson diagonalization with overlap
     ethr =  4.81E-10,  avg # of iterations =  2.5

     negative rho (up, down):  5.358E-04 7.540E-03

     Magnetic moment per site:
     atom:    1    charge:    0.2107    magn:   -0.0000    constr:    0.0000
     atom:    2    charge:    0.2119    magn:   -0.0000    constr:    0.0000
     atom:    3    charge:    1.7171    magn:   -0.0128    constr:    0.0000
     atom:    4    charge:    1.7153    magn:    0.0180    constr:    0.0000
     atom:    5    charge:    1.7177    magn:   -0.0087    constr:    0.0000
     atom:    6    charge:    1.7142    magn:    0.0058    constr:    0.0000
     atom:    7    charge:    1.7177    magn:   -0.0088    constr:    0.0000
     atom:    8    charge:    1.7153    magn:    0.0180    constr:    0.0000
     atom:    9    charge:    1.7171    magn:   -0.0128    constr:    0.0000
     atom:   10    charge:    1.7149    magn:    0.0589    constr:    0.0000
     atom:   11    charge:    1.7176    magn:   -0.0174    constr:    0.0000
     atom:   12    charge:    1.7149    magn:    0.0589    constr:    0.0000
     atom:   13    charge:    1.7176    magn:   -0.0174    constr:    0.0000
     atom:   14    charge:    1.7155    magn:    0.0461    constr:    0.0000
     atom:   15    charge:    1.7140    magn:   -0.0137    constr:    0.0000
     atom:   16    charge:    1.7106    magn:    0.0556    constr:    0.0000
     atom:   17    charge:    1.7228    magn:   -0.0123    constr:    0.0000
     atom:   18    charge:    1.7106    magn:    0.0556    constr:    0.0000
     atom:   19    charge:    1.7140    magn:   -0.0138    constr:    0.0000
     atom:   20    charge:    1.7155    magn:    0.0461    constr:    0.0000
     atom:   21    charge:    1.7176    magn:   -0.0174    constr:    0.0000
     atom:   22    charge:    1.7149    magn:    0.0589    constr:    0.0000
     atom:   23    charge:    1.7171    magn:   -0.0128    constr:    0.0000
     atom:   24    charge:    1.7153    magn:    0.0179    constr:    0.0000
     atom:   25    charge:    1.7140    magn:   -0.0137    constr:    0.0000
     atom:   26    charge:    1.7106    magn:    0.0555    constr:    0.0000
     atom:   27    charge:    1.8518    magn:   -0.0193    constr:    0.0000
     atom:   28    charge:   11.1428    magn:    0.4517    constr:    0.0000
     atom:   29    charge:    1.8518    magn:   -0.0193    constr:    0.0000
     atom:   30    charge:    1.7106    magn:    0.0556    constr:    0.0000
     atom:   31    charge:    1.7140    magn:   -0.0138    constr:    0.0000
     atom:   32    charge:    1.7153    magn:    0.0179    constr:    0.0000
     atom:   33    charge:    1.7177    magn:   -0.0087    constr:    0.0000
     atom:   34    charge:    1.7139    magn:    0.0127    constr:    0.0000
     atom:   35    charge:    1.7177    magn:   -0.0087    constr:    0.0000
     atom:   36    charge:    1.7142    magn:    0.0058    constr:    0.0000
     atom:   37    charge:    1.7228    magn:   -0.0122    constr:    0.0000
     atom:   38    charge:    1.7106    magn:    0.0555    constr:    0.0000
     atom:   39    charge:    1.8518    magn:   -0.0194    constr:    0.0000
     atom:   40    charge:    1.7106    magn:    0.0555    constr:    0.0000
     atom:   41    charge:    1.7228    magn:   -0.0123    constr:    0.0000
     atom:   42    charge:    1.7142    magn:    0.0058    constr:    0.0000
     atom:   43    charge:    1.7177    magn:   -0.0087    constr:    0.0000
     atom:   44    charge:    1.7139    magn:    0.0127    constr:    0.0000
     atom:   45    charge:    1.7236    magn:   -0.0053    constr:    0.0000
     atom:   46    charge:    1.7139    magn:    0.0127    constr:    0.0000
     atom:   47    charge:    1.7177    magn:   -0.0087    constr:    0.0000
     atom:   48    charge:    1.7153    magn:    0.0179    constr:    0.0000
     atom:   49    charge:    1.7140    magn:   -0.0137    constr:    0.0000
     atom:   50    charge:    1.7155    magn:    0.0460    constr:    0.0000
     atom:   51    charge:    1.7140    magn:   -0.0137    constr:    0.0000
     atom:   52    charge:    1.7153    magn:    0.0179    constr:    0.0000

     total cpu time spent up to now is    15826.6 secs

     End of self-consistent calculation

 ------ SPIN UP ------------


          k = 0.0000 0.0000 0.0000 ( 87777 PWs)   bands (ev):

   -88.6942 -55.5824 -55.5822 -53.8672 -19.8878 -19.0530 -19.0527 -18.9666
   -18.9282 -18.9280 -18.5846 -17.1778 -17.1778 -17.1777 -17.1062 -17.1061
   -16.8005 -16.3315 -16.3314 -16.2299 -16.1779 -16.1778 -15.4864 -14.2336
   -14.2334 -14.1481 -14.1011 -14.1010 -13.4323 -13.1651 -13.1651 -13.1407
   -12.8605 -12.8605 -12.4518 -11.9439 -11.9438 -11.7557 -11.5084 -11.5083
   -10.6270  -9.7938  -9.7937  -9.5309  -9.4218  -9.4218  -9.3388  -9.3077
    -9.3077  -9.2949  -8.8287  -8.8287  -8.2856  -8.2855  -8.1969  -8.0354
    -7.9373  -7.5479  -7.5479  -7.3411  -7.2250  -7.2243  -7.0805  -7.0804
    -6.9469  -6.9233  -6.9232  -6.8125  -6.6698  -6.6697  -6.6394  -6.6268
    -6.6268  -6.5859  -6.5799  -6.2831  -5.7361  -5.7360  -5.6709  -5.6703
    -5.4815  -5.4814  -5.2760  -5.0924  -4.9822  -4.8452  -4.8190  -4.8188
    -4.5344  -4.5343  -4.5041  -4.3368  -4.3367  -3.9820  -3.9817  -3.8947
    -3.7858  -3.7858  -3.2099  -2.8968  -2.8967  -1.9781  -1.9077  -1.9076
    -1.3018  -1.3013  -1.0625  -0.8901   0.8195   0.8672   0.8675   1.3954
     1.3957   1.5056   2.3851   2.3858   2.5217   2.6619   2.6621   2.7615
     3.2957   3.2965   3.4181   3.6532   3.6791   3.7223   3.7249   3.7500

     occupation numbers 
     1.0000   1.0000   1.0000   1.0000   1.0000   1.0000   1.0000   1.0000
     1.0000   1.0000   1.0000   1.0000   1.0000   1.0000   1.0000   1.0000
     1.0000   1.0000   1.0000   1.0000   1.0000   1.0000   1.0000   1.0000
     1.0000   1.0000   1.0000   1.0000   1.0000   1.0000   1.0000   1.0000
     1.0000   1.0000   1.0000   1.0000   1.0000   1.0000   1.0000   1.0000
     1.0000   1.0000   1.0000   1.0000   1.0000   1.0000   1.0000   1.0000
     1.0000   1.0000   1.0000   1.0000   1.0000   1.0000   1.0000   1.0000
     1.0000   1.0000   1.0000   1.0000   1.0000   1.0000   1.0000   1.0000
     1.0000   1.0000   1.0000   1.0000   1.0000   1.0000   1.0000   1.0000
     1.0000   1.0000   1.0000   1.0000   1.0000   1.0000   1.0000   1.0000
     1.0000   1.0000   1.0000   1.0000   1.0000   1.0000   1.0000   1.0000
     1.0000   1.0000   1.0000   1.0000   1.0000   1.0000   1.0000   1.0000
     1.0000   1.0000   1.0000   1.0000   1.0000   1.0000   1.0000   1.0000
     1.0000   1.0000   1.0000   1.0001   0.0000   0.0000   0.0000   0.0000
     0.0000   0.0000   0.0000   0.0000   0.0000   0.0000   0.0000   0.0000
     0.0000   0.0000   0.0000   0.0000   0.0000   0.0000   0.0000   0.0000

 ------ SPIN DOWN ----------


          k = 0.0000 0.0000 0.0000 ( 87777 PWs)   bands (ev):

   -87.9755 -54.9965 -54.9962 -52.9756 -19.8458 -19.0065 -19.0062 -18.9267
   -18.9019 -18.9017 -18.5256 -17.1501 -17.1413 -17.1412 -17.0522 -17.0521
   -16.7703 -16.2858 -16.2857 -16.1958 -16.1344 -16.1343 -15.4617 -14.1625
   -14.1622 -14.0909 -14.0908 -14.0856 -13.4393 -13.1402 -13.1402 -13.1083
   -12.8415 -12.8414 -12.4209 -11.9064 -11.9063 -11.7328 -11.4863 -11.4862
   -10.6042  -9.7451  -9.7451  -9.4991  -9.3897  -9.3896  -9.3217  -9.2842
    -9.2841  -9.2769  -8.8161  -8.8160  -8.2500  -8.2500  -8.1774  -7.9378
    -7.9202  -7.5333  -7.5332  -7.3090  -7.0602  -7.0596  -7.0345  -7.0344
    -6.8640  -6.8638  -6.8469  -6.7972  -6.6533  -6.6532  -6.6288  -6.6132
    -6.6131  -6.5619  -6.4509  -6.2814  -5.6908  -5.6906  -5.4395  -5.4395
    -5.4365  -5.4360  -5.1968  -5.0786  -4.9724  -4.7703  -4.7265  -4.7263
    -4.4515  -4.4512  -4.4305  -4.2105  -4.2105  -3.8471  -3.8468  -3.7981
    -3.7711  -3.7710  -3.1660  -2.6662  -2.6660  -1.8802  -1.8800  -1.8166
    -0.9060  -0.8533  -0.7926  -0.7920   0.9147   0.9149   0.9768   1.5516
     1.5517   1.6285   2.5310   2.5331   2.5364   2.8031   2.8035   2.8357
     3.4534   3.4549   3.5091   3.6709   3.6949   3.7322   3.7350   3.7558

     occupation numbers 
     1.0000   1.0000   1.0000   1.0000   1.0000   1.0000   1.0000   1.0000
     1.0000   1.0000   1.0000   1.0000   1.0000   1.0000   1.0000   1.0000
     1.0000   1.0000   1.0000   1.0000   1.0000   1.0000   1.0000   1.0000
     1.0000   1.0000   1.0000   1.0000   1.0000   1.0000   1.0000   1.0000
     1.0000   1.0000   1.0000   1.0000   1.0000   1.0000   1.0000   1.0000
     1.0000   1.0000   1.0000   1.0000   1.0000   1.0000   1.0000   1.0000
     1.0000   1.0000   1.0000   1.0000   1.0000   1.0000   1.0000   1.0000
     1.0000   1.0000   1.0000   1.0000   1.0000   1.0000   1.0000   1.0000
     1.0000   1.0000   1.0000   1.0000   1.0000   1.0000   1.0000   1.0000
     1.0000   1.0000   1.0000   1.0000   1.0000   1.0000   1.0000   1.0000
     1.0000   1.0000   1.0000   1.0000   1.0000   1.0000   1.0000   1.0000
     1.0000   1.0000   1.0000   1.0000   1.0000   1.0000   1.0000   1.0000
     1.0000   1.0000   1.0000   1.0000   1.0000   1.0000   1.0000   1.0000
     1.0000   0.9999   0.0000   0.0000   0.0000   0.0000   0.0000   0.0000
     0.0000   0.0000   0.0000   0.0000   0.0000   0.0000   0.0000   0.0000
     0.0000   0.0000   0.0000   0.0000   0.0000   0.0000   0.0000   0.0000

     the Fermi energy is    -0.8408 ev

!    total energy              =    -860.05420787 Ry
     Harris-Foulkes estimate   =    -860.05420720 Ry
     estimated scf accuracy    <       0.00000063 Ry

     The total energy is the sum of the following terms:

     one-electron contribution =   -2780.24036883 Ry
     hartree contribution      =    1433.91186924 Ry
     xc contribution           =    -259.29978227 Ry
     ewald contribution        =     745.57399227 Ry
     smearing contrib. (-TS)   =       0.00008173 Ry

     total magnetization       =     2.00 Bohr mag/cell
     absolute magnetization    =     3.19 Bohr mag/cell

     convergence has been achieved in 161 iterations

     Writing output data file gr-12-baricentro.save/

     init_run     :     73.29s CPU     74.60s WALL (       1 calls)
     electrons    :  15445.17s CPU  15751.00s WALL (       1 calls)

     Called by init_run:
     wfcinit      :     40.36s CPU     40.65s WALL (       1 calls)
     wfcinit:atom :      0.05s CPU      0.09s WALL (       2 calls)
     wfcinit:wfcr :     39.99s CPU     40.17s WALL (       2 calls)
     potinit      :     13.53s CPU     14.01s WALL (       1 calls)
     hinit0       :     10.91s CPU     10.94s WALL (       1 calls)

     Called by electrons:
     c_bands      :   9714.40s CPU   9773.41s WALL (     161 calls)
     sum_band     :   3303.05s CPU   3397.01s WALL (     161 calls)
     v_of_rho     :   1170.44s CPU   1236.34s WALL (     162 calls)
     v_h          :     11.81s CPU     12.17s WALL (     162 calls)
     v_xc         :   1158.63s CPU   1224.16s WALL (     162 calls)
     newd         :   1175.21s CPU   1261.09s WALL (     162 calls)
     mix_rho      :     59.94s CPU     61.02s WALL (     161 calls)

     Called by c_bands:
     init_us_2    :     29.03s CPU     29.12s WALL (     646 calls)
     cegterg      :   9630.30s CPU   9688.85s WALL (     322 calls)

     Called by sum_band:
     sum_band:bec :      0.26s CPU      0.26s WALL (     322 calls)
     addusdens    :   2071.54s CPU   2157.52s WALL (     161 calls)

     Called by *egterg:
     h_psi        :   5012.81s CPU   5052.77s WALL (    1049 calls)
     s_psi        :   1685.14s CPU   1686.27s WALL (    1049 calls)
     g_psi        :      5.52s CPU      5.54s WALL (     725 calls)
     cdiaghg      :     64.49s CPU     64.56s WALL (    1047 calls)
     cegterg:over :   1165.97s CPU   1166.86s WALL (     725 calls)
     cegterg:upda :    690.68s CPU    695.40s WALL (     725 calls)
     cegterg:last :    525.27s CPU    525.55s WALL (     322 calls)

     Called by h_psi:
     h_psi:pot    :   5007.06s CPU   5039.94s WALL (    1049 calls)
     h_psi:calbec :   1668.36s CPU   1669.46s WALL (    1049 calls)
     vloc_psi     :   1654.83s CPU   1685.66s WALL (    1049 calls)
     add_vuspsi   :   1683.85s CPU   1684.82s WALL (    1049 calls)

     General routines
     calbec       :   2414.35s CPU   2415.85s WALL (    1371 calls)
     fft          :    663.87s CPU    689.76s WALL (   12144 calls)
     ffts         :     11.78s CPU     12.23s WALL (     646 calls)
     fftw         :   1775.79s CPU   1809.42s WALL (  225438 calls)
     interpolate  :     26.94s CPU     27.72s WALL (     324 calls)

     Parallel routines
     fft_scatt_xy :    443.12s CPU    449.41s WALL (  238228 calls)
     fft_scatt_yz :    808.97s CPU    849.51s WALL (  238228 calls)

     PWSCF        :      4h18m CPU      4h23m WALL


   This run was terminated on:   7:40:17  17Nov2022            

=------------------------------------------------------------------------------=
   JOB DONE.
=------------------------------------------------------------------------------=
