
     Program PWSCF v.6.4.1 starts on 17Mar2022 at 12: 4:47 

     This program is part of the open-source Quantum ESPRESSO suite
     for quantum simulation of materials; please cite
         "P. Giannozzi et al., J. Phys.:Condens. Matter 21 395502 (2009);
         "P. Giannozzi et al., J. Phys.:Condens. Matter 29 465901 (2017);
          URL http://www.quantum-espresso.org", 
     in publications or presentations arising from this work. More details at
     http://www.quantum-espresso.org/quote

     Parallel version (MPI), running on     6 processors

     MPI processes distributed on     1 nodes
     R & G space division:  proc/nbgrp/npool/nimage =       6
     Reading input from fe-2.76.in

     Current dimensions of program PWSCF are:
     Max number of different atomic species (ntypx) = 10
     Max number of k-points (npk) =  40000
     Max angular momentum in pseudopotentials (lmaxx) =  3

     Subspace diagonalization in iterative solution of the eigenvalue problem:
     a serial algorithm will be used

     Message from routine setup:
     DEPRECATED: symmetry with ibrav=0, use correct ibrav instead

     Parallelization info
     --------------------
     sticks:   dense  smooth     PW     G-vecs:    dense   smooth      PW
     Min         175      98     30                 4303     1842     320
     Max         179      99     31                 4304     1847     323
     Sum        1057     593    185                25821    11075    1935



     bravais-lattice index     =            0
     lattice parameter (alat)  =       5.2156  a.u.
     unit-cell volume          =     141.8809 (a.u.)^3
     number of atoms/cell      =            2
     number of atomic types    =            2
     number of electrons       =        32.00
     number of Kohn-Sham states=           20
     kinetic-energy cutoff     =      70.0000  Ry
     charge density cutoff     =     490.0000  Ry
     convergence threshold     =      1.0E-06
     mixing beta               =       0.7000
     number of iterations used =            8  plain     mixing
     Exchange-correlation      = PBE ( 1  4  3  4 0 0)

     celldm(1)=   5.215644  celldm(2)=   0.000000  celldm(3)=   0.000000
     celldm(4)=   0.000000  celldm(5)=   0.000000  celldm(6)=   0.000000

     crystal axes: (cart. coord. in units of alat)
               a(1) = (   1.000000   0.000000   0.000000 )  
               a(2) = (   0.000000   1.000000   0.000000 )  
               a(3) = (   0.000000   0.000000   1.000000 )  

     reciprocal axes: (cart. coord. in units 2 pi/alat)
               b(1) = (  1.000000  0.000000  0.000000 )  
               b(2) = (  0.000000  1.000000  0.000000 )  
               b(3) = (  0.000000  0.000000  1.000000 )  


     PseudoPot. # 1 for Fe read from file:
     /home/cristian/Escritorio/Proyecto_Grafeno/pseudopotenciales/Fe.pbe-spn-rrkjus_psl.1.0.0.UPF
     MD5 check sum: 72ea77fed8e64ab3a2ccf2804dfc1862
     Pseudo is Ultrasoft + core correction, Zval = 16.0
     Generated using "atomic" code by A. Dal Corso v.6.3
     Using radial grid of 1191 points,  6 beta functions with: 
                l(1) =   0
                l(2) =   0
                l(3) =   1
                l(4) =   1
                l(5) =   2
                l(6) =   2
     Q(r) pseudized with 0 coefficients 


     PseudoPot. # 2 for Fe read from file:
     /home/cristian/Escritorio/Proyecto_Grafeno/pseudopotenciales/Fe.pbe-spn-rrkjus_psl.1.0.0.UPF
     MD5 check sum: 72ea77fed8e64ab3a2ccf2804dfc1862
     Pseudo is Ultrasoft + core correction, Zval = 16.0
     Generated using "atomic" code by A. Dal Corso v.6.3
     Using radial grid of 1191 points,  6 beta functions with: 
                l(1) =   0
                l(2) =   0
                l(3) =   1
                l(4) =   1
                l(5) =   2
                l(6) =   2
     Q(r) pseudized with 0 coefficients 


     atomic species   valence    mass     pseudopotential
        Fe1           16.00    55.84500     Fe( 1.00)
        Fe2           16.00    55.84500     Fe( 1.00)

     Starting magnetic structure 
     atomic species   magnetization
        Fe1          0.100
        Fe2         -0.100

     48 Sym. Ops., with inversion, found



   Cartesian axes

     site n.     atom                  positions (alat units)
         1           Fe1 tau(   1) = (   0.0000000   0.0000000   0.0000000  )
         2           Fe2 tau(   2) = (   0.5000000   0.5000000   0.5000000  )

     number of k points=    20  Methfessel-Paxton smearing, width (Ry)=  0.0300
                       cart. coord. in units 2pi/alat
        k(    1) = (   0.0625000   0.0625000   0.0625000), wk =   0.0156250
        k(    2) = (   0.0625000   0.0625000   0.1875000), wk =   0.0468750
        k(    3) = (   0.0625000   0.0625000   0.3125000), wk =   0.0468750
        k(    4) = (   0.0625000   0.0625000   0.4375000), wk =   0.0468750
        k(    5) = (   0.0625000   0.1875000   0.1875000), wk =   0.0468750
        k(    6) = (   0.0625000   0.1875000   0.3125000), wk =   0.0937500
        k(    7) = (   0.0625000   0.1875000   0.4375000), wk =   0.0937500
        k(    8) = (   0.0625000   0.3125000   0.3125000), wk =   0.0468750
        k(    9) = (   0.0625000   0.3125000   0.4375000), wk =   0.0937500
        k(   10) = (   0.0625000   0.4375000   0.4375000), wk =   0.0468750
        k(   11) = (   0.1875000   0.1875000   0.1875000), wk =   0.0156250
        k(   12) = (   0.1875000   0.1875000   0.3125000), wk =   0.0468750
        k(   13) = (   0.1875000   0.1875000   0.4375000), wk =   0.0468750
        k(   14) = (   0.1875000   0.3125000   0.3125000), wk =   0.0468750
        k(   15) = (   0.1875000   0.3125000   0.4375000), wk =   0.0937500
        k(   16) = (   0.1875000   0.4375000   0.4375000), wk =   0.0468750
        k(   17) = (   0.3125000   0.3125000   0.3125000), wk =   0.0156250
        k(   18) = (   0.3125000   0.3125000   0.4375000), wk =   0.0468750
        k(   19) = (   0.3125000   0.4375000   0.4375000), wk =   0.0468750
        k(   20) = (   0.4375000   0.4375000   0.4375000), wk =   0.0156250

     Dense  grid:    25821 G-vectors     FFT dimensions: (  40,  40,  40)

     Smooth grid:    11075 G-vectors     FFT dimensions: (  27,  27,  27)

     Estimated max dynamical RAM per process >      22.75 MB

     Estimated total dynamical RAM >     136.51 MB
     Generating pointlists ...
     new r_m :   0.3572 (alat units)  1.8632 (a.u.) for type    1
     new r_m :   0.3572 (alat units)  1.8632 (a.u.) for type    2

     Check: negative core charge=   -0.000002

     Initial potential from superposition of free atoms

     starting charge   31.99912, renormalised to   32.00000
     Starting wfcs are   20 randomized atomic wfcs

     total cpu time spent up to now is        1.9 secs

     Self-consistent Calculation

     iteration #  1     ecut=    70.00 Ry     beta= 0.70
     Davidson diagonalization with overlap
     ethr =  1.00E-02,  avg # of iterations =  3.0

     Threshold (ethr) on eigenvalues was too large:
     Diagonalizing with lowered threshold

     Davidson diagonalization with overlap
     ethr =  2.33E-04,  avg # of iterations =  1.6

     total cpu time spent up to now is        3.3 secs

     total energy              =    -495.52733680 Ry
     Harris-Foulkes estimate   =    -495.57704828 Ry
     estimated scf accuracy    <       0.07936793 Ry

     total magnetization       =     0.00 Bohr mag/cell
     absolute magnetization    =     2.64 Bohr mag/cell

     iteration #  2     ecut=    70.00 Ry     beta= 0.70
     Davidson diagonalization with overlap
     ethr =  2.48E-04,  avg # of iterations =  3.0

     total cpu time spent up to now is        4.4 secs

     total energy              =    -495.52882814 Ry
     Harris-Foulkes estimate   =    -495.61513109 Ry
     estimated scf accuracy    <       0.21862797 Ry

     total magnetization       =    -0.00 Bohr mag/cell
     absolute magnetization    =     2.84 Bohr mag/cell

     iteration #  3     ecut=    70.00 Ry     beta= 0.70
     Davidson diagonalization with overlap
     ethr =  2.48E-04,  avg # of iterations =  3.0

     total cpu time spent up to now is        5.3 secs

     total energy              =    -495.56908648 Ry
     Harris-Foulkes estimate   =    -495.56844146 Ry
     estimated scf accuracy    <       0.00165444 Ry

     total magnetization       =     0.00 Bohr mag/cell
     absolute magnetization    =     2.70 Bohr mag/cell

     iteration #  4     ecut=    70.00 Ry     beta= 0.70
     Davidson diagonalization with overlap
     ethr =  5.17E-06,  avg # of iterations =  3.1

     total cpu time spent up to now is        6.2 secs

     total energy              =    -495.56742851 Ry
     Harris-Foulkes estimate   =    -495.57228251 Ry
     estimated scf accuracy    <       0.05822924 Ry

     total magnetization       =    -0.13 Bohr mag/cell
     absolute magnetization    =     2.68 Bohr mag/cell

     iteration #  5     ecut=    70.00 Ry     beta= 0.70
     Davidson diagonalization with overlap
     ethr =  5.17E-06,  avg # of iterations =  3.0

     total cpu time spent up to now is        7.0 secs

     total energy              =    -495.56996271 Ry
     Harris-Foulkes estimate   =    -495.56990109 Ry
     estimated scf accuracy    <       0.00017381 Ry

     total magnetization       =     0.00 Bohr mag/cell
     absolute magnetization    =     2.69 Bohr mag/cell

     iteration #  6     ecut=    70.00 Ry     beta= 0.70
     Davidson diagonalization with overlap
     ethr =  5.43E-07,  avg # of iterations =  2.1

     total cpu time spent up to now is        7.9 secs

     total energy              =    -495.57015791 Ry
     Harris-Foulkes estimate   =    -495.57015855 Ry
     estimated scf accuracy    <       0.00001468 Ry

     total magnetization       =    -0.00 Bohr mag/cell
     absolute magnetization    =     2.66 Bohr mag/cell

     iteration #  7     ecut=    70.00 Ry     beta= 0.70
     Davidson diagonalization with overlap
     ethr =  4.59E-08,  avg # of iterations =  2.4

     total cpu time spent up to now is        8.7 secs

     total energy              =    -495.57016667 Ry
     Harris-Foulkes estimate   =    -495.57016809 Ry
     estimated scf accuracy    <       0.00000383 Ry

     total magnetization       =    -0.00 Bohr mag/cell
     absolute magnetization    =     2.65 Bohr mag/cell

     iteration #  8     ecut=    70.00 Ry     beta= 0.70
     Davidson diagonalization with overlap
     ethr =  1.20E-08,  avg # of iterations =  2.9

     total cpu time spent up to now is        9.6 secs

     total energy              =    -495.57017104 Ry
     Harris-Foulkes estimate   =    -495.57017400 Ry
     estimated scf accuracy    <       0.00000330 Ry

     total magnetization       =    -0.00 Bohr mag/cell
     absolute magnetization    =     2.63 Bohr mag/cell

     iteration #  9     ecut=    70.00 Ry     beta= 0.70
     Davidson diagonalization with overlap
     ethr =  1.03E-08,  avg # of iterations =  2.7

     Magnetic moment per site:
     atom:    1    charge:   14.3308    magn:    1.2515    constr:    0.0000
     atom:    2    charge:   14.3298    magn:   -1.2579    constr:    0.0000

     total cpu time spent up to now is       10.4 secs

     End of self-consistent calculation

 ------ SPIN UP ------------


          k = 0.0625 0.0625 0.0625 (  1376 PWs)   bands (ev):

   -67.6012 -66.0666 -33.6334 -33.6334 -33.6267 -32.1101 -32.1017 -32.1017
    11.4637  15.5941  15.5941  18.3243  18.3243  18.5387  20.3428  20.3428
    21.0279  21.3803  21.3803  30.3143

          k = 0.0625 0.0625 0.1875 (  1391 PWs)   bands (ev):

   -67.5977 -66.0662 -33.6527 -33.6248 -33.6205 -32.1399 -32.1074 -32.1074
    12.1307  15.8666  15.8844  18.2125  18.2744  18.7779  20.0391  20.3840
    20.4849  20.8057  21.3418  27.5487

          k = 0.0625 0.0625 0.3125 (  1399 PWs)   bands (ev):

   -67.5926 -66.0654 -33.6784 -33.6126 -33.6124 -32.1828 -32.1159 -32.1135
    13.3460  16.1526  16.4069  18.2019  18.2077  18.9591  19.5272  19.8724
    20.0805  20.6716  21.0512  24.5880

          k = 0.0625 0.0625 0.4375 (  1410 PWs)   bands (ev):

   -67.5891 -66.0649 -33.6968 -33.6069 -33.6035 -32.2137 -32.1217 -32.1179
    14.7868  15.9339  16.9766  18.0869  18.3333  18.8115  19.0895  19.5740
    19.9322  20.6474  20.8794  22.5847

          k = 0.0625 0.1875 0.1875 (  1401 PWs)   bands (ev):

   -67.5945 -66.0652 -33.6617 -33.6352 -33.6166 -32.1521 -32.1193 -32.1111
    12.7533  16.0561  16.2105  17.9493  18.1297  18.9165  19.9370  20.1266
    20.4086  20.4573  21.4510  27.7166

          k = 0.0625 0.1875 0.3125 (  1395 PWs)   bands (ev):

   -67.5900 -66.0637 -33.6861 -33.6398 -33.6083 -32.1776 -32.1279 -32.1147
    13.8510  16.2296  16.7137  17.7845  18.0158  18.5439  19.8665  19.9368
    20.2037  20.6056  21.3681  25.1313

          k = 0.0625 0.1875 0.4375 (  1406 PWs)   bands (ev):

   -67.5868 -66.0627 -33.7062 -33.6421 -33.6017 -32.1980 -32.1328 -32.1167
    15.0674  15.9730  17.1339  17.7458  18.0682  18.2125  19.6489  19.7337
    20.4704  20.9704  21.2139  22.8309

          k = 0.0625 0.3125 0.3125 (  1402 PWs)   bands (ev):

   -67.5863 -66.0613 -33.7017 -33.6747 -33.6023 -32.1742 -32.1424 -32.1155
    14.6124  16.0475  17.4129  17.4630  17.9639  18.1116  19.7501  20.2861
    20.5044  20.8004  21.5498  24.8464

          k = 0.0625 0.3125 0.4375 (  1402 PWs)   bands (ev):

   -67.5836 -66.0596 -33.7199 -33.6921 -33.5977 -32.1771 -32.1481 -32.1152
    15.2511  15.7060  17.3597  17.5359  17.9826  18.6852  19.7685  20.3232
    20.6823  21.4162  21.5459  23.0098

          k = 0.0625 0.4375 0.4375 (  1405 PWs)   bands (ev):

   -67.5814 -66.0574 -33.7307 -33.7263 -33.5949 -32.1637 -32.1582 -32.1140
    15.2917  15.4242  17.1363  17.1992  19.0581  19.5761  20.0358  20.4522
    20.6514  21.5273  21.9411  22.5549

          k = 0.1875 0.1875 0.1875 (  1394 PWs)   bands (ev):

   -67.5916 -66.0638 -33.6510 -33.6510 -33.6302 -32.1511 -32.1264 -32.1264
    13.3540  16.3881  16.3881  17.8103  17.8103  18.4013  20.1808  20.2907
    20.2907  20.9199  20.9199  28.8042

          k = 0.1875 0.1875 0.3125 (  1400 PWs)   bands (ev):

   -67.5875 -66.0619 -33.6839 -33.6398 -33.6361 -32.1703 -32.1369 -32.1280
    14.3846  16.6595  16.6849  17.5989  17.6587  17.9266  20.0544  20.3658
    20.4081  20.8417  21.1254  25.9384

          k = 0.1875 0.1875 0.4375 (  1405 PWs)   bands (ev):

   -67.5846 -66.0605 -33.7081 -33.6455 -33.6256 -32.1895 -32.1445 -32.1232
    15.4615  16.2569  16.9844  17.3859  17.7771  18.0940  19.8023  20.1004
    20.2299  21.1875  21.8209  23.4932

          k = 0.1875 0.3125 0.3125 (  1416 PWs)   bands (ev):

   -67.5841 -66.0593 -33.6889 -33.6757 -33.6316 -32.1693 -32.1523 -32.1354
    15.1779  16.4752  17.3020  17.3905  17.4516  17.5983  19.9799  20.3483
    20.5590  21.1526  21.6228  26.0915

          k = 0.1875 0.3125 0.4375 (  1410 PWs)   bands (ev):

   -67.5815 -66.0574 -33.7118 -33.6838 -33.6249 -32.1791 -32.1600 -32.1325
    15.7540  16.1305  17.1836  17.2499  17.7316  18.2213  19.8529  20.1697
    20.5737  21.2992  22.6302  24.2290

          k = 0.1875 0.4375 0.4375 (  1408 PWs)   bands (ev):

   -67.5793 -66.0552 -33.7158 -33.7137 -33.6200 -32.1737 -32.1698 -32.1378
    15.7583  15.8926  17.0380  17.0746  18.6407  18.7334  19.8724  19.9309
    20.8350  21.3982  23.4648  24.2589

          k = 0.3125 0.3125 0.3125 (  1421 PWs)   bands (ev):

   -67.5808 -66.0565 -33.6790 -33.6703 -33.6703 -32.1665 -32.1665 -32.1585
    16.0241  16.8768  17.1156  17.1156  17.3007  17.3007  20.0655  20.0655
    20.9746  20.9746  22.6643  27.8935

          k = 0.3125 0.3125 0.4375 (  1411 PWs)   bands (ev):

   -67.5785 -66.0543 -33.7015 -33.6768 -33.6567 -32.1829 -32.1766 -32.1558
    16.3130  16.6679  16.9886  17.2193  17.3003  17.9116  19.8968  19.9200
    20.9316  21.2927  23.8940  25.6508

          k = 0.3125 0.4375 0.4375 (  1411 PWs)   bands (ev):

   -67.5764 -66.0521 -33.6958 -33.6943 -33.6549 -32.1882 -32.1869 -32.1710
    16.3587  16.6982  16.9206  16.9864  17.9252  17.9911  19.7658  19.8453
    21.1421  21.4008  25.2042  26.3234

          k = 0.4375 0.4375 0.4375 (  1412 PWs)   bands (ev):

   -67.5743 -66.0499 -33.6840 -33.6786 -33.6786 -32.1991 -32.1991 -32.1939
    16.6967  16.8666  16.8666  17.5333  17.5593  17.5593  19.7338  19.7338
    21.4130  21.4130  26.9631  28.6301

 ------ SPIN DOWN ----------


          k = 0.0625 0.0625 0.0625 (  1376 PWs)   bands (ev):

   -67.6037 -66.0697 -33.6359 -33.6359 -33.6291 -32.1130 -32.1046 -32.1046
    11.4634  15.5919  15.5919  18.3224  18.3224  18.5369  20.3397  20.3397
    21.0259  21.3782  21.3782  30.3137

          k = 0.0625 0.0625 0.1875 (  1391 PWs)   bands (ev):

   -67.6002 -66.0692 -33.6552 -33.6273 -33.6230 -32.1428 -32.1103 -32.1103
    12.1303  15.8645  15.8822  18.2107  18.2726  18.7761  20.0360  20.3821
    20.4818  20.8037  21.3397  27.5476

          k = 0.0625 0.0625 0.3125 (  1399 PWs)   bands (ev):

   -67.5951 -66.0684 -33.6808 -33.6151 -33.6149 -32.1857 -32.1188 -32.1164
    13.3455  16.1508  16.4046  18.2001  18.2058  18.9572  19.5244  19.8705
    20.0786  20.6686  21.0490  24.5864

          k = 0.0625 0.0625 0.4375 (  1410 PWs)   bands (ev):

   -67.5916 -66.0680 -33.6993 -33.6094 -33.6060 -32.2165 -32.1245 -32.1207
    14.7861  15.9327  16.9741  18.0850  18.3316  18.8097  19.0870  19.5721
    19.9302  20.6453  20.8769  22.5821

          k = 0.0625 0.1875 0.1875 (  1401 PWs)   bands (ev):

   -67.5970 -66.0682 -33.6641 -33.6377 -33.6191 -32.1550 -32.1221 -32.1140
    12.7529  16.0540  16.2084  17.9475  18.1279  18.9146  19.9351  20.1237
    20.4056  20.4553  21.4489  27.7155

          k = 0.0625 0.1875 0.3125 (  1395 PWs)   bands (ev):

   -67.5925 -66.0667 -33.6886 -33.6423 -33.6107 -32.1804 -32.1308 -32.1176
    13.8505  16.2276  16.7116  17.7828  18.0141  18.5422  19.8644  19.9341
    20.2017  20.6026  21.3660  25.1297

          k = 0.0625 0.1875 0.4375 (  1406 PWs)   bands (ev):

   -67.5893 -66.0657 -33.7086 -33.6446 -33.6042 -32.2009 -32.1357 -32.1196
    15.0666  15.9717  17.1317  17.7440  18.0665  18.2107  19.6467  19.7311
    20.4682  20.9683  21.2115  22.8285

          k = 0.0625 0.3125 0.3125 (  1402 PWs)   bands (ev):

   -67.5888 -66.0643 -33.7042 -33.6772 -33.6048 -32.1771 -32.1453 -32.1184
    14.6117  16.0457  17.4109  17.4613  17.9622  18.1100  19.7480  20.2832
    20.5015  20.7984  21.5476  24.8449

          k = 0.0625 0.3125 0.4375 (  1402 PWs)   bands (ev):

   -67.5861 -66.0626 -33.7224 -33.6945 -33.6002 -32.1800 -32.1510 -32.1181
    15.2500  15.7045  17.3581  17.5343  17.9806  18.6838  19.7661  20.3204
    20.6799  21.4141  21.5436  23.0078

          k = 0.0625 0.4375 0.4375 (  1405 PWs)   bands (ev):

   -67.5839 -66.0604 -33.7332 -33.7288 -33.5974 -32.1665 -32.1611 -32.1169
    15.2904  15.4228  17.1347  17.1976  19.0559  19.5744  20.0341  20.4501
    20.6485  21.5245  21.9392  22.5531

          k = 0.1875 0.1875 0.1875 (  1394 PWs)   bands (ev):

   -67.5941 -66.0668 -33.6535 -33.6535 -33.6327 -32.1540 -32.1293 -32.1293
    13.3536  16.3860  16.3860  17.8086  17.8086  18.3996  20.1789  20.2878
    20.2878  20.9177  20.9177  28.8030

          k = 0.1875 0.1875 0.3125 (  1400 PWs)   bands (ev):

   -67.5900 -66.0649 -33.6864 -33.6423 -33.6386 -32.1731 -32.1398 -32.1308
    14.3841  16.6576  16.6827  17.5971  17.6570  17.9249  20.0518  20.3633
    20.4054  20.8397  21.1230  25.9369

          k = 0.1875 0.1875 0.4375 (  1405 PWs)   bands (ev):

   -67.5871 -66.0635 -33.7106 -33.6479 -33.6281 -32.1924 -32.1474 -32.1261
    15.4606  16.2556  16.9823  17.3842  17.7754  18.0924  19.8000  20.0977
    20.2274  21.1849  21.8188  23.4912

          k = 0.1875 0.3125 0.3125 (  1416 PWs)   bands (ev):

   -67.5866 -66.0624 -33.6914 -33.6782 -33.6341 -32.1721 -32.1552 -32.1383
    15.1772  16.4735  17.3003  17.3885  17.4499  17.5967  19.9776  20.3456
    20.5562  21.1499  21.6209  26.0900

          k = 0.1875 0.3125 0.4375 (  1410 PWs)   bands (ev):

   -67.5840 -66.0605 -33.7143 -33.6863 -33.6274 -32.1820 -32.1628 -32.1354
    15.7529  16.1290  17.1820  17.2482  17.7299  18.2198  19.8504  20.1672
    20.5708  21.2962  22.6283  24.2273

          k = 0.1875 0.4375 0.4375 (  1408 PWs)   bands (ev):

   -67.5818 -66.0582 -33.7182 -33.7162 -33.6224 -32.1765 -32.1727 -32.1407
    15.7570  15.8911  17.0364  17.0730  18.6391  18.7322  19.8698  19.9283
    20.8320  21.3949  23.4633  24.2574

          k = 0.3125 0.3125 0.3125 (  1421 PWs)   bands (ev):

   -67.5833 -66.0595 -33.6814 -33.6728 -33.6728 -32.1694 -32.1694 -32.1614
    16.0234  16.8754  17.1140  17.1140  17.2988  17.2988  20.0629  20.0629
    20.9716  20.9716  22.6625  27.8922

          k = 0.3125 0.3125 0.4375 (  1411 PWs)   bands (ev):

   -67.5810 -66.0574 -33.7040 -33.6792 -33.6592 -32.1857 -32.1794 -32.1587
    16.3117  16.6666  16.9870  17.2175  17.2989  17.9102  19.8942  19.9173
    20.9285  21.2895  23.8923  25.6493

          k = 0.3125 0.4375 0.4375 (  1411 PWs)   bands (ev):

   -67.5789 -66.0551 -33.6983 -33.6967 -33.6574 -32.1910 -32.1897 -32.1739
    16.3574  16.6967  16.9191  16.9849  17.9239  17.9897  19.7629  19.8426
    21.1389  21.3975  25.2027  26.3221

          k = 0.4375 0.4375 0.4375 (  1412 PWs)   bands (ev):

   -67.5768 -66.0530 -33.6865 -33.6811 -33.6811 -32.2020 -32.2020 -32.1968
    16.6953  16.8651  16.8651  17.5320  17.5579  17.5579  19.7308  19.7308
    21.4096  21.4096  26.9618  28.6289

     the Fermi energy is    20.2985 ev

!    total energy              =    -495.57017473 Ry
     Harris-Foulkes estimate   =    -495.57017499 Ry
     estimated scf accuracy    <       0.00000058 Ry

     The total energy is the sum of the following terms:

     one-electron contribution =    -207.44813625 Ry
     hartree contribution      =     124.58118373 Ry
     xc contribution           =     -55.45243459 Ry
     ewald contribution        =    -357.24974344 Ry
     smearing contrib. (-TS)   =      -0.00104417 Ry

     total magnetization       =    -0.01 Bohr mag/cell
     absolute magnetization    =     2.61 Bohr mag/cell

     convergence has been achieved in   9 iterations

     Writing output data file fe-2.76.save/

     init_run     :      0.50s CPU      0.51s WALL (       1 calls)
     electrons    :      8.33s CPU      8.50s WALL (       1 calls)

     Called by init_run:
     wfcinit      :      0.18s CPU      0.19s WALL (       1 calls)
     potinit      :      0.06s CPU      0.06s WALL (       1 calls)
     hinit0       :      0.22s CPU      0.22s WALL (       1 calls)

     Called by electrons:
     c_bands      :      6.65s CPU      6.80s WALL (      10 calls)
     sum_band     :      1.27s CPU      1.28s WALL (      10 calls)
     v_of_rho     :      0.18s CPU      0.18s WALL (      10 calls)
     newd         :      0.25s CPU      0.26s WALL (      10 calls)
     mix_rho      :      0.01s CPU      0.01s WALL (      10 calls)

     Called by c_bands:
     init_us_2    :      0.08s CPU      0.08s WALL (     840 calls)
     cegterg      :      6.33s CPU      6.48s WALL (     400 calls)

     Called by sum_band:
     sum_band:bec :      0.01s CPU      0.01s WALL (     400 calls)
     addusdens    :      0.43s CPU      0.43s WALL (      10 calls)

     Called by *egterg:
     h_psi        :      3.56s CPU      3.65s WALL (    1511 calls)
     s_psi        :      0.30s CPU      0.31s WALL (    1511 calls)
     g_psi        :      0.03s CPU      0.03s WALL (    1071 calls)
     cdiaghg      :      0.95s CPU      0.97s WALL (    1431 calls)

     Called by h_psi:
     h_psi:pot    :      3.55s CPU      3.63s WALL (    1511 calls)
     h_psi:calbec :      0.46s CPU      0.47s WALL (    1511 calls)
     vloc_psi     :      2.78s CPU      2.84s WALL (    1511 calls)
     add_vuspsi   :      0.31s CPU      0.32s WALL (    1511 calls)

     General routines
     calbec       :      0.63s CPU      0.65s WALL (    1911 calls)
     fft          :      0.09s CPU      0.09s WALL (     246 calls)
     ffts         :      0.01s CPU      0.01s WALL (      40 calls)
     fftw         :      3.05s CPU      3.11s WALL (   51332 calls)
     interpolate  :      0.01s CPU      0.01s WALL (      20 calls)

     Parallel routines
     fft_scatt_xy :      0.24s CPU      0.25s WALL (   51618 calls)
     fft_scatt_yz :      1.31s CPU      1.33s WALL (   51618 calls)

     PWSCF        :     10.24s CPU     10.44s WALL


   This run was terminated on:  12: 4:58  17Mar2022            

=------------------------------------------------------------------------------=
   JOB DONE.
=------------------------------------------------------------------------------=
