
     Program PWSCF v.6.4.1 starts on 25Jul2022 at 12: 0:34 

     This program is part of the open-source Quantum ESPRESSO suite
     for quantum simulation of materials; please cite
         "P. Giannozzi et al., J. Phys.:Condens. Matter 21 395502 (2009);
         "P. Giannozzi et al., J. Phys.:Condens. Matter 29 465901 (2017);
          URL http://www.quantum-espresso.org", 
     in publications or presentations arising from this work. More details at
     http://www.quantum-espresso.org/quote

     Parallel version (MPI), running on     6 processors

     MPI processes distributed on     1 nodes
     R & G space division:  proc/nbgrp/npool/nimage =       6
     Reading input from distance-3.5.in

     Current dimensions of program PWSCF are:
     Max number of different atomic species (ntypx) = 10
     Max number of k-points (npk) =  40000
     Max angular momentum in pseudopotentials (lmaxx) =  3

     IMPORTANT: XC functional enforced from input :
     Exchange-correlation      = RVV10 ( 1  4 13  4 3 0)
     Any further DFT definition will be discarded
     Please, verify this is what you really want

               file H.pbe-rrkjus.UPF: wavefunction(s)  1S renormalized
               file Cu.pbe-dn-rrkjus_psl.1.0.0.UPF: wavefunction(s)  3D renormalized

     Subspace diagonalization in iterative solution of the eigenvalue problem:
     a serial algorithm will be used


     Parallelization info
     --------------------
     sticks:   dense  smooth     PW     G-vecs:    dense   smooth      PW
     Min        3051    1746    432               270999   117096   14629
     Max        3053    1747    437               271001   117099   14630
     Sum       18313   10477   2611              1626001   702581   87777



     bravais-lattice index     =            4
     lattice parameter (alat)  =      23.2937  a.u.
     unit-cell volume          =    8879.8548 (a.u.)^3
     number of atoms/cell      =           52
     number of atomic types    =            3
     number of electrons       =       209.00
     number of Kohn-Sham states=          126
     kinetic-energy cutoff     =      70.0000  Ry
     charge density cutoff     =     490.0000  Ry
     convergence threshold     =      1.0E-06
     mixing beta               =       0.7000
     number of iterations used =            8  plain     mixing
     Exchange-correlation      = RVV10 ( 1  4 13  4 3 0)

     celldm(1)=  23.293684  celldm(2)=   0.000000  celldm(3)=   0.811261
     celldm(4)=   0.000000  celldm(5)=   0.000000  celldm(6)=   0.000000

     crystal axes: (cart. coord. in units of alat)
               a(1) = (   1.000000   0.000000   0.000000 )  
               a(2) = (  -0.500000   0.866025   0.000000 )  
               a(3) = (   0.000000   0.000000   0.811261 )  

     reciprocal axes: (cart. coord. in units 2 pi/alat)
               b(1) = (  1.000000  0.577350 -0.000000 )  
               b(2) = (  0.000000  1.154701  0.000000 )  
               b(3) = (  0.000000 -0.000000  1.232649 )  


     PseudoPot. # 1 for H  read from file:
     /home/cristian/Escritorio/Proyecto_Grafeno/pseudopotenciales/H.pbe-rrkjus.UPF
     MD5 check sum: 7cc9d459525c9a0585f487a71c3c9563
     Pseudo is Ultrasoft, Zval =  1.0
     Generated by new atomic code, or converted to UPF format
     Using radial grid of 1061 points,  2 beta functions with: 
                l(1) =   0
                l(2) =   0
     Q(r) pseudized with 0 coefficients 


     PseudoPot. # 2 for C  read from file:
     /home/cristian/Escritorio/Proyecto_Grafeno/pseudopotenciales/C.pbe-n-rrkjus_psl.1.0.0.UPF
     MD5 check sum: 1fdd950c42eb37d8afe3dd2f8d12311e
     Pseudo is Ultrasoft + core correction, Zval =  4.0
     Generated using "atomic" code by A. Dal Corso v.6.3MaX
     Using radial grid of 1073 points,  4 beta functions with: 
                l(1) =   0
                l(2) =   0
                l(3) =   1
                l(4) =   1
     Q(r) pseudized with 0 coefficients 


     PseudoPot. # 3 for Cu read from file:
     /home/cristian/Escritorio/Proyecto_Grafeno/pseudopotenciales/Cu.pbe-dn-rrkjus_psl.1.0.0.UPF
     MD5 check sum: ba3d6c84e19846e79d48cdc68ff7152b
     Pseudo is Ultrasoft + core correction, Zval = 11.0
     Generated using "atomic" code by A. Dal Corso v.6.3
     Using radial grid of 1199 points,  6 beta functions with: 
                l(1) =   0
                l(2) =   0
                l(3) =   1
                l(4) =   1
                l(5) =   2
                l(6) =   2
     Q(r) pseudized with 0 coefficients 


     vdW kernel table read from file rVV10_kernel_table
     MD5 check sum: b8e2538accc0c0b3206b45ba4daaba6c

     atomic species   valence    mass     pseudopotential
        H              1.00     1.00794     H ( 1.00)
        C              4.00    12.01070     C ( 1.00)
        Cu            11.00    63.54600     Cu( 1.00)

     No symmetry found


                                    s                        frac. trans.

      isym =  1     identity                                     

 cryst.   s( 1) = (     1          0          0      )
                  (     0          1          0      )
                  (     0          0          1      )

 cart.    s( 1) = (  1.0000000  0.0000000  0.0000000 )
                  (  0.0000000  1.0000000  0.0000000 )
                  (  0.0000000  0.0000000  1.0000000 )


     point group C_1 (1)    
     there are  1 classes
     the character table:

       E    
A      1.00

     the symmetry operations in each class and the name of the first element:

     E        1
          identity                                               

   Cartesian axes

     site n.     atom                  positions (alat units)
         1           H   tau(   1) = (   0.1694937   0.4618802   0.2839414  )
         2           H   tau(   2) = (   0.2305063   0.4618802   0.2839414  )
         3           C   tau(   3) = (   0.0000000   0.0000000   0.0000000  )
         4           C   tau(   4) = (   0.0000000   0.1154701   0.0000000  )
         5           C   tau(   5) = (  -0.1000000   0.1732051   0.0000000  )
         6           C   tau(   6) = (  -0.1000000   0.2886751   0.0000000  )
         7           C   tau(   7) = (  -0.2000000   0.3464102   0.0000000  )
         8           C   tau(   8) = (  -0.2000000   0.4618802   0.0000000  )
         9           C   tau(   9) = (  -0.3000000   0.5196152   0.0000000  )
        10           C   tau(  10) = (  -0.3000000   0.6350853   0.0000000  )
        11           C   tau(  11) = (  -0.4000000   0.6928203   0.0000000  )
        12           C   tau(  12) = (  -0.4000000   0.8082904   0.0000000  )
        13           C   tau(  13) = (   0.2000000   0.0000000   0.0000000  )
        14           C   tau(  14) = (   0.2000000   0.1154701   0.0000000  )
        15           C   tau(  15) = (   0.1000000   0.1732051   0.0000000  )
        16           C   tau(  16) = (   0.1000000   0.2886751   0.0000000  )
        17           C   tau(  17) = (   0.0000000   0.3464102   0.0000000  )
        18           C   tau(  18) = (   0.0000000   0.4618802   0.0000000  )
        19           C   tau(  19) = (  -0.1000000   0.5196152   0.0000000  )
        20           C   tau(  20) = (  -0.1000000   0.6350853   0.0000000  )
        21           C   tau(  21) = (  -0.2000000   0.6928203   0.0000000  )
        22           C   tau(  22) = (  -0.2000000   0.8082904   0.0000000  )
        23           C   tau(  23) = (   0.4000000   0.0000000   0.0000000  )
        24           C   tau(  24) = (   0.4000000   0.1154701   0.0000000  )
        25           C   tau(  25) = (   0.3000000   0.1732051   0.0000000  )
        26           C   tau(  26) = (   0.3000000   0.2886751   0.0000000  )
        27           C   tau(  27) = (   0.2000000   0.3464102   0.0000000  )
        28           Cu  tau(  28) = (   0.2000000   0.4618802   0.0000000  )
        29           C   tau(  29) = (   0.1000000   0.5196152   0.0000000  )
        30           C   tau(  30) = (   0.1000000   0.6350853   0.0000000  )
        31           C   tau(  31) = (   0.0000000   0.6928203   0.0000000  )
        32           C   tau(  32) = (   0.0000000   0.8082904   0.0000000  )
        33           C   tau(  33) = (   0.6000000   0.0000000   0.0000000  )
        34           C   tau(  34) = (   0.6000000   0.1154701   0.0000000  )
        35           C   tau(  35) = (   0.5000000   0.1732051   0.0000000  )
        36           C   tau(  36) = (   0.5000000   0.2886751   0.0000000  )
        37           C   tau(  37) = (   0.4000000   0.3464102   0.0000000  )
        38           C   tau(  38) = (   0.4000000   0.4618802   0.0000000  )
        39           C   tau(  39) = (   0.3000000   0.5196152   0.0000000  )
        40           C   tau(  40) = (   0.3000000   0.6350853   0.0000000  )
        41           C   tau(  41) = (   0.2000000   0.6928203   0.0000000  )
        42           C   tau(  42) = (   0.2000000   0.8082904   0.0000000  )
        43           C   tau(  43) = (   0.8000000   0.0000000   0.0000000  )
        44           C   tau(  44) = (   0.8000000   0.1154701   0.0000000  )
        45           C   tau(  45) = (   0.7000000   0.1732051   0.0000000  )
        46           C   tau(  46) = (   0.7000000   0.2886751   0.0000000  )
        47           C   tau(  47) = (   0.6000000   0.3464102   0.0000000  )
        48           C   tau(  48) = (   0.6000000   0.4618802   0.0000000  )
        49           C   tau(  49) = (   0.5000000   0.5196152   0.0000000  )
        50           C   tau(  50) = (   0.5000000   0.6350853   0.0000000  )
        51           C   tau(  51) = (   0.4000000   0.6928203   0.0000000  )
        52           C   tau(  52) = (   0.4000000   0.8082904   0.0000000  )

   Crystallographic axes

     site n.     atom                  positions (cryst. coord.)
         1           H   tau(   1) = (  0.4361603  0.5333333  0.3500000  )
         2           H   tau(   2) = (  0.4971730  0.5333333  0.3500000  )
         3           C   tau(   3) = (  0.0000000  0.0000000  0.0000000  )
         4           C   tau(   4) = (  0.0666667  0.1333333  0.0000000  )
         5           C   tau(   5) = (  0.0000000  0.2000000  0.0000000  )
         6           C   tau(   6) = (  0.0666667  0.3333333  0.0000000  )
         7           C   tau(   7) = (  0.0000000  0.4000000  0.0000000  )
         8           C   tau(   8) = (  0.0666667  0.5333333  0.0000000  )
         9           C   tau(   9) = (  0.0000000  0.6000000  0.0000000  )
        10           C   tau(  10) = (  0.0666667  0.7333333  0.0000000  )
        11           C   tau(  11) = (  0.0000000  0.8000000  0.0000000  )
        12           C   tau(  12) = (  0.0666667  0.9333333  0.0000000  )
        13           C   tau(  13) = (  0.2000000  0.0000000  0.0000000  )
        14           C   tau(  14) = (  0.2666667  0.1333333  0.0000000  )
        15           C   tau(  15) = (  0.2000000  0.2000000  0.0000000  )
        16           C   tau(  16) = (  0.2666667  0.3333333  0.0000000  )
        17           C   tau(  17) = (  0.2000000  0.4000000  0.0000000  )
        18           C   tau(  18) = (  0.2666667  0.5333333  0.0000000  )
        19           C   tau(  19) = (  0.2000000  0.6000000  0.0000000  )
        20           C   tau(  20) = (  0.2666667  0.7333333  0.0000000  )
        21           C   tau(  21) = (  0.2000000  0.8000000  0.0000000  )
        22           C   tau(  22) = (  0.2666667  0.9333333  0.0000000  )
        23           C   tau(  23) = (  0.4000000  0.0000000  0.0000000  )
        24           C   tau(  24) = (  0.4666667  0.1333333  0.0000000  )
        25           C   tau(  25) = (  0.4000000  0.2000000  0.0000000  )
        26           C   tau(  26) = (  0.4666667  0.3333333  0.0000000  )
        27           C   tau(  27) = (  0.4000000  0.4000000  0.0000000  )
        28           Cu  tau(  28) = (  0.4666667  0.5333333  0.0000000  )
        29           C   tau(  29) = (  0.4000000  0.6000000  0.0000000  )
        30           C   tau(  30) = (  0.4666667  0.7333333  0.0000000  )
        31           C   tau(  31) = (  0.4000000  0.8000000  0.0000000  )
        32           C   tau(  32) = (  0.4666667  0.9333333  0.0000000  )
        33           C   tau(  33) = (  0.6000000  0.0000000  0.0000000  )
        34           C   tau(  34) = (  0.6666667  0.1333333  0.0000000  )
        35           C   tau(  35) = (  0.6000000  0.2000000  0.0000000  )
        36           C   tau(  36) = (  0.6666667  0.3333333  0.0000000  )
        37           C   tau(  37) = (  0.6000000  0.4000000  0.0000000  )
        38           C   tau(  38) = (  0.6666667  0.5333333  0.0000000  )
        39           C   tau(  39) = (  0.6000000  0.6000000  0.0000000  )
        40           C   tau(  40) = (  0.6666667  0.7333333  0.0000000  )
        41           C   tau(  41) = (  0.6000000  0.8000000  0.0000000  )
        42           C   tau(  42) = (  0.6666667  0.9333333  0.0000000  )
        43           C   tau(  43) = (  0.8000000  0.0000000  0.0000000  )
        44           C   tau(  44) = (  0.8666667  0.1333333  0.0000000  )
        45           C   tau(  45) = (  0.8000000  0.2000000  0.0000000  )
        46           C   tau(  46) = (  0.8666667  0.3333333  0.0000000  )
        47           C   tau(  47) = (  0.8000000  0.4000000  0.0000000  )
        48           C   tau(  48) = (  0.8666667  0.5333333  0.0000000  )
        49           C   tau(  49) = (  0.8000000  0.6000000  0.0000000  )
        50           C   tau(  50) = (  0.8666667  0.7333333  0.0000000  )
        51           C   tau(  51) = (  0.8000000  0.8000000  0.0000000  )
        52           C   tau(  52) = (  0.8666667  0.9333333  0.0000000  )

     number of k points=     1  Marzari-Vanderbilt smearing, width (Ry)=  0.0010
                       cart. coord. in units 2pi/alat
        k(    1) = (   0.0000000   0.0000000   0.0000000), wk =   2.0000000

                       cryst. coord.
        k(    1) = (   0.0000000   0.0000000   0.0000000), wk =   2.0000000

     Dense  grid:  1626001 G-vectors     FFT dimensions: ( 180, 180, 135)

     Smooth grid:   702581 G-vectors     FFT dimensions: ( 125, 125, 108)

     Dynamical RAM for                 wfc:      28.14 MB

     Dynamical RAM for     wfc (w. buffer):      28.14 MB

     Dynamical RAM for           str. fact:      12.41 MB

     Dynamical RAM for           local pot:       0.00 MB

     Dynamical RAM for          nlocal pot:      92.46 MB

     Dynamical RAM for                qrad:      19.73 MB

     Dynamical RAM for          rho,v,vnew:      29.46 MB

     Dynamical RAM for               rhoin:       9.82 MB

     Dynamical RAM for            rho*nmix:      66.16 MB

     Dynamical RAM for           G-vectors:      16.40 MB

     Dynamical RAM for          h,s,v(r/c):      11.63 MB

     Dynamical RAM for          <psi|beta>:       0.80 MB

     Dynamical RAM for                 psi:     112.56 MB

     Dynamical RAM for                hpsi:     112.56 MB

     Dynamical RAM for                spsi:     112.56 MB

     Dynamical RAM for      wfcinit/wfcrot:      93.45 MB

     Dynamical RAM for           addusdens:     971.75 MB

     Estimated static dynamical RAM per process >     319.55 MB

     Estimated max dynamical RAM per process >       1.26 GB

     Estimated total dynamical RAM >       7.57 GB

     Check: negative core charge=   -0.000002

     Initial potential from superposition of free atoms

     starting charge  208.80532, renormalised to  209.00000

     negative rho (up, down):  5.826E-05 0.000E+00


---------------------------------------------------------------------------------
Carrying out rVV10 run using the following parameters:
Nqs =      20    Nr_points =    1024   r_max =   100.000
b_value =  6.30000    beta =  0.00901
     q_mesh =  0.00010000  0.00030000  0.00058939  0.00100810
               0.00161396  0.00249058  0.00375900  0.00559430
               0.00824984  0.01209221  0.01765183  0.02569619
               0.03733578  0.05417739  0.07854596  0.11380545
               0.16482331  0.23864234  0.34545298  0.50000000

Gradients computed in Reciprocal space

---------------------------------------------------------------------------------


     Starting wfcs are  207 randomized atomic wfcs

     total cpu time spent up to now is       58.9 secs

     Self-consistent Calculation

     iteration #  1     ecut=    70.00 Ry     beta= 0.70
     Davidson diagonalization with overlap
     ethr =  1.00E-02,  avg # of iterations =  5.0

     negative rho (up, down):  1.256E-04 0.000E+00

     total cpu time spent up to now is      154.1 secs

     total energy              =    -732.27371621 Ry
     Harris-Foulkes estimate   =    -737.61072437 Ry
     estimated scf accuracy    <       7.93378339 Ry

     iteration #  2     ecut=    70.00 Ry     beta= 0.70
     Davidson diagonalization with overlap
     ethr =  3.80E-03,  avg # of iterations =  6.0

     negative rho (up, down):  1.487E-04 0.000E+00

     total cpu time spent up to now is      246.4 secs

     total energy              =    -731.49339245 Ry
     Harris-Foulkes estimate   =    -737.94406936 Ry
     estimated scf accuracy    <      13.66818597 Ry

     iteration #  3     ecut=    70.00 Ry     beta= 0.70
     Davidson diagonalization with overlap
     ethr =  3.80E-03,  avg # of iterations =  7.0

     negative rho (up, down):  1.915E-04 0.000E+00

     total cpu time spent up to now is      326.3 secs

     total energy              =    -732.91944153 Ry
     Harris-Foulkes estimate   =    -736.16134921 Ry
     estimated scf accuracy    <      10.82961489 Ry

     iteration #  4     ecut=    70.00 Ry     beta= 0.70
     Davidson diagonalization with overlap
     ethr =  3.80E-03,  avg # of iterations =  3.0

     negative rho (up, down):  2.187E-04 0.000E+00

     total cpu time spent up to now is      401.1 secs

     total energy              =    -734.12787036 Ry
     Harris-Foulkes estimate   =    -735.03945012 Ry
     estimated scf accuracy    <       4.50398255 Ry

     iteration #  5     ecut=    70.00 Ry     beta= 0.70
     Davidson diagonalization with overlap
     ethr =  2.16E-03,  avg # of iterations =  2.0

     negative rho (up, down):  2.484E-04 0.000E+00

     total cpu time spent up to now is      473.2 secs

     total energy              =    -734.73868541 Ry
     Harris-Foulkes estimate   =    -734.78357113 Ry
     estimated scf accuracy    <       0.15232578 Ry

     iteration #  6     ecut=    70.00 Ry     beta= 0.70
     Davidson diagonalization with overlap
     ethr =  7.29E-05,  avg # of iterations = 11.0

     negative rho (up, down):  2.743E-04 0.000E+00

     total cpu time spent up to now is      571.0 secs

     total energy              =    -734.74810379 Ry
     Harris-Foulkes estimate   =    -734.77466203 Ry
     estimated scf accuracy    <       0.12522651 Ry

     iteration #  7     ecut=    70.00 Ry     beta= 0.70
     Davidson diagonalization with overlap
     ethr =  5.99E-05,  avg # of iterations =  2.0

     negative rho (up, down):  3.170E-04 0.000E+00

     total cpu time spent up to now is      632.1 secs

     total energy              =    -734.75122788 Ry
     Harris-Foulkes estimate   =    -734.76729569 Ry
     estimated scf accuracy    <       0.09070914 Ry

     iteration #  8     ecut=    70.00 Ry     beta= 0.70
     Davidson diagonalization with overlap
     ethr =  4.34E-05,  avg # of iterations =  2.0

     negative rho (up, down):  3.961E-04 0.000E+00

     total cpu time spent up to now is      704.0 secs

     total energy              =    -734.75024937 Ry
     Harris-Foulkes estimate   =    -734.75885114 Ry
     estimated scf accuracy    <       0.04830874 Ry

     iteration #  9     ecut=    70.00 Ry     beta= 0.70
     Davidson diagonalization with overlap
     ethr =  2.31E-05,  avg # of iterations =  3.0

     negative rho (up, down):  4.964E-04 0.000E+00

     total cpu time spent up to now is      775.6 secs

     total energy              =    -734.75192383 Ry
     Harris-Foulkes estimate   =    -734.75517752 Ry
     estimated scf accuracy    <       0.02674271 Ry

     iteration # 10     ecut=    70.00 Ry     beta= 0.70
     Davidson diagonalization with overlap
     ethr =  1.28E-05,  avg # of iterations =  3.0

     negative rho (up, down):  5.189E-04 0.000E+00

     total cpu time spent up to now is      849.1 secs

     total energy              =    -734.75185698 Ry
     Harris-Foulkes estimate   =    -734.75392477 Ry
     estimated scf accuracy    <       0.02312189 Ry

     iteration # 11     ecut=    70.00 Ry     beta= 0.70
     Davidson diagonalization with overlap
     ethr =  1.11E-05,  avg # of iterations =  1.0

     negative rho (up, down):  6.290E-04 0.000E+00

     total cpu time spent up to now is      922.7 secs

     total energy              =    -734.75199246 Ry
     Harris-Foulkes estimate   =    -734.75324816 Ry
     estimated scf accuracy    <       0.01762019 Ry

     iteration # 12     ecut=    70.00 Ry     beta= 0.70
     Davidson diagonalization with overlap
     ethr =  8.43E-06,  avg # of iterations =  1.0

     negative rho (up, down):  6.063E-04 0.000E+00

     total cpu time spent up to now is      985.3 secs

     total energy              =    -734.75255423 Ry
     Harris-Foulkes estimate   =    -734.75272083 Ry
     estimated scf accuracy    <       0.00173164 Ry

     iteration # 13     ecut=    70.00 Ry     beta= 0.70
     Davidson diagonalization with overlap
     ethr =  8.29E-07,  avg # of iterations = 10.0

     negative rho (up, down):  6.147E-04 0.000E+00

     total cpu time spent up to now is     1055.7 secs

     total energy              =    -734.75262413 Ry
     Harris-Foulkes estimate   =    -734.75266523 Ry
     estimated scf accuracy    <       0.00034280 Ry

     iteration # 14     ecut=    70.00 Ry     beta= 0.70
     Davidson diagonalization with overlap
     ethr =  1.64E-07,  avg # of iterations =  2.0

     negative rho (up, down):  6.083E-04 0.000E+00

     total cpu time spent up to now is     1124.5 secs

     total energy              =    -734.75263770 Ry
     Harris-Foulkes estimate   =    -734.75265354 Ry
     estimated scf accuracy    <       0.00020851 Ry

     iteration # 15     ecut=    70.00 Ry     beta= 0.70
     Davidson diagonalization with overlap
     ethr =  9.98E-08,  avg # of iterations =  1.0

     negative rho (up, down):  6.066E-04 0.000E+00

     total cpu time spent up to now is     1190.7 secs

     total energy              =    -734.75264295 Ry
     Harris-Foulkes estimate   =    -734.75265582 Ry
     estimated scf accuracy    <       0.00030753 Ry

     iteration # 16     ecut=    70.00 Ry     beta= 0.70
     Davidson diagonalization with overlap
     ethr =  9.98E-08,  avg # of iterations =  1.0

     negative rho (up, down):  6.063E-04 0.000E+00

     total cpu time spent up to now is     1252.8 secs

     total energy              =    -734.75264945 Ry
     Harris-Foulkes estimate   =    -734.75265235 Ry
     estimated scf accuracy    <       0.00005794 Ry

     iteration # 17     ecut=    70.00 Ry     beta= 0.70
     Davidson diagonalization with overlap
     ethr =  2.77E-08,  avg # of iterations =  1.0

     negative rho (up, down):  6.061E-04 0.000E+00

     total cpu time spent up to now is     1318.9 secs

     total energy              =    -734.75265090 Ry
     Harris-Foulkes estimate   =    -734.75265118 Ry
     estimated scf accuracy    <       0.00000112 Ry

     iteration # 18     ecut=    70.00 Ry     beta= 0.70
     Davidson diagonalization with overlap
     ethr =  5.37E-10,  avg # of iterations =  3.0

     negative rho (up, down):  6.052E-04 0.000E+00

     total cpu time spent up to now is     1389.4 secs

     End of self-consistent calculation

          k = 0.0000 0.0000 0.0000 ( 87777 PWs)   bands (ev):

   -19.8261 -18.9803 -18.9794 -18.8996 -18.8993 -18.8389 -18.7235 -17.1458
   -17.1454 -17.1230 -17.0757 -17.0754 -16.7906 -16.3075 -16.3075 -16.1705
   -16.1705 -16.1559 -15.7282 -14.3751 -14.3750 -14.1155 -14.0295 -14.0293
   -13.5537 -13.1521 -13.1520 -13.0723 -12.9167 -12.9166 -12.5969 -12.2560
   -12.2558 -11.7028 -11.5895 -11.5895 -11.1314 -10.8709 -10.8708  -9.5004
    -9.3529  -9.3529  -9.2384  -9.2281  -9.2280  -9.2164  -9.0302  -9.0301
    -9.0103  -9.0101  -8.8949  -8.6951  -8.6950  -7.9518  -7.8824  -7.8260
    -7.6372  -7.6372  -7.5241  -7.5241  -6.9228  -6.8407  -6.8402  -6.7950
    -6.7949  -6.7508  -6.7075  -6.7058  -6.6059  -6.6059  -6.5695  -6.5651
    -6.5647  -6.5292  -6.5176  -6.3756  -6.3755  -5.5980  -5.5979  -5.0176
    -4.9509  -4.8889  -4.8742  -4.8739  -4.7589  -4.7236  -4.7232  -4.5346
    -4.5340  -4.4569  -3.8481  -3.8478  -3.8038  -3.8036  -3.7821  -3.6282
    -3.6274  -3.3808  -1.8794  -1.8250  -1.8247  -1.7187  -1.7185  -1.1980
    -0.6309  -0.6309   0.9147   0.9506   0.9510   1.1087   1.1093   1.5077
     2.5574   2.7957   2.7965   2.8406   2.9454   2.9476   3.4226   3.4431
     3.6583   3.8025   3.8055   3.8267   3.9545   4.2352

     occupation numbers 
     1.0000   1.0000   1.0000   1.0000   1.0000   1.0000   1.0000   1.0000
     1.0000   1.0000   1.0000   1.0000   1.0000   1.0000   1.0000   1.0000
     1.0000   1.0000   1.0000   1.0000   1.0000   1.0000   1.0000   1.0000
     1.0000   1.0000   1.0000   1.0000   1.0000   1.0000   1.0000   1.0000
     1.0000   1.0000   1.0000   1.0000   1.0000   1.0000   1.0000   1.0000
     1.0000   1.0000   1.0000   1.0000   1.0000   1.0000   1.0000   1.0000
     1.0000   1.0000   1.0000   1.0000   1.0000   1.0000   1.0000   1.0000
     1.0000   1.0000   1.0000   1.0000   1.0000   1.0000   1.0000   1.0000
     1.0000   1.0000   1.0000   1.0000   1.0000   1.0000   1.0000   1.0000
     1.0000   1.0000   1.0000   1.0000   1.0000   1.0000   1.0000   1.0000
     1.0000   1.0000   1.0000   1.0000   1.0000   1.0000   1.0000   1.0000
     1.0000   1.0000   1.0000   1.0000   1.0000   1.0000   1.0000   1.0000
     1.0000   1.0000   1.0000   1.0000   1.0000   1.0000   1.0000   1.0000
     0.2506   0.2494   0.0000   0.0000   0.0000   0.0000   0.0000   0.0000
     0.0000   0.0000   0.0000   0.0000   0.0000   0.0000   0.0000   0.0000
     0.0000   0.0000   0.0000   0.0000   0.0000   0.0000

     the Fermi energy is    -0.6342 ev

!    total energy              =    -734.75265104 Ry
     Harris-Foulkes estimate   =    -734.75265114 Ry
     estimated scf accuracy    <       0.00000030 Ry

     The total energy is the sum of the following terms:

     one-electron contribution =   -2484.34495946 Ry
     hartree contribution      =    1297.92080959 Ry
     xc contribution           =    -275.91131130 Ry
     ewald contribution        =     727.58342363 Ry
     smearing contrib. (-TS)   =      -0.00061350 Ry

     convergence has been achieved in  18 iterations

     Writing output data file distance-3.5.save/

     init_run     :     56.08s CPU     57.72s WALL (       1 calls)
     electrons    :   1292.74s CPU   1330.64s WALL (       1 calls)

     Called by init_run:
     wfcinit      :     29.53s CPU     29.89s WALL (       1 calls)
     wfcinit:atom :      0.04s CPU      0.06s WALL (       1 calls)
     wfcinit:wfcr :     29.28s CPU     29.58s WALL (       1 calls)
     potinit      :     12.27s CPU     12.73s WALL (       1 calls)
     hinit0       :      7.48s CPU      7.50s WALL (       1 calls)

     Called by electrons:
     c_bands      :    764.12s CPU    768.51s WALL (      18 calls)
     sum_band     :    271.39s CPU    284.60s WALL (      18 calls)
     v_of_rho     :    148.24s CPU    156.59s WALL (      19 calls)
     v_h          :      1.81s CPU      1.85s WALL (      19 calls)
     v_xc         :    146.43s CPU    154.74s WALL (      19 calls)
     newd         :    115.12s CPU    128.09s WALL (      19 calls)
     mix_rho      :      4.96s CPU      5.04s WALL (      18 calls)

     Called by c_bands:
     init_us_2    :      2.27s CPU      2.31s WALL (      37 calls)
     cegterg      :    759.48s CPU    763.84s WALL (      18 calls)

     Called by sum_band:
     sum_band:bec :      0.01s CPU      0.01s WALL (      18 calls)
     addusdens    :    174.40s CPU    187.10s WALL (      18 calls)

     Called by *egterg:
     h_psi        :    412.91s CPU    416.13s WALL (      83 calls)
     s_psi        :    133.03s CPU    133.19s WALL (      83 calls)
     g_psi        :      0.33s CPU      0.33s WALL (      64 calls)
     cdiaghg      :      6.34s CPU      6.35s WALL (      82 calls)
     cegterg:over :     93.98s CPU     94.12s WALL (      64 calls)
     cegterg:upda :     54.34s CPU     54.64s WALL (      64 calls)
     cegterg:last :     39.49s CPU     39.51s WALL (      18 calls)

     Called by h_psi:
     h_psi:pot    :    412.41s CPU    415.12s WALL (      83 calls)
     h_psi:calbec :    136.35s CPU    136.46s WALL (      83 calls)
     vloc_psi     :    142.25s CPU    144.73s WALL (      83 calls)
     add_vuspsi   :    133.82s CPU    133.93s WALL (      83 calls)

     General routines
     calbec       :    193.78s CPU    193.93s WALL (     101 calls)
     fft          :     91.63s CPU     94.76s WALL (    1195 calls)
     ffts         :      0.89s CPU      0.91s WALL (      37 calls)
     fftw         :    148.25s CPU    150.77s WALL (   12808 calls)
     interpolate  :      2.22s CPU      2.27s WALL (      19 calls)

     Parallel routines
     fft_scatt_xy :     45.71s CPU     46.07s WALL (   14040 calls)
     fft_scatt_yz :     75.39s CPU     79.53s WALL (   14040 calls)

     PWSCF        :  22m30.13s CPU  23m 9.87s WALL


   This run was terminated on:  12:23:44  25Jul2022            

=------------------------------------------------------------------------------=
   JOB DONE.
=------------------------------------------------------------------------------=
