
     Program PWSCF v.6.4.1 starts on  8Sep2022 at  4:25:56 

     This program is part of the open-source Quantum ESPRESSO suite
     for quantum simulation of materials; please cite
         "P. Giannozzi et al., J. Phys.:Condens. Matter 21 395502 (2009);
         "P. Giannozzi et al., J. Phys.:Condens. Matter 29 465901 (2017);
          URL http://www.quantum-espresso.org", 
     in publications or presentations arising from this work. More details at
     http://www.quantum-espresso.org/quote

     Parallel version (MPI), running on     6 processors

     MPI processes distributed on     1 nodes
     R & G space division:  proc/nbgrp/npool/nimage =       6
     Reading input from distance-2.4.in

     Current dimensions of program PWSCF are:
     Max number of different atomic species (ntypx) = 10
     Max number of k-points (npk) =  40000
     Max angular momentum in pseudopotentials (lmaxx) =  3

     IMPORTANT: XC functional enforced from input :
     Exchange-correlation      = RVV10 ( 1  4 13  4 3 0)
     Any further DFT definition will be discarded
     Please, verify this is what you really want

               file H.pbe-rrkjus.UPF: wavefunction(s)  1S renormalized
               file Cu.pbe-dn-rrkjus_psl.1.0.0.UPF: wavefunction(s)  3D renormalized

     Subspace diagonalization in iterative solution of the eigenvalue problem:
     a serial algorithm will be used


     Parallelization info
     --------------------
     sticks:   dense  smooth     PW     G-vecs:    dense   smooth      PW
     Min        3051    1746    432               270999   117096   14629
     Max        3053    1747    437               271001   117099   14630
     Sum       18313   10477   2611              1626001   702581   87777



     bravais-lattice index     =            4
     lattice parameter (alat)  =      23.2937  a.u.
     unit-cell volume          =    8879.8548 (a.u.)^3
     number of atoms/cell      =           52
     number of atomic types    =            3
     number of electrons       =       209.00
     number of Kohn-Sham states=          126
     kinetic-energy cutoff     =      70.0000  Ry
     charge density cutoff     =     490.0000  Ry
     convergence threshold     =      1.0E-06
     mixing beta               =       0.7000
     number of iterations used =            8  plain     mixing
     Exchange-correlation      = RVV10 ( 1  4 13  4 3 0)

     celldm(1)=  23.293684  celldm(2)=   0.000000  celldm(3)=   0.811261
     celldm(4)=   0.000000  celldm(5)=   0.000000  celldm(6)=   0.000000

     crystal axes: (cart. coord. in units of alat)
               a(1) = (   1.000000   0.000000   0.000000 )  
               a(2) = (  -0.500000   0.866025   0.000000 )  
               a(3) = (   0.000000   0.000000   0.811261 )  

     reciprocal axes: (cart. coord. in units 2 pi/alat)
               b(1) = (  1.000000  0.577350 -0.000000 )  
               b(2) = (  0.000000  1.154701  0.000000 )  
               b(3) = (  0.000000 -0.000000  1.232649 )  


     PseudoPot. # 1 for H  read from file:
     /home/cristian/Escritorio/Proyecto_Grafeno/pseudopotenciales/H.pbe-rrkjus.UPF
     MD5 check sum: 7cc9d459525c9a0585f487a71c3c9563
     Pseudo is Ultrasoft, Zval =  1.0
     Generated by new atomic code, or converted to UPF format
     Using radial grid of 1061 points,  2 beta functions with: 
                l(1) =   0
                l(2) =   0
     Q(r) pseudized with 0 coefficients 


     PseudoPot. # 2 for C  read from file:
     /home/cristian/Escritorio/Proyecto_Grafeno/pseudopotenciales/C.pbe-n-rrkjus_psl.1.0.0.UPF
     MD5 check sum: 1fdd950c42eb37d8afe3dd2f8d12311e
     Pseudo is Ultrasoft + core correction, Zval =  4.0
     Generated using "atomic" code by A. Dal Corso v.6.3MaX
     Using radial grid of 1073 points,  4 beta functions with: 
                l(1) =   0
                l(2) =   0
                l(3) =   1
                l(4) =   1
     Q(r) pseudized with 0 coefficients 


     PseudoPot. # 3 for Cu read from file:
     /home/cristian/Escritorio/Proyecto_Grafeno/pseudopotenciales/Cu.pbe-dn-rrkjus_psl.1.0.0.UPF
     MD5 check sum: ba3d6c84e19846e79d48cdc68ff7152b
     Pseudo is Ultrasoft + core correction, Zval = 11.0
     Generated using "atomic" code by A. Dal Corso v.6.3
     Using radial grid of 1199 points,  6 beta functions with: 
                l(1) =   0
                l(2) =   0
                l(3) =   1
                l(4) =   1
                l(5) =   2
                l(6) =   2
     Q(r) pseudized with 0 coefficients 


     vdW kernel table read from file rVV10_kernel_table
     MD5 check sum: b8e2538accc0c0b3206b45ba4daaba6c

     atomic species   valence    mass     pseudopotential
        H              1.00     1.00794     H ( 1.00)
        C              4.00    12.01070     C ( 1.00)
        Cu            11.00    63.54600     Cu( 1.00)

     Starting magnetic structure 
     atomic species   magnetization
        H            0.500
        C            0.300
        Cu           0.800

     No symmetry found


                                    s                        frac. trans.

      isym =  1     identity                                     

 cryst.   s( 1) = (     1          0          0      )
                  (     0          1          0      )
                  (     0          0          1      )

 cart.    s( 1) = (  1.0000000  0.0000000  0.0000000 )
                  (  0.0000000  1.0000000  0.0000000 )
                  (  0.0000000  0.0000000  1.0000000 )


     point group C_1 (1)    
     there are  1 classes
     the character table:

       E    
A      1.00

     the symmetry operations in each class and the name of the first element:

     E        1
          identity                                               

   Cartesian axes

     site n.     atom                  positions (alat units)
         1           H   tau(   1) = (   0.2194937   0.4330127   0.1947027  )
         2           H   tau(   2) = (   0.2805063   0.4330127   0.1947027  )
         3           C   tau(   3) = (   0.0000000   0.0000000   0.0000000  )
         4           C   tau(   4) = (   0.0000000   0.1154701   0.0000000  )
         5           C   tau(   5) = (  -0.1000000   0.1732051   0.0000000  )
         6           C   tau(   6) = (  -0.1000000   0.2886751   0.0000000  )
         7           C   tau(   7) = (  -0.2000000   0.3464102   0.0000000  )
         8           C   tau(   8) = (  -0.2000000   0.4618802   0.0000000  )
         9           C   tau(   9) = (  -0.3000000   0.5196152   0.0000000  )
        10           C   tau(  10) = (  -0.3000000   0.6350853   0.0000000  )
        11           C   tau(  11) = (  -0.4000000   0.6928203   0.0000000  )
        12           C   tau(  12) = (  -0.4000000   0.8082904   0.0000000  )
        13           C   tau(  13) = (   0.2000000   0.0000000   0.0000000  )
        14           C   tau(  14) = (   0.2000000   0.1154701   0.0000000  )
        15           C   tau(  15) = (   0.1000000   0.1732051   0.0000000  )
        16           C   tau(  16) = (   0.1000000   0.2886751   0.0000000  )
        17           C   tau(  17) = (   0.0000000   0.3464102   0.0000000  )
        18           C   tau(  18) = (   0.0000000   0.4618802   0.0000000  )
        19           C   tau(  19) = (  -0.1000000   0.5196152   0.0000000  )
        20           C   tau(  20) = (  -0.1000000   0.6350853   0.0000000  )
        21           C   tau(  21) = (  -0.2000000   0.6928203   0.0000000  )
        22           C   tau(  22) = (  -0.2000000   0.8082904   0.0000000  )
        23           C   tau(  23) = (   0.4000000   0.0000000   0.0000000  )
        24           C   tau(  24) = (   0.4000000   0.1154701   0.0000000  )
        25           C   tau(  25) = (   0.3000000   0.1732051   0.0000000  )
        26           C   tau(  26) = (   0.3000000   0.2886751   0.0000000  )
        27           C   tau(  27) = (   0.2000000   0.3464102   0.0000000  )
        28           Cu  tau(  28) = (   0.2000000   0.4618802   0.0000000  )
        29           C   tau(  29) = (   0.1000000   0.5196152   0.0000000  )
        30           C   tau(  30) = (   0.1000000   0.6350853   0.0000000  )
        31           C   tau(  31) = (   0.0000000   0.6928203   0.0000000  )
        32           C   tau(  32) = (   0.0000000   0.8082904   0.0000000  )
        33           C   tau(  33) = (   0.6000000   0.0000000   0.0000000  )
        34           C   tau(  34) = (   0.6000000   0.1154701   0.0000000  )
        35           C   tau(  35) = (   0.5000000   0.1732051   0.0000000  )
        36           C   tau(  36) = (   0.5000000   0.2886751   0.0000000  )
        37           C   tau(  37) = (   0.4000000   0.3464102   0.0000000  )
        38           C   tau(  38) = (   0.4000000   0.4618802   0.0000000  )
        39           C   tau(  39) = (   0.3000000   0.5196152   0.0000000  )
        40           C   tau(  40) = (   0.3000000   0.6350853   0.0000000  )
        41           C   tau(  41) = (   0.2000000   0.6928203   0.0000000  )
        42           C   tau(  42) = (   0.2000000   0.8082904   0.0000000  )
        43           C   tau(  43) = (   0.8000000   0.0000000   0.0000000  )
        44           C   tau(  44) = (   0.8000000   0.1154701   0.0000000  )
        45           C   tau(  45) = (   0.7000000   0.1732051   0.0000000  )
        46           C   tau(  46) = (   0.7000000   0.2886751   0.0000000  )
        47           C   tau(  47) = (   0.6000000   0.3464102   0.0000000  )
        48           C   tau(  48) = (   0.6000000   0.4618802   0.0000000  )
        49           C   tau(  49) = (   0.5000000   0.5196152   0.0000000  )
        50           C   tau(  50) = (   0.5000000   0.6350853   0.0000000  )
        51           C   tau(  51) = (   0.4000000   0.6928203   0.0000000  )
        52           C   tau(  52) = (   0.4000000   0.8082904   0.0000000  )

   Crystallographic axes

     site n.     atom                  positions (cryst. coord.)
         1           H   tau(   1) = (  0.4694937  0.5000000  0.2400000  )
         2           H   tau(   2) = (  0.5305063  0.5000000  0.2400000  )
         3           C   tau(   3) = (  0.0000000  0.0000000  0.0000000  )
         4           C   tau(   4) = (  0.0666667  0.1333333  0.0000000  )
         5           C   tau(   5) = (  0.0000000  0.2000000  0.0000000  )
         6           C   tau(   6) = (  0.0666667  0.3333333  0.0000000  )
         7           C   tau(   7) = (  0.0000000  0.4000000  0.0000000  )
         8           C   tau(   8) = (  0.0666667  0.5333333  0.0000000  )
         9           C   tau(   9) = (  0.0000000  0.6000000  0.0000000  )
        10           C   tau(  10) = (  0.0666667  0.7333333  0.0000000  )
        11           C   tau(  11) = (  0.0000000  0.8000000  0.0000000  )
        12           C   tau(  12) = (  0.0666667  0.9333333  0.0000000  )
        13           C   tau(  13) = (  0.2000000  0.0000000  0.0000000  )
        14           C   tau(  14) = (  0.2666667  0.1333333  0.0000000  )
        15           C   tau(  15) = (  0.2000000  0.2000000  0.0000000  )
        16           C   tau(  16) = (  0.2666667  0.3333333  0.0000000  )
        17           C   tau(  17) = (  0.2000000  0.4000000  0.0000000  )
        18           C   tau(  18) = (  0.2666667  0.5333333  0.0000000  )
        19           C   tau(  19) = (  0.2000000  0.6000000  0.0000000  )
        20           C   tau(  20) = (  0.2666667  0.7333333  0.0000000  )
        21           C   tau(  21) = (  0.2000000  0.8000000  0.0000000  )
        22           C   tau(  22) = (  0.2666667  0.9333333  0.0000000  )
        23           C   tau(  23) = (  0.4000000  0.0000000  0.0000000  )
        24           C   tau(  24) = (  0.4666667  0.1333333  0.0000000  )
        25           C   tau(  25) = (  0.4000000  0.2000000  0.0000000  )
        26           C   tau(  26) = (  0.4666667  0.3333333  0.0000000  )
        27           C   tau(  27) = (  0.4000000  0.4000000  0.0000000  )
        28           Cu  tau(  28) = (  0.4666667  0.5333333  0.0000000  )
        29           C   tau(  29) = (  0.4000000  0.6000000  0.0000000  )
        30           C   tau(  30) = (  0.4666667  0.7333333  0.0000000  )
        31           C   tau(  31) = (  0.4000000  0.8000000  0.0000000  )
        32           C   tau(  32) = (  0.4666667  0.9333333  0.0000000  )
        33           C   tau(  33) = (  0.6000000  0.0000000  0.0000000  )
        34           C   tau(  34) = (  0.6666667  0.1333333  0.0000000  )
        35           C   tau(  35) = (  0.6000000  0.2000000  0.0000000  )
        36           C   tau(  36) = (  0.6666667  0.3333333  0.0000000  )
        37           C   tau(  37) = (  0.6000000  0.4000000  0.0000000  )
        38           C   tau(  38) = (  0.6666667  0.5333333  0.0000000  )
        39           C   tau(  39) = (  0.6000000  0.6000000  0.0000000  )
        40           C   tau(  40) = (  0.6666667  0.7333333  0.0000000  )
        41           C   tau(  41) = (  0.6000000  0.8000000  0.0000000  )
        42           C   tau(  42) = (  0.6666667  0.9333333  0.0000000  )
        43           C   tau(  43) = (  0.8000000  0.0000000  0.0000000  )
        44           C   tau(  44) = (  0.8666667  0.1333333  0.0000000  )
        45           C   tau(  45) = (  0.8000000  0.2000000  0.0000000  )
        46           C   tau(  46) = (  0.8666667  0.3333333  0.0000000  )
        47           C   tau(  47) = (  0.8000000  0.4000000  0.0000000  )
        48           C   tau(  48) = (  0.8666667  0.5333333  0.0000000  )
        49           C   tau(  49) = (  0.8000000  0.6000000  0.0000000  )
        50           C   tau(  50) = (  0.8666667  0.7333333  0.0000000  )
        51           C   tau(  51) = (  0.8000000  0.8000000  0.0000000  )
        52           C   tau(  52) = (  0.8666667  0.9333333  0.0000000  )

     number of k points=     1  Marzari-Vanderbilt smearing, width (Ry)=  0.0010
                       cart. coord. in units 2pi/alat
        k(    1) = (   0.0000000   0.0000000   0.0000000), wk =   1.0000000

                       cryst. coord.
        k(    1) = (   0.0000000   0.0000000   0.0000000), wk =   1.0000000

     Dense  grid:  1626001 G-vectors     FFT dimensions: ( 180, 180, 135)

     Smooth grid:   702581 G-vectors     FFT dimensions: ( 125, 125, 108)

     Dynamical RAM for                 wfc:      28.14 MB

     Dynamical RAM for     wfc (w. buffer):      84.42 MB

     Dynamical RAM for           str. fact:      12.41 MB

     Dynamical RAM for           local pot:       0.00 MB

     Dynamical RAM for          nlocal pot:      92.46 MB

     Dynamical RAM for                qrad:      19.73 MB

     Dynamical RAM for          rho,v,vnew:      58.92 MB

     Dynamical RAM for               rhoin:      19.64 MB

     Dynamical RAM for            rho*nmix:     132.32 MB

     Dynamical RAM for           G-vectors:      16.40 MB

     Dynamical RAM for          h,s,v(r/c):      11.63 MB

     Dynamical RAM for          <psi|beta>:       0.80 MB

     Dynamical RAM for                 psi:     112.56 MB

     Dynamical RAM for                hpsi:     112.56 MB

     Dynamical RAM for                spsi:     112.56 MB

     Dynamical RAM for      wfcinit/wfcrot:      93.45 MB

     Dynamical RAM for           addusdens:     975.89 MB

     Estimated static dynamical RAM per process >     486.96 MB

     Estimated max dynamical RAM per process >       1.43 GB

     Estimated total dynamical RAM >       8.57 GB
     Generating pointlists ...
     new r_m :   0.0252 (alat units)  0.5862 (a.u.) for type    1
     new r_m :   0.0476 (alat units)  1.1095 (a.u.) for type    2
     new r_m :   0.0476 (alat units)  1.1095 (a.u.) for type    3

     Check: negative core charge=   -0.000002

     Initial potential from superposition of free atoms

     starting charge  208.80532, renormalised to  209.00000

     negative rho (up, down):  6.833E-05 1.216E-02


---------------------------------------------------------------------------------
Carrying out rVV10 run using the following parameters:
Nqs =      20    Nr_points =    1024   r_max =   100.000
b_value =  6.30000    beta =  0.00901
     q_mesh =  0.00010000  0.00030000  0.00058939  0.00100810
               0.00161396  0.00249058  0.00375900  0.00559430
               0.00824984  0.01209221  0.01765183  0.02569619
               0.03733578  0.05417739  0.07854596  0.11380545
               0.16482331  0.23864234  0.34545298  0.50000000

Gradients computed in Reciprocal space

---------------------------------------------------------------------------------


     Starting wfcs are  207 randomized atomic wfcs

     total cpu time spent up to now is       75.1 secs

     Self-consistent Calculation

     iteration #  1     ecut=    70.00 Ry     beta= 0.70
     Davidson diagonalization with overlap
     ethr =  1.00E-02,  avg # of iterations =  7.0

     negative rho (up, down):  1.672E-04 1.191E-02

     total cpu time spent up to now is      206.2 secs

     total energy              =    -731.32477046 Ry
     Harris-Foulkes estimate   =    -734.80668947 Ry
     estimated scf accuracy    <      10.58575523 Ry

     total magnetization       =     3.00 Bohr mag/cell
     absolute magnetization    =     4.29 Bohr mag/cell

     iteration #  2     ecut=    70.00 Ry     beta= 0.70
     Davidson diagonalization with overlap
     ethr =  5.06E-03,  avg # of iterations =  5.0

     negative rho (up, down):  2.074E-04 1.016E-02

     total cpu time spent up to now is      323.8 secs

     total energy              =    -731.46090011 Ry
     Harris-Foulkes estimate   =    -737.49677604 Ry
     estimated scf accuracy    <      12.69264496 Ry

     total magnetization       =     3.00 Bohr mag/cell
     absolute magnetization    =     3.12 Bohr mag/cell

     iteration #  3     ecut=    70.00 Ry     beta= 0.70
     Davidson diagonalization with overlap
     ethr =  5.06E-03,  avg # of iterations =  3.5

     negative rho (up, down):  2.626E-04 8.105E-03

     total cpu time spent up to now is      424.1 secs

     total energy              =    -731.23727246 Ry
     Harris-Foulkes estimate   =    -735.88944770 Ry
     estimated scf accuracy    <      16.11592563 Ry

     total magnetization       =     3.00 Bohr mag/cell
     absolute magnetization    =     3.50 Bohr mag/cell

     iteration #  4     ecut=    70.00 Ry     beta= 0.70
     Davidson diagonalization with overlap
     ethr =  5.06E-03,  avg # of iterations =  3.0

     negative rho (up, down):  2.981E-04 8.704E-03

     total cpu time spent up to now is      529.6 secs

     total energy              =    -734.02616892 Ry
     Harris-Foulkes estimate   =    -735.83716306 Ry
     estimated scf accuracy    <       9.45356358 Ry

     total magnetization       =     3.00 Bohr mag/cell
     absolute magnetization    =     3.11 Bohr mag/cell

     iteration #  5     ecut=    70.00 Ry     beta= 0.70
     Davidson diagonalization with overlap
     ethr =  4.52E-03,  avg # of iterations =  2.0

     negative rho (up, down):  3.455E-04 1.269E-02

     total cpu time spent up to now is      622.1 secs

     total energy              =    -734.62461680 Ry
     Harris-Foulkes estimate   =    -734.86182715 Ry
     estimated scf accuracy    <       0.84994995 Ry

     total magnetization       =     1.09 Bohr mag/cell
     absolute magnetization    =     1.36 Bohr mag/cell

     iteration #  6     ecut=    70.00 Ry     beta= 0.70
     Davidson diagonalization with overlap
     ethr =  4.07E-04,  avg # of iterations =  8.5

     negative rho (up, down):  4.179E-04 1.488E-02

     total cpu time spent up to now is      727.3 secs

     total energy              =    -734.68633744 Ry
     Harris-Foulkes estimate   =    -734.79128068 Ry
     estimated scf accuracy    <       0.34490448 Ry

     total magnetization       =     1.00 Bohr mag/cell
     absolute magnetization    =     1.22 Bohr mag/cell

     iteration #  7     ecut=    70.00 Ry     beta= 0.70
     Davidson diagonalization with overlap
     ethr =  1.65E-04,  avg # of iterations =  5.5

     negative rho (up, down):  6.152E-04 2.698E-03

     total cpu time spent up to now is      825.7 secs

     total energy              =    -734.73237855 Ry
     Harris-Foulkes estimate   =    -734.74899931 Ry
     estimated scf accuracy    <       0.06741568 Ry

     total magnetization       =     1.00 Bohr mag/cell
     absolute magnetization    =     1.20 Bohr mag/cell

     iteration #  8     ecut=    70.00 Ry     beta= 0.70
     Davidson diagonalization with overlap
     ethr =  3.23E-05,  avg # of iterations =  6.5

     negative rho (up, down):  6.969E-04 7.256E-03

     total cpu time spent up to now is      933.8 secs

     total energy              =    -734.73706726 Ry
     Harris-Foulkes estimate   =    -734.75039066 Ry
     estimated scf accuracy    <       0.06271881 Ry

     total magnetization       =     1.00 Bohr mag/cell
     absolute magnetization    =     1.14 Bohr mag/cell

     iteration #  9     ecut=    70.00 Ry     beta= 0.70
     Davidson diagonalization with overlap
     ethr =  3.00E-05,  avg # of iterations =  6.5

     negative rho (up, down):  7.348E-04 8.458E-03

     total cpu time spent up to now is     1029.3 secs

     total energy              =    -734.74162241 Ry
     Harris-Foulkes estimate   =    -734.74453953 Ry
     estimated scf accuracy    <       0.01833451 Ry

     total magnetization       =     1.00 Bohr mag/cell
     absolute magnetization    =     1.12 Bohr mag/cell

     iteration # 10     ecut=    70.00 Ry     beta= 0.70
     Davidson diagonalization with overlap
     ethr =  8.77E-06,  avg # of iterations =  2.0

     negative rho (up, down):  7.040E-04 6.177E-03

     total cpu time spent up to now is     1124.9 secs

     total energy              =    -734.74267614 Ry
     Harris-Foulkes estimate   =    -734.74476214 Ry
     estimated scf accuracy    <       0.02599234 Ry

     total magnetization       =     1.00 Bohr mag/cell
     absolute magnetization    =     1.11 Bohr mag/cell

     iteration # 11     ecut=    70.00 Ry     beta= 0.70
     Davidson diagonalization with overlap
     ethr =  8.77E-06,  avg # of iterations =  1.0

     negative rho (up, down):  7.002E-04 5.563E-03

     total cpu time spent up to now is     1217.1 secs

     total energy              =    -734.74332767 Ry
     Harris-Foulkes estimate   =    -734.74408237 Ry
     estimated scf accuracy    <       0.01797218 Ry

     total magnetization       =     1.00 Bohr mag/cell
     absolute magnetization    =     1.10 Bohr mag/cell

     iteration # 12     ecut=    70.00 Ry     beta= 0.70
     Davidson diagonalization with overlap
     ethr =  8.60E-06,  avg # of iterations =  1.0

     negative rho (up, down):  6.670E-04 2.634E-03

     total cpu time spent up to now is     1309.7 secs

     total energy              =    -734.74357205 Ry
     Harris-Foulkes estimate   =    -734.74379590 Ry
     estimated scf accuracy    <       0.00621154 Ry

     total magnetization       =     1.00 Bohr mag/cell
     absolute magnetization    =     1.09 Bohr mag/cell

     iteration # 13     ecut=    70.00 Ry     beta= 0.70
     Davidson diagonalization with overlap
     ethr =  2.97E-06,  avg # of iterations =  1.0

     negative rho (up, down):  6.641E-04 2.123E-03

     total cpu time spent up to now is     1402.0 secs

     total energy              =    -734.74362586 Ry
     Harris-Foulkes estimate   =    -734.74371390 Ry
     estimated scf accuracy    <       0.00203192 Ry

     total magnetization       =     1.00 Bohr mag/cell
     absolute magnetization    =     1.08 Bohr mag/cell

     iteration # 14     ecut=    70.00 Ry     beta= 0.70
     Davidson diagonalization with overlap
     ethr =  9.72E-07,  avg # of iterations =  1.0

     negative rho (up, down):  6.600E-04 1.798E-03

     total cpu time spent up to now is     1494.3 secs

     total energy              =    -734.74368743 Ry
     Harris-Foulkes estimate   =    -734.74369648 Ry
     estimated scf accuracy    <       0.00019616 Ry

     total magnetization       =     1.00 Bohr mag/cell
     absolute magnetization    =     1.08 Bohr mag/cell

     iteration # 15     ecut=    70.00 Ry     beta= 0.70
     Davidson diagonalization with overlap
     ethr =  9.39E-08,  avg # of iterations =  2.5

     negative rho (up, down):  6.571E-04 1.777E-03

     total cpu time spent up to now is     1588.1 secs

     total energy              =    -734.74370601 Ry
     Harris-Foulkes estimate   =    -734.74370575 Ry
     estimated scf accuracy    <       0.00015401 Ry

     total magnetization       =     1.00 Bohr mag/cell
     absolute magnetization    =     1.07 Bohr mag/cell

     iteration # 16     ecut=    70.00 Ry     beta= 0.70
     Davidson diagonalization with overlap
     ethr =  7.37E-08,  avg # of iterations =  1.0

     negative rho (up, down):  6.561E-04 1.811E-03

     total cpu time spent up to now is     1680.0 secs

     total energy              =    -734.74371453 Ry
     Harris-Foulkes estimate   =    -734.74371463 Ry
     estimated scf accuracy    <       0.00033223 Ry

     total magnetization       =     1.00 Bohr mag/cell
     absolute magnetization    =     1.07 Bohr mag/cell

     iteration # 17     ecut=    70.00 Ry     beta= 0.70
     Davidson diagonalization with overlap
     ethr =  7.37E-08,  avg # of iterations =  1.0

     negative rho (up, down):  6.558E-04 1.834E-03

     total cpu time spent up to now is     1771.8 secs

     total energy              =    -734.74371792 Ry
     Harris-Foulkes estimate   =    -734.74371746 Ry
     estimated scf accuracy    <       0.00027416 Ry

     total magnetization       =     1.00 Bohr mag/cell
     absolute magnetization    =     1.07 Bohr mag/cell

     iteration # 18     ecut=    70.00 Ry     beta= 0.70
     Davidson diagonalization with overlap
     ethr =  7.37E-08,  avg # of iterations =  1.0

     negative rho (up, down):  6.559E-04 1.821E-03

     total cpu time spent up to now is     1863.8 secs

     total energy              =    -734.74371781 Ry
     Harris-Foulkes estimate   =    -734.74371895 Ry
     estimated scf accuracy    <       0.00022368 Ry

     total magnetization       =     1.00 Bohr mag/cell
     absolute magnetization    =     1.07 Bohr mag/cell

     iteration # 19     ecut=    70.00 Ry     beta= 0.70
     Davidson diagonalization with overlap
     ethr =  7.37E-08,  avg # of iterations =  1.5

     negative rho (up, down):  6.564E-04 1.785E-03

     total cpu time spent up to now is     1955.8 secs

     total energy              =    -734.74371663 Ry
     Harris-Foulkes estimate   =    -734.74372056 Ry
     estimated scf accuracy    <       0.00010192 Ry

     total magnetization       =     1.00 Bohr mag/cell
     absolute magnetization    =     1.07 Bohr mag/cell

     iteration # 20     ecut=    70.00 Ry     beta= 0.70
     Davidson diagonalization with overlap
     ethr =  4.88E-08,  avg # of iterations =  2.5

     negative rho (up, down):  6.571E-04 1.781E-03

     total cpu time spent up to now is     2052.3 secs

     total energy              =    -734.74372432 Ry
     Harris-Foulkes estimate   =    -734.74372890 Ry
     estimated scf accuracy    <       0.00023669 Ry

     total magnetization       =     1.00 Bohr mag/cell
     absolute magnetization    =     1.07 Bohr mag/cell

     iteration # 21     ecut=    70.00 Ry     beta= 0.70
     Davidson diagonalization with overlap
     ethr =  4.88E-08,  avg # of iterations =  1.0

     negative rho (up, down):  6.577E-04 1.766E-03

     total cpu time spent up to now is     2144.5 secs

     total energy              =    -734.74371890 Ry
     Harris-Foulkes estimate   =    -734.74372689 Ry
     estimated scf accuracy    <       0.00009192 Ry

     total magnetization       =     1.00 Bohr mag/cell
     absolute magnetization    =     1.07 Bohr mag/cell

     iteration # 22     ecut=    70.00 Ry     beta= 0.70
     Davidson diagonalization with overlap
     ethr =  4.40E-08,  avg # of iterations =  2.5

     negative rho (up, down):  6.579E-04 1.766E-03

     Magnetic moment per site:
     atom:    1    charge:    0.2126    magn:    0.0001    constr:    0.0000
     atom:    2    charge:    0.2124    magn:   -0.0001    constr:    0.0000
     atom:    3    charge:    1.7159    magn:    0.0020    constr:    0.0000
     atom:    4    charge:    1.7154    magn:    0.0024    constr:    0.0000
     atom:    5    charge:    1.7170    magn:   -0.0000    constr:    0.0000
     atom:    6    charge:    1.7146    magn:    0.0000    constr:    0.0000
     atom:    7    charge:    1.7171    magn:   -0.0001    constr:    0.0000
     atom:    8    charge:    1.7153    magn:    0.0018    constr:    0.0000
     atom:    9    charge:    1.7158    magn:    0.0015    constr:    0.0000
     atom:   10    charge:    1.7170    magn:   -0.0009    constr:    0.0000
     atom:   11    charge:    1.7160    magn:    0.0006    constr:    0.0000
     atom:   12    charge:    1.7170    magn:   -0.0008    constr:    0.0000
     atom:   13    charge:    1.7159    magn:    0.0005    constr:    0.0000
     atom:   14    charge:    1.7168    magn:   -0.0010    constr:    0.0000
     atom:   15    charge:    1.7133    magn:    0.0085    constr:    0.0000
     atom:   16    charge:    1.7115    magn:    0.0168    constr:    0.0000
     atom:   17    charge:    1.7214    magn:    0.0021    constr:    0.0000
     atom:   18    charge:    1.7116    magn:    0.0159    constr:    0.0000
     atom:   19    charge:    1.7129    magn:    0.0061    constr:    0.0000
     atom:   20    charge:    1.7169    magn:   -0.0008    constr:    0.0000
     atom:   21    charge:    1.7160    magn:    0.0004    constr:    0.0000
     atom:   22    charge:    1.7170    magn:   -0.0009    constr:    0.0000
     atom:   23    charge:    1.7157    magn:    0.0012    constr:    0.0000
     atom:   24    charge:    1.7151    magn:    0.0012    constr:    0.0000
     atom:   25    charge:    1.7126    magn:    0.0064    constr:    0.0000
     atom:   26    charge:    1.7100    magn:    0.0091    constr:    0.0000
     atom:   27    charge:    1.8196    magn:    0.0822    constr:    0.0000
     atom:   28    charge:    7.0304    magn:    0.1544    constr:    0.0000
     atom:   29    charge:    1.8142    magn:    0.0592    constr:    0.0000
     atom:   30    charge:    1.7109    magn:    0.0130    constr:    0.0000
     atom:   31    charge:    1.7127    magn:    0.0053    constr:    0.0000
     atom:   32    charge:    1.7152    magn:    0.0013    constr:    0.0000
     atom:   33    charge:    1.7170    magn:   -0.0000    constr:    0.0000
     atom:   34    charge:    1.7152    magn:   -0.0001    constr:    0.0000
     atom:   35    charge:    1.7169    magn:    0.0001    constr:    0.0000
     atom:   36    charge:    1.7147    magn:   -0.0002    constr:    0.0000
     atom:   37    charge:    1.7214    magn:    0.0040    constr:    0.0000
     atom:   38    charge:    1.7102    magn:    0.0097    constr:    0.0000
     atom:   39    charge:    1.8227    magn:    0.0963    constr:    0.0000
     atom:   40    charge:    1.7108    magn:    0.0144    constr:    0.0000
     atom:   41    charge:    1.7215    magn:    0.0029    constr:    0.0000
     atom:   42    charge:    1.7145    magn:   -0.0001    constr:    0.0000
     atom:   43    charge:    1.7170    magn:    0.0001    constr:    0.0000
     atom:   44    charge:    1.7152    magn:    0.0000    constr:    0.0000
     atom:   45    charge:    1.7212    magn:   -0.0007    constr:    0.0000
     atom:   46    charge:    1.7152    magn:   -0.0000    constr:    0.0000
     atom:   47    charge:    1.7169    magn:    0.0001    constr:    0.0000
     atom:   48    charge:    1.7153    magn:    0.0016    constr:    0.0000
     atom:   49    charge:    1.7130    magn:    0.0079    constr:    0.0000
     atom:   50    charge:    1.7169    magn:   -0.0012    constr:    0.0000
     atom:   51    charge:    1.7134    magn:    0.0092    constr:    0.0000
     atom:   52    charge:    1.7154    magn:    0.0023    constr:    0.0000

     total cpu time spent up to now is     2240.7 secs

     End of self-consistent calculation

 ------ SPIN UP ------------


          k = 0.0000 0.0000 0.0000 ( 87777 PWs)   bands (ev):

   -19.8388 -19.0045 -18.9877 -18.9034 -18.9005 -18.8400 -18.7614 -17.1661
   -17.1644 -17.1301 -17.0913 -17.0804 -16.8070 -16.3277 -16.3218 -16.1839
   -16.1775 -16.1586 -15.7663 -14.4223 -14.4136 -14.1266 -14.0342 -14.0304
   -13.5740 -13.1645 -13.1638 -13.0780 -12.9382 -12.9309 -12.6289 -12.3084
   -12.3064 -11.7122 -11.6071 -11.6055 -11.1807 -10.9312 -10.9241  -9.5193
    -9.3632  -9.3609  -9.2409  -9.2315  -9.2314  -9.2217  -9.1303  -9.0833
    -9.0579  -9.0548  -8.9563  -8.7161  -8.7109  -8.0409  -7.8934  -7.8478
    -7.6624  -7.6571  -7.5366  -7.5305  -7.3977  -6.8759  -6.8433  -6.8371
    -6.8129  -6.7791  -6.7222  -6.7059  -6.6198  -6.6130  -6.5732  -6.5673
    -6.5632  -6.5199  -6.3967  -6.3894  -6.2879  -5.6109  -5.6094  -5.0262
    -4.9549  -4.8834  -4.8818  -4.8408  -4.7618  -4.7246  -4.7219  -4.5394
    -4.5364  -4.4037  -3.8548  -3.8483  -3.8168  -3.8139  -3.7811  -3.6377
    -3.6369  -3.3367  -1.8828  -1.8267  -1.8235  -1.7359  -1.7309  -1.1963
    -0.8280  -0.8232   0.9110   0.9436   0.9503   1.0931   1.0949   1.5071
     2.4886   2.7877   2.7934   2.8403   2.9177   2.9291   3.3607   3.4767
     3.6182   3.7291   3.7308   3.7526   3.9243   4.2331

     occupation numbers 
     1.0000   1.0000   1.0000   1.0000   1.0000   1.0000   1.0000   1.0000
     1.0000   1.0000   1.0000   1.0000   1.0000   1.0000   1.0000   1.0000
     1.0000   1.0000   1.0000   1.0000   1.0000   1.0000   1.0000   1.0000
     1.0000   1.0000   1.0000   1.0000   1.0000   1.0000   1.0000   1.0000
     1.0000   1.0000   1.0000   1.0000   1.0000   1.0000   1.0000   1.0000
     1.0000   1.0000   1.0000   1.0000   1.0000   1.0000   1.0000   1.0000
     1.0000   1.0000   1.0000   1.0000   1.0000   1.0000   1.0000   1.0000
     1.0000   1.0000   1.0000   1.0000   1.0000   1.0000   1.0000   1.0000
     1.0000   1.0000   1.0000   1.0000   1.0000   1.0000   1.0000   1.0000
     1.0000   1.0000   1.0000   1.0000   1.0000   1.0000   1.0000   1.0000
     1.0000   1.0000   1.0000   1.0000   1.0000   1.0000   1.0000   1.0000
     1.0000   1.0000   1.0000   1.0000   1.0000   1.0000   1.0000   1.0000
     1.0000   1.0000   1.0000   1.0000   1.0000   1.0000   1.0000   1.0000
     0.6271   0.3729   0.0000   0.0000   0.0000   0.0000   0.0000   0.0000
     0.0000   0.0000   0.0000   0.0000   0.0000   0.0000   0.0000   0.0000
     0.0000   0.0000   0.0000   0.0000   0.0000   0.0000

 ------ SPIN DOWN ----------


          k = 0.0000 0.0000 0.0000 ( 87777 PWs)   bands (ev):

   -19.8140 -18.9749 -18.9535 -18.8965 -18.8933 -18.8369 -18.6867 -17.1278
   -17.1267 -17.1134 -17.0726 -17.0543 -16.7737 -16.2918 -16.2838 -16.1655
   -16.1524 -16.1513 -15.6912 -14.3295 -14.3277 -14.1026 -14.0263 -14.0222
   -13.5318 -13.1391 -13.1387 -13.0650 -12.9058 -12.8902 -12.5652 -12.2025
   -12.1922 -11.6927 -11.5763 -11.5671 -11.0775 -10.8000 -10.7927  -9.4787
    -9.3447  -9.3405  -9.2331  -9.2228  -9.2224  -9.2096  -9.0045  -8.9992
    -8.9730  -8.8979  -8.8300  -8.6783  -8.6650  -8.0230  -7.8691  -7.8259
    -7.6124  -7.6092  -7.5211  -7.5112  -7.3759  -6.8425  -6.8402  -6.8268
    -6.7792  -6.7723  -6.7088  -6.6921  -6.5978  -6.5914  -6.5664  -6.5624
    -6.5592  -6.5135  -6.3553  -6.3482  -6.2607  -5.5861  -5.5793  -5.0071
    -4.9450  -4.8633  -4.8616  -4.7569  -4.7307  -4.7236  -4.6444  -4.5281
    -4.5263  -4.3775  -3.8509  -3.8440  -3.7908  -3.7891  -3.7819  -3.6204
    -3.6180  -3.2956  -1.8790  -1.8250  -1.8218  -1.7132  -1.7093  -1.1572
    -0.4827  -0.3685   0.9142   0.9467   0.9534   1.1145   1.1201   1.5199
     2.4887   2.7897   2.7959   2.8410   2.9428   2.9575   3.3678   3.4837
     3.6200   3.7283   3.7298   3.7514   3.9313   4.2325

     occupation numbers 
     1.0000   1.0000   1.0000   1.0000   1.0000   1.0000   1.0000   1.0000
     1.0000   1.0000   1.0000   1.0000   1.0000   1.0000   1.0000   1.0000
     1.0000   1.0000   1.0000   1.0000   1.0000   1.0000   1.0000   1.0000
     1.0000   1.0000   1.0000   1.0000   1.0000   1.0000   1.0000   1.0000
     1.0000   1.0000   1.0000   1.0000   1.0000   1.0000   1.0000   1.0000
     1.0000   1.0000   1.0000   1.0000   1.0000   1.0000   1.0000   1.0000
     1.0000   1.0000   1.0000   1.0000   1.0000   1.0000   1.0000   1.0000
     1.0000   1.0000   1.0000   1.0000   1.0000   1.0000   1.0000   1.0000
     1.0000   1.0000   1.0000   1.0000   1.0000   1.0000   1.0000   1.0000
     1.0000   1.0000   1.0000   1.0000   1.0000   1.0000   1.0000   1.0000
     1.0000   1.0000   1.0000   1.0000   1.0000   1.0000   1.0000   1.0000
     1.0000   1.0000   1.0000   1.0000   1.0000   1.0000   1.0000   1.0000
     1.0000   1.0000   1.0000   1.0000   1.0000   1.0000   1.0000   1.0000
     0.0000   0.0000   0.0000   0.0000   0.0000   0.0000   0.0000   0.0000
     0.0000   0.0000   0.0000   0.0000   0.0000   0.0000   0.0000   0.0000
     0.0000   0.0000   0.0000   0.0000   0.0000   0.0000

     the Fermi energy is    -0.8238 ev

!    total energy              =    -734.74372685 Ry
     Harris-Foulkes estimate   =    -734.74372713 Ry
     estimated scf accuracy    <       0.00000075 Ry

     The total energy is the sum of the following terms:

     one-electron contribution =   -2505.28897288 Ry
     hartree contribution      =    1308.42567383 Ry
     xc contribution           =    -275.97178869 Ry
     ewald contribution        =     738.09166699 Ry
     smearing contrib. (-TS)   =      -0.00030609 Ry

     total magnetization       =     1.00 Bohr mag/cell
     absolute magnetization    =     1.07 Bohr mag/cell

     convergence has been achieved in  22 iterations

     Writing output data file cobre-bridge2-distance-2.4.save/

     init_run     :     72.68s CPU     73.96s WALL (       1 calls)
     electrons    :   2127.10s CPU   2165.75s WALL (       1 calls)

     Called by init_run:
     wfcinit      :     42.32s CPU     42.56s WALL (       1 calls)
     wfcinit:atom :      0.06s CPU      0.09s WALL (       2 calls)
     wfcinit:wfcr :     41.91s CPU     42.04s WALL (       2 calls)
     potinit      :     12.58s CPU     13.00s WALL (       1 calls)
     hinit0       :      9.18s CPU      9.21s WALL (       1 calls)

     Called by electrons:
     c_bands      :   1324.11s CPU   1330.64s WALL (      22 calls)
     sum_band     :    465.72s CPU    478.65s WALL (      22 calls)
     v_of_rho     :    166.99s CPU    174.47s WALL (      23 calls)
     v_h          :      1.72s CPU      1.78s WALL (      23 calls)
     v_xc         :    165.27s CPU    172.69s WALL (      23 calls)
     newd         :    169.79s CPU    182.09s WALL (      23 calls)
     mix_rho      :      9.74s CPU      9.93s WALL (      22 calls)

     Called by c_bands:
     init_us_2    :      4.16s CPU      4.22s WALL (      90 calls)
     cegterg      :   1313.15s CPU   1319.65s WALL (      44 calls)

     Called by sum_band:
     sum_band:bec :      0.03s CPU      0.03s WALL (      44 calls)
     addusdens    :    288.69s CPU    300.82s WALL (      22 calls)

     Called by *egterg:
     h_psi        :    707.96s CPU    712.66s WALL (     179 calls)
     s_psi        :    239.35s CPU    239.44s WALL (     179 calls)
     g_psi        :      0.73s CPU      0.73s WALL (     133 calls)
     cdiaghg      :     11.42s CPU     11.42s WALL (     177 calls)
     cegterg:over :    155.32s CPU    155.37s WALL (     133 calls)
     cegterg:upda :     89.72s CPU     90.21s WALL (     133 calls)
     cegterg:last :     69.98s CPU     69.99s WALL (      44 calls)

     Called by h_psi:
     h_psi:pot    :    707.20s CPU    711.02s WALL (     179 calls)
     h_psi:calbec :    238.62s CPU    238.69s WALL (     179 calls)
     vloc_psi     :    229.28s CPU    232.97s WALL (     179 calls)
     add_vuspsi   :    239.30s CPU    239.36s WALL (     179 calls)

     General routines
     calbec       :    344.91s CPU    345.00s WALL (     223 calls)
     fft          :    101.81s CPU    104.78s WALL (    1719 calls)
     ffts         :      1.60s CPU      1.65s WALL (      90 calls)
     fftw         :    245.58s CPU    249.52s WALL (   30500 calls)
     interpolate  :      3.95s CPU      4.05s WALL (      46 calls)

     Parallel routines
     fft_scatt_xy :     60.69s CPU     61.41s WALL (   32309 calls)
     fft_scatt_yz :    122.26s CPU    127.45s WALL (   32309 calls)

     PWSCF        :  36m41.05s CPU  37m21.34s WALL


   This run was terminated on:   5: 3:17   8Sep2022            

=------------------------------------------------------------------------------=
   JOB DONE.
=------------------------------------------------------------------------------=
