
     Program PWSCF v.6.4.1 starts on  9Mar2022 at 23:48:41 

     This program is part of the open-source Quantum ESPRESSO suite
     for quantum simulation of materials; please cite
         "P. Giannozzi et al., J. Phys.:Condens. Matter 21 395502 (2009);
         "P. Giannozzi et al., J. Phys.:Condens. Matter 29 465901 (2017);
          URL http://www.quantum-espresso.org", 
     in publications or presentations arising from this work. More details at
     http://www.quantum-espresso.org/quote

     Parallel version (MPI), running on     6 processors

     MPI processes distributed on     1 nodes
     R & G space division:  proc/nbgrp/npool/nimage =       6
     Reading input from degauss-0.09.in

     Current dimensions of program PWSCF are:
     Max number of different atomic species (ntypx) = 10
     Max number of k-points (npk) =  40000
     Max angular momentum in pseudopotentials (lmaxx) =  3
               file Cr.pbe-spn-rrkjus_psl.1.0.0.UPF: wavefunction(s)  3P renormalized
               file Cr.pbe-spn-rrkjus_psl.1.0.0.UPF: wavefunction(s)  3P renormalized

     Subspace diagonalization in iterative solution of the eigenvalue problem:
     a serial algorithm will be used

     Message from routine setup:
     DEPRECATED: symmetry with ibrav=0, use correct ibrav instead

     Parallelization info
     --------------------
     sticks:   dense  smooth     PW     G-vecs:    dense   smooth      PW
     Min         320     129     38                10576     2689     433
     Max         321     131     40                10577     2690     434
     Sum        1925     777    233                63461    16135    2601



     bravais-lattice index     =            0
     lattice parameter (alat)  =       5.4991  a.u.
     unit-cell volume          =     166.2936 (a.u.)^3
     number of atoms/cell      =            2
     number of atomic types    =            2
     number of electrons       =        28.00
     number of Kohn-Sham states=           18
     kinetic-energy cutoff     =      80.0000  Ry
     charge density cutoff     =     800.0000  Ry
     convergence threshold     =      1.0E-06
     mixing beta               =       0.7000
     number of iterations used =            8  plain     mixing
     Exchange-correlation      = PBE ( 1  4  3  4 0 0)

     celldm(1)=   5.499103  celldm(2)=   0.000000  celldm(3)=   0.000000
     celldm(4)=   0.000000  celldm(5)=   0.000000  celldm(6)=   0.000000

     crystal axes: (cart. coord. in units of alat)
               a(1) = (   1.000000   0.000000   0.000000 )  
               a(2) = (   0.000000   1.000000   0.000000 )  
               a(3) = (   0.000000   0.000000   1.000000 )  

     reciprocal axes: (cart. coord. in units 2 pi/alat)
               b(1) = (  1.000000  0.000000  0.000000 )  
               b(2) = (  0.000000  1.000000  0.000000 )  
               b(3) = (  0.000000  0.000000  1.000000 )  


     PseudoPot. # 1 for Cr read from file:
     /home/cristian/Escritorio/Proyecto_Grafeno/pseudopotenciales/Cr.pbe-spn-rrkjus_psl.1.0.0.UPF
     MD5 check sum: 793d051e4f89dd1e3290b85340a92c0a
     Pseudo is Ultrasoft + core correction, Zval = 14.0
     Generated using "atomic" code by A. Dal Corso v.6.2.2
     Using radial grid of 1183 points,  6 beta functions with: 
                l(1) =   0
                l(2) =   0
                l(3) =   1
                l(4) =   1
                l(5) =   2
                l(6) =   2
     Q(r) pseudized with 0 coefficients 


     PseudoPot. # 2 for Cr read from file:
     /home/cristian/Escritorio/Proyecto_Grafeno/pseudopotenciales/Cr.pbe-spn-rrkjus_psl.1.0.0.UPF
     MD5 check sum: 793d051e4f89dd1e3290b85340a92c0a
     Pseudo is Ultrasoft + core correction, Zval = 14.0
     Generated using "atomic" code by A. Dal Corso v.6.2.2
     Using radial grid of 1183 points,  6 beta functions with: 
                l(1) =   0
                l(2) =   0
                l(3) =   1
                l(4) =   1
                l(5) =   2
                l(6) =   2
     Q(r) pseudized with 0 coefficients 


     atomic species   valence    mass     pseudopotential
        Cr1           14.00    51.99610     Cr( 1.00)
        Cr2           14.00    51.99610     Cr( 1.00)

     Starting magnetic structure 
     atomic species   magnetization
        Cr1          0.100
        Cr2         -0.100

     48 Sym. Ops., with inversion, found



   Cartesian axes

     site n.     atom                  positions (alat units)
         1           Cr1 tau(   1) = (   0.0000000   0.0000000   0.0000000  )
         2           Cr2 tau(   2) = (   0.5000000   0.5000000   0.5000000  )

     number of k points=    10  gaussian smearing, width (Ry)=  0.0900
                       cart. coord. in units 2pi/alat
        k(    1) = (   0.0833333   0.0833333   0.0833333), wk =   0.0370370
        k(    2) = (   0.0833333   0.0833333   0.2500000), wk =   0.1111111
        k(    3) = (   0.0833333   0.0833333   0.4166667), wk =   0.1111111
        k(    4) = (   0.0833333   0.2500000   0.2500000), wk =   0.1111111
        k(    5) = (   0.0833333   0.2500000   0.4166667), wk =   0.2222222
        k(    6) = (   0.0833333   0.4166667   0.4166667), wk =   0.1111111
        k(    7) = (   0.2500000   0.2500000   0.2500000), wk =   0.0370370
        k(    8) = (   0.2500000   0.2500000   0.4166667), wk =   0.1111111
        k(    9) = (   0.2500000   0.4166667   0.4166667), wk =   0.1111111
        k(   10) = (   0.4166667   0.4166667   0.4166667), wk =   0.0370370

     Dense  grid:    63461 G-vectors     FFT dimensions: (  50,  50,  50)

     Smooth grid:    16135 G-vectors     FFT dimensions: (  32,  32,  32)

     Estimated max dynamical RAM per process >      46.72 MB

     Estimated total dynamical RAM >     280.29 MB
     Generating pointlists ...
     new r_m :   0.3572 (alat units)  1.9645 (a.u.) for type    1
     new r_m :   0.3572 (alat units)  1.9645 (a.u.) for type    2

     Check: negative core charge=   -0.000002

     Initial potential from superposition of free atoms

     starting charge   27.99845, renormalised to   28.00000
     Starting wfcs are   20 randomized atomic wfcs

     total cpu time spent up to now is        2.0 secs

     Self-consistent Calculation

     iteration #  1     ecut=    80.00 Ry     beta= 0.70
     Davidson diagonalization with overlap
     ethr =  1.00E-02,  avg # of iterations =  2.5

     Threshold (ethr) on eigenvalues was too large:
     Diagonalizing with lowered threshold

     Davidson diagonalization with overlap
     ethr =  5.12E-04,  avg # of iterations =  2.6

     total cpu time spent up to now is        3.0 secs

     total energy              =    -349.96851563 Ry
     Harris-Foulkes estimate   =    -350.06828800 Ry
     estimated scf accuracy    <       0.15773363 Ry

     total magnetization       =    -0.00 Bohr mag/cell
     absolute magnetization    =     1.93 Bohr mag/cell

     iteration #  2     ecut=    80.00 Ry     beta= 0.70
     Davidson diagonalization with overlap
     ethr =  5.63E-04,  avg # of iterations =  3.2

     total cpu time spent up to now is        3.7 secs

     total energy              =    -349.98937617 Ry
     Harris-Foulkes estimate   =    -350.09737868 Ry
     estimated scf accuracy    <       0.23423110 Ry

     total magnetization       =     0.00 Bohr mag/cell
     absolute magnetization    =     2.16 Bohr mag/cell

     iteration #  3     ecut=    80.00 Ry     beta= 0.70
     Davidson diagonalization with overlap
     ethr =  5.63E-04,  avg # of iterations =  3.0

     total cpu time spent up to now is        4.3 secs

     total energy              =    -350.03744645 Ry
     Harris-Foulkes estimate   =    -350.03856476 Ry
     estimated scf accuracy    <       0.00442156 Ry

     total magnetization       =    -0.00 Bohr mag/cell
     absolute magnetization    =     1.90 Bohr mag/cell

     iteration #  4     ecut=    80.00 Ry     beta= 0.70
     Davidson diagonalization with overlap
     ethr =  1.58E-05,  avg # of iterations =  4.0

     total cpu time spent up to now is        5.1 secs

     total energy              =    -350.02876781 Ry
     Harris-Foulkes estimate   =    -350.05103216 Ry
     estimated scf accuracy    <       0.24381132 Ry

     total magnetization       =     0.04 Bohr mag/cell
     absolute magnetization    =     1.77 Bohr mag/cell

     iteration #  5     ecut=    80.00 Ry     beta= 0.70
     Davidson diagonalization with overlap
     ethr =  1.58E-05,  avg # of iterations =  4.2

     total cpu time spent up to now is        5.8 secs

     total energy              =    -350.03985641 Ry
     Harris-Foulkes estimate   =    -350.03983742 Ry
     estimated scf accuracy    <       0.00033613 Ry

     total magnetization       =    -0.00 Bohr mag/cell
     absolute magnetization    =     1.71 Bohr mag/cell

     iteration #  6     ecut=    80.00 Ry     beta= 0.70
     Davidson diagonalization with overlap
     ethr =  1.20E-06,  avg # of iterations =  4.2

     total cpu time spent up to now is        6.5 secs

     total energy              =    -350.03958285 Ry
     Harris-Foulkes estimate   =    -350.04071832 Ry
     estimated scf accuracy    <       0.00019452 Ry

     total magnetization       =    -0.00 Bohr mag/cell
     absolute magnetization    =     1.43 Bohr mag/cell

     iteration #  7     ecut=    80.00 Ry     beta= 0.70
     Davidson diagonalization with overlap
     ethr =  6.95E-07,  avg # of iterations =  4.8

     total cpu time spent up to now is        7.3 secs

     total energy              =    -350.03772438 Ry
     Harris-Foulkes estimate   =    -350.04166489 Ry
     estimated scf accuracy    <       0.00005184 Ry

     total magnetization       =    -0.00 Bohr mag/cell
     absolute magnetization    =     0.97 Bohr mag/cell

     iteration #  8     ecut=    80.00 Ry     beta= 0.70
     Davidson diagonalization with overlap
     ethr =  1.85E-07,  avg # of iterations =  5.0

     total cpu time spent up to now is        8.2 secs

     total energy              =    -350.04101797 Ry
     Harris-Foulkes estimate   =    -350.04235171 Ry
     estimated scf accuracy    <       0.00001386 Ry

     total magnetization       =     0.00 Bohr mag/cell
     absolute magnetization    =     0.27 Bohr mag/cell

     iteration #  9     ecut=    80.00 Ry     beta= 0.70
     Davidson diagonalization with overlap
     ethr =  4.95E-08,  avg # of iterations =  5.1

     total cpu time spent up to now is        9.1 secs

     total energy              =    -350.04236161 Ry
     Harris-Foulkes estimate   =    -350.04240545 Ry
     estimated scf accuracy    <       0.00000141 Ry

     total magnetization       =     0.00 Bohr mag/cell
     absolute magnetization    =     0.10 Bohr mag/cell

     iteration # 10     ecut=    80.00 Ry     beta= 0.70
     Davidson diagonalization with overlap
     ethr =  5.02E-09,  avg # of iterations =  5.2

     Magnetic moment per site:
     atom:    1    charge:   12.2836    magn:   -0.0139    constr:    0.0000
     atom:    2    charge:   12.2835    magn:    0.0142    constr:    0.0000

     total cpu time spent up to now is        9.9 secs

     End of self-consistent calculation

 ------ SPIN UP ------------


          k = 0.0833 0.0833 0.0833 (  2013 PWs)   bands (ev):

   -53.5622 -53.3120 -24.9764 -24.9764 -24.9040 -24.5280 -24.4520 -24.4520
    10.8859  14.4776  14.4776  17.3168  17.3168  17.7795  19.2803  19.2803
    19.6763  20.4058

          k = 0.0833 0.0833 0.2500 (  2003 PWs)   bands (ev):

   -53.5238 -53.3402 -25.0088 -24.9028 -24.8055 -24.6772 -24.5186 -24.4785
    11.9425  14.9364  15.0068  17.1287  17.1968  18.3429  18.5399  18.7215
    19.3873  19.5815

          k = 0.0833 0.0833 0.4167 (  2010 PWs)   bands (ev):

   -53.4614 -53.3926 -24.9748 -24.8536 -24.7779 -24.6846 -24.6364 -24.5658
    13.6250  14.9162  15.9327  16.8572  17.2819  17.7309  18.1290  18.4299
    19.0740  19.7588

          k = 0.0833 0.2500 0.2500 (  2001 PWs)   bands (ev):

   -53.4942 -53.3593 -25.0763 -24.8655 -24.8461 -24.6816 -24.5603 -24.4556
    12.8220  15.0827  15.6434  16.6378  16.9484  17.4525  18.9434  19.0719
    19.2196  19.4438

          k = 0.0833 0.2500 0.4167 (  2018 PWs)   bands (ev):

   -53.4473 -53.3957 -25.0955 -25.0119 -24.7639 -24.6498 -24.5698 -24.4881
    14.0031  14.8173  16.3747  16.4509  16.9058  16.9687  18.7571  18.9163
    19.7596  20.2743

          k = 0.0833 0.4167 0.4167 (  2016 PWs)   bands (ev):

   -53.4279 -53.4040 -25.1752 -25.1450 -24.7204 -24.6752 -24.4887 -24.4591
    14.1396  14.3577  16.0597  16.1730  17.7728  18.0690  19.1577  19.3371
    19.6307  20.3210

          k = 0.2500 0.2500 0.2500 (  2022 PWs)   bands (ev):

   -53.4711 -53.3717 -24.9900 -24.9900 -24.9407 -24.5883 -24.5352 -24.5352
    13.7065  15.7824  15.7824  16.3418  16.3817  16.3817  19.3575  19.3575
    19.6974  19.6974

          k = 0.2500 0.2500 0.4167 (  2004 PWs)   bands (ev):

   -53.4357 -53.3964 -25.0625 -25.0388 -24.8428 -24.6755 -24.5330 -24.5193
    14.7199  15.3520  15.9431  16.1130  16.4737  16.6682  19.1961  19.1990
    19.6856  19.8468

          k = 0.2500 0.4167 0.4167 (  2025 PWs)   bands (ev):

   -53.4209 -53.4004 -25.0783 -25.0764 -24.8069 -24.7143 -24.5518 -24.5371
    14.9942  15.0864  15.9184  15.9802  16.8889  17.0146  19.4340  19.4808
    19.6548  19.7603

          k = 0.4167 0.4167 0.4167 (  2004 PWs)   bands (ev):

   -53.4135 -53.3971 -24.9889 -24.9073 -24.9073 -24.7147 -24.7147 -24.6317
    15.5851  15.9009  15.9009  16.1606  16.2565  16.2565  19.6634  19.6634
    19.6762  19.6762

 ------ SPIN DOWN ----------


          k = 0.0833 0.0833 0.0833 (  2013 PWs)   bands (ev):

   -53.5618 -53.3117 -24.9761 -24.9761 -24.9037 -24.5277 -24.4517 -24.4517
    10.8860  14.4778  14.4778  17.3170  17.3170  17.7798  19.2806  19.2806
    19.6766  20.4061

          k = 0.0833 0.0833 0.2500 (  2003 PWs)   bands (ev):

   -53.5235 -53.3399 -25.0085 -24.9024 -24.8052 -24.6769 -24.5182 -24.4782
    11.9426  14.9366  15.0070  17.1290  17.1970  18.3432  18.5402  18.7217
    19.3875  19.5818

          k = 0.0833 0.0833 0.4167 (  2010 PWs)   bands (ev):

   -53.4611 -53.3922 -24.9744 -24.8533 -24.7776 -24.6843 -24.6361 -24.5655
    13.6251  14.9164  15.9329  16.8575  17.2821  17.7312  18.1293  18.4301
    19.0743  19.7591

          k = 0.0833 0.2500 0.2500 (  2001 PWs)   bands (ev):

   -53.4939 -53.3589 -25.0759 -24.8652 -24.8458 -24.6813 -24.5599 -24.4552
    12.8221  15.0829  15.6436  16.6380  16.9486  17.4527  18.9437  19.0722
    19.2199  19.4441

          k = 0.0833 0.2500 0.4167 (  2018 PWs)   bands (ev):

   -53.4469 -53.3954 -25.0951 -25.0115 -24.7636 -24.6494 -24.5694 -24.4877
    14.0032  14.8175  16.3749  16.4512  16.9060  16.9689  18.7573  18.9166
    19.7599  20.2746

          k = 0.0833 0.4167 0.4167 (  2016 PWs)   bands (ev):

   -53.4276 -53.4037 -25.1749 -25.1446 -24.7201 -24.6748 -24.4884 -24.4588
    14.1398  14.3579  16.0600  16.1733  17.7730  18.0692  19.1580  19.3374
    19.6311  20.3213

          k = 0.2500 0.2500 0.2500 (  2022 PWs)   bands (ev):

   -53.4708 -53.3713 -24.9897 -24.9897 -24.9404 -24.5879 -24.5349 -24.5349
    13.7066  15.7826  15.7826  16.3420  16.3819  16.3819  19.3578  19.3578
    19.6977  19.6977

          k = 0.2500 0.2500 0.4167 (  2004 PWs)   bands (ev):

   -53.4354 -53.3961 -25.0622 -25.0384 -24.8424 -24.6752 -24.5327 -24.5189
    14.7201  15.3522  15.9433  16.1132  16.4739  16.6685  19.1964  19.1993
    19.6859  19.8471

          k = 0.2500 0.4167 0.4167 (  2025 PWs)   bands (ev):

   -53.4206 -53.4000 -25.0779 -25.0761 -24.8066 -24.7139 -24.5515 -24.5367
    14.9944  15.0865  15.9187  15.9804  16.8891  17.0148  19.4343  19.4811
    19.6551  19.7606

          k = 0.4167 0.4167 0.4167 (  2004 PWs)   bands (ev):

   -53.4132 -53.3967 -24.9886 -24.9070 -24.9070 -24.7143 -24.7143 -24.6313
    15.5853  15.9011  15.9011  16.1607  16.2567  16.2567  19.6637  19.6637
    19.6766  19.6766

     the Fermi energy is    18.0941 ev

!    total energy              =    -350.04241289 Ry
     Harris-Foulkes estimate   =    -350.04241357 Ry
     estimated scf accuracy    <       0.00000094 Ry

     The total energy is the sum of the following terms:

     one-electron contribution =    -121.60881839 Ry
     hartree contribution      =      75.61976110 Ry
     xc contribution           =     -44.48428237 Ry
     ewald contribution        =    -259.42040003 Ry
     smearing contrib. (-TS)   =      -0.14867319 Ry

     total magnetization       =     0.00 Bohr mag/cell
     absolute magnetization    =     0.03 Bohr mag/cell

     convergence has been achieved in  10 iterations

     Writing output data file degauss-0.09.save/

     init_run     :      0.57s CPU      0.59s WALL (       1 calls)
     electrons    :      7.80s CPU      7.93s WALL (       1 calls)

     Called by init_run:
     wfcinit      :      0.12s CPU      0.12s WALL (       1 calls)
     potinit      :      0.07s CPU      0.07s WALL (       1 calls)
     hinit0       :      0.24s CPU      0.24s WALL (       1 calls)

     Called by electrons:
     c_bands      :      5.16s CPU      5.26s WALL (      11 calls)
     sum_band     :      1.64s CPU      1.65s WALL (      11 calls)
     v_of_rho     :      0.38s CPU      0.38s WALL (      11 calls)
     newd         :      0.66s CPU      0.68s WALL (      11 calls)
     mix_rho      :      0.03s CPU      0.03s WALL (      11 calls)

     Called by c_bands:
     init_us_2    :      0.06s CPU      0.06s WALL (     460 calls)
     cegterg      :      4.93s CPU      5.03s WALL (     220 calls)

     Called by sum_band:
     sum_band:bec :      0.00s CPU      0.00s WALL (     220 calls)
     addusdens    :      1.12s CPU      1.13s WALL (      11 calls)

     Called by *egterg:
     h_psi        :      2.47s CPU      2.53s WALL (    1116 calls)
     s_psi        :      0.27s CPU      0.28s WALL (    1116 calls)
     g_psi        :      0.03s CPU      0.03s WALL (     876 calls)
     cdiaghg      :      0.82s CPU      0.83s WALL (    1076 calls)

     Called by h_psi:
     h_psi:pot    :      2.46s CPU      2.52s WALL (    1116 calls)
     h_psi:calbec :      0.38s CPU      0.39s WALL (    1116 calls)
     vloc_psi     :      1.81s CPU      1.85s WALL (    1116 calls)
     add_vuspsi   :      0.27s CPU      0.28s WALL (    1116 calls)

     General routines
     calbec       :      0.48s CPU      0.49s WALL (    1336 calls)
     fft          :      0.16s CPU      0.16s WALL (     271 calls)
     ffts         :      0.01s CPU      0.01s WALL (      44 calls)
     fftw         :      1.80s CPU      1.84s WALL (   30340 calls)
     interpolate  :      0.02s CPU      0.02s WALL (      22 calls)

     Parallel routines
     fft_scatt_xy :      0.24s CPU      0.25s WALL (   30655 calls)
     fft_scatt_yz :      0.97s CPU      1.00s WALL (   30655 calls)

     PWSCF        :      9.79s CPU      9.95s WALL


   This run was terminated on:  23:48:51   9Mar2022            

=------------------------------------------------------------------------------=
   JOB DONE.
=------------------------------------------------------------------------------=
