
     Program PWSCF v.6.4.1 starts on 11Aug2022 at 13:13:25 

     This program is part of the open-source Quantum ESPRESSO suite
     for quantum simulation of materials; please cite
         "P. Giannozzi et al., J. Phys.:Condens. Matter 21 395502 (2009);
         "P. Giannozzi et al., J. Phys.:Condens. Matter 29 465901 (2017);
          URL http://www.quantum-espresso.org", 
     in publications or presentations arising from this work. More details at
     http://www.quantum-espresso.org/quote

     Parallel version (MPI), running on     6 processors

     MPI processes distributed on     1 nodes
     R & G space division:  proc/nbgrp/npool/nimage =       6
     Reading input from distance-2.0.in

     Current dimensions of program PWSCF are:
     Max number of different atomic species (ntypx) = 10
     Max number of k-points (npk) =  40000
     Max angular momentum in pseudopotentials (lmaxx) =  3

     IMPORTANT: XC functional enforced from input :
     Exchange-correlation      = RVV10 ( 1  4 13  4 3 0)
     Any further DFT definition will be discarded
     Please, verify this is what you really want

               file H.pbe-rrkjus.UPF: wavefunction(s)  1S renormalized
               file Mn.pbe-spn-rrkjus_psl.0.3.1.UPF: wavefunction(s)  3D renormalized

     Subspace diagonalization in iterative solution of the eigenvalue problem:
     a serial algorithm will be used


     Parallelization info
     --------------------
     sticks:   dense  smooth     PW     G-vecs:    dense   smooth      PW
     Min        3051    1746    432               270999   117096   14629
     Max        3053    1747    437               271001   117099   14630
     Sum       18313   10477   2611              1626001   702581   87777



     bravais-lattice index     =            4
     lattice parameter (alat)  =      23.2937  a.u.
     unit-cell volume          =    8879.8548 (a.u.)^3
     number of atoms/cell      =           52
     number of atomic types    =            3
     number of electrons       =       213.00
     number of Kohn-Sham states=          128
     kinetic-energy cutoff     =      70.0000  Ry
     charge density cutoff     =     490.0000  Ry
     convergence threshold     =      1.0E-06
     mixing beta               =       0.7000
     number of iterations used =            8  plain     mixing
     Exchange-correlation      = RVV10 ( 1  4 13  4 3 0)

     celldm(1)=  23.293684  celldm(2)=   0.000000  celldm(3)=   0.811261
     celldm(4)=   0.000000  celldm(5)=   0.000000  celldm(6)=   0.000000

     crystal axes: (cart. coord. in units of alat)
               a(1) = (   1.000000   0.000000   0.000000 )  
               a(2) = (  -0.500000   0.866025   0.000000 )  
               a(3) = (   0.000000   0.000000   0.811261 )  

     reciprocal axes: (cart. coord. in units 2 pi/alat)
               b(1) = (  1.000000  0.577350 -0.000000 )  
               b(2) = (  0.000000  1.154701  0.000000 )  
               b(3) = (  0.000000 -0.000000  1.232649 )  


     PseudoPot. # 1 for H  read from file:
     /home/cristian/Escritorio/Proyecto_Grafeno/pseudopotenciales/H.pbe-rrkjus.UPF
     MD5 check sum: 7cc9d459525c9a0585f487a71c3c9563
     Pseudo is Ultrasoft, Zval =  1.0
     Generated by new atomic code, or converted to UPF format
     Using radial grid of 1061 points,  2 beta functions with: 
                l(1) =   0
                l(2) =   0
     Q(r) pseudized with 0 coefficients 


     PseudoPot. # 2 for C  read from file:
     /home/cristian/Escritorio/Proyecto_Grafeno/pseudopotenciales/C.pbe-n-rrkjus_psl.1.0.0.UPF
     MD5 check sum: 1fdd950c42eb37d8afe3dd2f8d12311e
     Pseudo is Ultrasoft + core correction, Zval =  4.0
     Generated using "atomic" code by A. Dal Corso v.6.3MaX
     Using radial grid of 1073 points,  4 beta functions with: 
                l(1) =   0
                l(2) =   0
                l(3) =   1
                l(4) =   1
     Q(r) pseudized with 0 coefficients 


     PseudoPot. # 3 for Mn read from file:
     /home/cristian/Escritorio/Proyecto_Grafeno/pseudopotenciales/Mn.pbe-spn-rrkjus_psl.0.3.1.UPF
     MD5 check sum: e1cac159bdd2ba70c18e85765a5d4279
     Pseudo is Ultrasoft + core correction, Zval = 15.0
     Generated using "atomic" code by A. Dal Corso v.6.2.2
     Using radial grid of 1187 points,  6 beta functions with: 
                l(1) =   0
                l(2) =   0
                l(3) =   1
                l(4) =   1
                l(5) =   2
                l(6) =   2
     Q(r) pseudized with 0 coefficients 


     vdW kernel table read from file rVV10_kernel_table
     MD5 check sum: b8e2538accc0c0b3206b45ba4daaba6c

     atomic species   valence    mass     pseudopotential
        H              1.00     1.00794     H ( 1.00)
        C              4.00    12.01070     C ( 1.00)
        Mn            15.00    54.93804     Mn( 1.00)

     Starting magnetic structure 
     atomic species   magnetization
        H            0.500
        C            0.300
        Mn           0.800

      2 Sym. Ops. (no inversion) found


                                    s                        frac. trans.

      isym =  1     identity                                     

 cryst.   s( 1) = (     1          0          0      )
                  (     0          1          0      )
                  (     0          0          1      )

 cart.    s( 1) = (  1.0000000  0.0000000  0.0000000 )
                  (  0.0000000  1.0000000  0.0000000 )
                  (  0.0000000  0.0000000  1.0000000 )


      isym =  2     inv. 180 deg rotation - cryst. axis [1,1,0]  

 cryst.   s( 2) = (     0         -1          0      )
                  (    -1          0          0      )
                  (     0          0          1      )

 cart.    s( 2) = (  0.5000000 -0.8660254  0.0000000 )
                  ( -0.8660254 -0.5000000  0.0000000 )
                  (  0.0000000  0.0000000  1.0000000 )


     point group C_s (m)    
     there are  2 classes
     the character table:

       E     s    
A'     1.00  1.00
A''    1.00 -1.00

     the symmetry operations in each class and the name of the first element:

     E        1
          identity                                               
     s        2
          inv. 180 deg rotation - cryst. axis [1,1,0]            

   Cartesian axes

     site n.     atom                  positions (alat units)
         1           H   tau(   1) = (   0.2500000   0.4330127   0.1622522  )
         2           H   tau(   2) = (   0.2500000   0.4330127   0.2232649  )
         3           C   tau(   3) = (   0.0000000   0.0000000   0.0000000  )
         4           C   tau(   4) = (   0.0000000   0.1154701   0.0000000  )
         5           C   tau(   5) = (  -0.1000000   0.1732051   0.0000000  )
         6           C   tau(   6) = (  -0.1000000   0.2886751   0.0000000  )
         7           C   tau(   7) = (  -0.2000000   0.3464102   0.0000000  )
         8           C   tau(   8) = (  -0.2000000   0.4618802   0.0000000  )
         9           C   tau(   9) = (  -0.3000000   0.5196152   0.0000000  )
        10           C   tau(  10) = (  -0.3000000   0.6350853   0.0000000  )
        11           C   tau(  11) = (  -0.4000000   0.6928203   0.0000000  )
        12           C   tau(  12) = (  -0.4000000   0.8082904   0.0000000  )
        13           C   tau(  13) = (   0.2000000   0.0000000   0.0000000  )
        14           C   tau(  14) = (   0.2000000   0.1154701   0.0000000  )
        15           C   tau(  15) = (   0.1000000   0.1732051   0.0000000  )
        16           C   tau(  16) = (   0.1000000   0.2886751   0.0000000  )
        17           C   tau(  17) = (   0.0000000   0.3464102   0.0000000  )
        18           C   tau(  18) = (   0.0000000   0.4618802   0.0000000  )
        19           C   tau(  19) = (  -0.1000000   0.5196152   0.0000000  )
        20           C   tau(  20) = (  -0.1000000   0.6350853   0.0000000  )
        21           C   tau(  21) = (  -0.2000000   0.6928203   0.0000000  )
        22           C   tau(  22) = (  -0.2000000   0.8082904   0.0000000  )
        23           C   tau(  23) = (   0.4000000   0.0000000   0.0000000  )
        24           C   tau(  24) = (   0.4000000   0.1154701   0.0000000  )
        25           C   tau(  25) = (   0.3000000   0.1732051   0.0000000  )
        26           C   tau(  26) = (   0.3000000   0.2886751   0.0000000  )
        27           C   tau(  27) = (   0.2000000   0.3464102   0.0000000  )
        28           Mn  tau(  28) = (   0.2000000   0.4618802   0.0000000  )
        29           C   tau(  29) = (   0.1000000   0.5196152   0.0000000  )
        30           C   tau(  30) = (   0.1000000   0.6350853   0.0000000  )
        31           C   tau(  31) = (   0.0000000   0.6928203   0.0000000  )
        32           C   tau(  32) = (   0.0000000   0.8082904   0.0000000  )
        33           C   tau(  33) = (   0.6000000   0.0000000   0.0000000  )
        34           C   tau(  34) = (   0.6000000   0.1154701   0.0000000  )
        35           C   tau(  35) = (   0.5000000   0.1732051   0.0000000  )
        36           C   tau(  36) = (   0.5000000   0.2886751   0.0000000  )
        37           C   tau(  37) = (   0.4000000   0.3464102   0.0000000  )
        38           C   tau(  38) = (   0.4000000   0.4618802   0.0000000  )
        39           C   tau(  39) = (   0.3000000   0.5196152   0.0000000  )
        40           C   tau(  40) = (   0.3000000   0.6350853   0.0000000  )
        41           C   tau(  41) = (   0.2000000   0.6928203   0.0000000  )
        42           C   tau(  42) = (   0.2000000   0.8082904   0.0000000  )
        43           C   tau(  43) = (   0.8000000   0.0000000   0.0000000  )
        44           C   tau(  44) = (   0.8000000   0.1154701   0.0000000  )
        45           C   tau(  45) = (   0.7000000   0.1732051   0.0000000  )
        46           C   tau(  46) = (   0.7000000   0.2886751   0.0000000  )
        47           C   tau(  47) = (   0.6000000   0.3464102   0.0000000  )
        48           C   tau(  48) = (   0.6000000   0.4618802   0.0000000  )
        49           C   tau(  49) = (   0.5000000   0.5196152   0.0000000  )
        50           C   tau(  50) = (   0.5000000   0.6350853   0.0000000  )
        51           C   tau(  51) = (   0.4000000   0.6928203   0.0000000  )
        52           C   tau(  52) = (   0.4000000   0.8082904   0.0000000  )

   Crystallographic axes

     site n.     atom                  positions (cryst. coord.)
         1           H   tau(   1) = (  0.5000000  0.5000000  0.2000000  )
         2           H   tau(   2) = (  0.5000000  0.5000000  0.2752072  )
         3           C   tau(   3) = (  0.0000000  0.0000000  0.0000000  )
         4           C   tau(   4) = (  0.0666667  0.1333333  0.0000000  )
         5           C   tau(   5) = (  0.0000000  0.2000000  0.0000000  )
         6           C   tau(   6) = (  0.0666667  0.3333333  0.0000000  )
         7           C   tau(   7) = (  0.0000000  0.4000000  0.0000000  )
         8           C   tau(   8) = (  0.0666667  0.5333333  0.0000000  )
         9           C   tau(   9) = (  0.0000000  0.6000000  0.0000000  )
        10           C   tau(  10) = (  0.0666667  0.7333333  0.0000000  )
        11           C   tau(  11) = (  0.0000000  0.8000000  0.0000000  )
        12           C   tau(  12) = (  0.0666667  0.9333333  0.0000000  )
        13           C   tau(  13) = (  0.2000000  0.0000000  0.0000000  )
        14           C   tau(  14) = (  0.2666667  0.1333333  0.0000000  )
        15           C   tau(  15) = (  0.2000000  0.2000000  0.0000000  )
        16           C   tau(  16) = (  0.2666667  0.3333333  0.0000000  )
        17           C   tau(  17) = (  0.2000000  0.4000000  0.0000000  )
        18           C   tau(  18) = (  0.2666667  0.5333333  0.0000000  )
        19           C   tau(  19) = (  0.2000000  0.6000000  0.0000000  )
        20           C   tau(  20) = (  0.2666667  0.7333333  0.0000000  )
        21           C   tau(  21) = (  0.2000000  0.8000000  0.0000000  )
        22           C   tau(  22) = (  0.2666667  0.9333333  0.0000000  )
        23           C   tau(  23) = (  0.4000000  0.0000000  0.0000000  )
        24           C   tau(  24) = (  0.4666667  0.1333333  0.0000000  )
        25           C   tau(  25) = (  0.4000000  0.2000000  0.0000000  )
        26           C   tau(  26) = (  0.4666667  0.3333333  0.0000000  )
        27           C   tau(  27) = (  0.4000000  0.4000000  0.0000000  )
        28           Mn  tau(  28) = (  0.4666667  0.5333333  0.0000000  )
        29           C   tau(  29) = (  0.4000000  0.6000000  0.0000000  )
        30           C   tau(  30) = (  0.4666667  0.7333333  0.0000000  )
        31           C   tau(  31) = (  0.4000000  0.8000000  0.0000000  )
        32           C   tau(  32) = (  0.4666667  0.9333333  0.0000000  )
        33           C   tau(  33) = (  0.6000000  0.0000000  0.0000000  )
        34           C   tau(  34) = (  0.6666667  0.1333333  0.0000000  )
        35           C   tau(  35) = (  0.6000000  0.2000000  0.0000000  )
        36           C   tau(  36) = (  0.6666667  0.3333333  0.0000000  )
        37           C   tau(  37) = (  0.6000000  0.4000000  0.0000000  )
        38           C   tau(  38) = (  0.6666667  0.5333333  0.0000000  )
        39           C   tau(  39) = (  0.6000000  0.6000000  0.0000000  )
        40           C   tau(  40) = (  0.6666667  0.7333333  0.0000000  )
        41           C   tau(  41) = (  0.6000000  0.8000000  0.0000000  )
        42           C   tau(  42) = (  0.6666667  0.9333333  0.0000000  )
        43           C   tau(  43) = (  0.8000000  0.0000000  0.0000000  )
        44           C   tau(  44) = (  0.8666667  0.1333333  0.0000000  )
        45           C   tau(  45) = (  0.8000000  0.2000000  0.0000000  )
        46           C   tau(  46) = (  0.8666667  0.3333333  0.0000000  )
        47           C   tau(  47) = (  0.8000000  0.4000000  0.0000000  )
        48           C   tau(  48) = (  0.8666667  0.5333333  0.0000000  )
        49           C   tau(  49) = (  0.8000000  0.6000000  0.0000000  )
        50           C   tau(  50) = (  0.8666667  0.7333333  0.0000000  )
        51           C   tau(  51) = (  0.8000000  0.8000000  0.0000000  )
        52           C   tau(  52) = (  0.8666667  0.9333333  0.0000000  )

     number of k points=     1  Marzari-Vanderbilt smearing, width (Ry)=  0.0010
                       cart. coord. in units 2pi/alat
        k(    1) = (   0.0000000   0.0000000   0.0000000), wk =   1.0000000

                       cryst. coord.
        k(    1) = (   0.0000000   0.0000000   0.0000000), wk =   1.0000000

     Dense  grid:  1626001 G-vectors     FFT dimensions: ( 180, 180, 135)

     Smooth grid:   702581 G-vectors     FFT dimensions: ( 125, 125, 108)

     Dynamical RAM for                 wfc:      28.59 MB

     Dynamical RAM for     wfc (w. buffer):      85.76 MB

     Dynamical RAM for           str. fact:      12.41 MB

     Dynamical RAM for           local pot:       0.00 MB

     Dynamical RAM for          nlocal pot:      92.46 MB

     Dynamical RAM for                qrad:      19.73 MB

     Dynamical RAM for          rho,v,vnew:      58.92 MB

     Dynamical RAM for               rhoin:      19.64 MB

     Dynamical RAM for            rho*nmix:     132.32 MB

     Dynamical RAM for           G-vectors:      16.40 MB

     Dynamical RAM for          h,s,v(r/c):      12.00 MB

     Dynamical RAM for          <psi|beta>:       0.81 MB

     Dynamical RAM for                 psi:     114.35 MB

     Dynamical RAM for                hpsi:     114.35 MB

     Dynamical RAM for                spsi:     114.35 MB

     Dynamical RAM for      wfcinit/wfcrot:      93.90 MB

     Dynamical RAM for           addusdens:     975.89 MB

     Estimated static dynamical RAM per process >     488.30 MB

     Estimated max dynamical RAM per process >       1.43 GB

     Estimated total dynamical RAM >       8.58 GB
     Generating pointlists ...
     new r_m :   0.0252 (alat units)  0.5862 (a.u.) for type    1
     new r_m :   0.0476 (alat units)  1.1095 (a.u.) for type    2
     new r_m :   0.0476 (alat units)  1.1095 (a.u.) for type    3

     Check: negative core charge=   -0.000002

     Initial potential from superposition of free atoms

     starting charge  212.80506, renormalised to  213.00000

     negative rho (up, down):  7.752E-05 1.195E-02


---------------------------------------------------------------------------------
Carrying out rVV10 run using the following parameters:
Nqs =      20    Nr_points =    1024   r_max =   100.000
b_value =  6.30000    beta =  0.00901
     q_mesh =  0.00010000  0.00030000  0.00058939  0.00100810
               0.00161396  0.00249058  0.00375900  0.00559430
               0.00824984  0.01209221  0.01765183  0.02569619
               0.03733578  0.05417739  0.07854596  0.11380545
               0.16482331  0.23864234  0.34545298  0.50000000

Gradients computed in Reciprocal space

---------------------------------------------------------------------------------


     Starting wfcs are  208 randomized atomic wfcs

     total cpu time spent up to now is       78.1 secs

     Self-consistent Calculation

     iteration #  1     ecut=    70.00 Ry     beta= 0.70
     Davidson diagonalization with overlap
     ethr =  1.00E-02,  avg # of iterations =  2.5

     negative rho (up, down):  1.543E-04 1.111E-02

     total cpu time spent up to now is      216.5 secs

     total energy              =    -821.47969431 Ry
     Harris-Foulkes estimate   =    -825.06479435 Ry
     estimated scf accuracy    <      11.92944906 Ry

     total magnetization       =     7.00 Bohr mag/cell
     absolute magnetization    =     7.38 Bohr mag/cell

     iteration #  2     ecut=    70.00 Ry     beta= 0.70
     Davidson diagonalization with overlap
     ethr =  5.60E-03,  avg # of iterations =  7.5

     negative rho (up, down):  1.911E-04 1.201E-02

     total cpu time spent up to now is      347.6 secs

     total energy              =    -811.75164750 Ry
     Harris-Foulkes estimate   =    -836.02542333 Ry
     estimated scf accuracy    <     100.63427763 Ry

     total magnetization       =     3.00 Bohr mag/cell
     absolute magnetization    =     3.25 Bohr mag/cell

     iteration #  3     ecut=    70.00 Ry     beta= 0.70
     Davidson diagonalization with overlap
     ethr =  5.60E-03,  avg # of iterations =  5.0

     negative rho (up, down):  2.300E-04 9.289E-03

     total cpu time spent up to now is      542.7 secs

     total energy              =    -823.96181803 Ry
     Harris-Foulkes estimate   =    -827.00306511 Ry
     estimated scf accuracy    <      16.36236714 Ry

     total magnetization       =     5.97 Bohr mag/cell
     absolute magnetization    =     6.05 Bohr mag/cell

     iteration #  4     ecut=    70.00 Ry     beta= 0.70
     Davidson diagonalization with overlap
     ethr =  5.60E-03,  avg # of iterations =  3.0

     negative rho (up, down):  2.729E-04 1.064E-02

     total cpu time spent up to now is      643.6 secs

     total energy              =    -825.27987139 Ry
     Harris-Foulkes estimate   =    -826.42581949 Ry
     estimated scf accuracy    <       3.40294388 Ry

     total magnetization       =     3.00 Bohr mag/cell
     absolute magnetization    =     3.42 Bohr mag/cell

     iteration #  5     ecut=    70.00 Ry     beta= 0.70
     Davidson diagonalization with overlap
     ethr =  1.60E-03,  avg # of iterations =  4.0

     negative rho (up, down):  3.612E-04 1.724E-02

     total cpu time spent up to now is      755.8 secs

     total energy              =    -825.76789428 Ry
     Harris-Foulkes estimate   =    -825.99000312 Ry
     estimated scf accuracy    <       0.63146953 Ry

     total magnetization       =     3.00 Bohr mag/cell
     absolute magnetization    =     3.30 Bohr mag/cell

     iteration #  6     ecut=    70.00 Ry     beta= 0.70
     Davidson diagonalization with overlap
     ethr =  2.96E-04,  avg # of iterations =  5.0

     negative rho (up, down):  5.877E-04 8.179E-03

     total cpu time spent up to now is      871.7 secs

     total energy              =    -825.90094674 Ry
     Harris-Foulkes estimate   =    -825.94069234 Ry
     estimated scf accuracy    <       0.13422856 Ry

     total magnetization       =     3.00 Bohr mag/cell
     absolute magnetization    =     3.40 Bohr mag/cell

     iteration #  7     ecut=    70.00 Ry     beta= 0.70
     Davidson diagonalization with overlap
     ethr =  6.30E-05,  avg # of iterations =  4.5

     negative rho (up, down):  6.480E-04 6.639E-03

     total cpu time spent up to now is      982.5 secs

     total energy              =    -825.92235957 Ry
     Harris-Foulkes estimate   =    -825.92807286 Ry
     estimated scf accuracy    <       0.01413260 Ry

     total magnetization       =     3.00 Bohr mag/cell
     absolute magnetization    =     3.58 Bohr mag/cell

     iteration #  8     ecut=    70.00 Ry     beta= 0.70
     Davidson diagonalization with overlap
     ethr =  6.64E-06,  avg # of iterations =  7.0

     negative rho (up, down):  6.611E-04 6.753E-03

     total cpu time spent up to now is     1117.4 secs

     total energy              =    -825.92604769 Ry
     Harris-Foulkes estimate   =    -825.92808817 Ry
     estimated scf accuracy    <       0.00670266 Ry

     total magnetization       =     3.00 Bohr mag/cell
     absolute magnetization    =     3.72 Bohr mag/cell

     iteration #  9     ecut=    70.00 Ry     beta= 0.70
     Davidson diagonalization with overlap
     ethr =  3.15E-06,  avg # of iterations =  4.5

     negative rho (up, down):  6.653E-04 6.836E-03

     total cpu time spent up to now is     1242.6 secs

     total energy              =    -825.92772348 Ry
     Harris-Foulkes estimate   =    -825.92779846 Ry
     estimated scf accuracy    <       0.00111643 Ry

     total magnetization       =     3.00 Bohr mag/cell
     absolute magnetization    =     3.83 Bohr mag/cell

     iteration # 10     ecut=    70.00 Ry     beta= 0.70
     Davidson diagonalization with overlap
     ethr =  5.24E-07,  avg # of iterations =  3.0

     negative rho (up, down):  6.668E-04 6.948E-03

     total cpu time spent up to now is     1376.5 secs

     total energy              =    -825.92816679 Ry
     Harris-Foulkes estimate   =    -825.92804877 Ry
     estimated scf accuracy    <       0.00016951 Ry

     total magnetization       =     3.00 Bohr mag/cell
     absolute magnetization    =     3.95 Bohr mag/cell

     iteration # 11     ecut=    70.00 Ry     beta= 0.70
     Davidson diagonalization with overlap
     ethr =  7.96E-08,  avg # of iterations =  3.5

     negative rho (up, down):  6.679E-04 7.045E-03

     total cpu time spent up to now is     1527.0 secs

     total energy              =    -825.92830291 Ry
     Harris-Foulkes estimate   =    -825.92827154 Ry
     estimated scf accuracy    <       0.00015093 Ry

     total magnetization       =     3.00 Bohr mag/cell
     absolute magnetization    =     4.05 Bohr mag/cell

     iteration # 12     ecut=    70.00 Ry     beta= 0.70
     Davidson diagonalization with overlap
     ethr =  7.09E-08,  avg # of iterations =  3.0

     negative rho (up, down):  6.637E-04 7.157E-03

     total cpu time spent up to now is     1651.9 secs

     total energy              =    -825.92838220 Ry
     Harris-Foulkes estimate   =    -825.92835821 Ry
     estimated scf accuracy    <       0.00005431 Ry

     total magnetization       =     3.00 Bohr mag/cell
     absolute magnetization    =     4.12 Bohr mag/cell

     iteration # 13     ecut=    70.00 Ry     beta= 0.70
     Davidson diagonalization with overlap
     ethr =  2.55E-08,  avg # of iterations =  3.0

     negative rho (up, down):  6.659E-04 7.178E-03

     total cpu time spent up to now is     1794.7 secs

     total energy              =    -825.92842094 Ry
     Harris-Foulkes estimate   =    -825.92841074 Ry
     estimated scf accuracy    <       0.00001694 Ry

     total magnetization       =     3.00 Bohr mag/cell
     absolute magnetization    =     4.19 Bohr mag/cell

     iteration # 14     ecut=    70.00 Ry     beta= 0.70
     Davidson diagonalization with overlap
     ethr =  7.95E-09,  avg # of iterations =  3.0

     negative rho (up, down):  6.653E-04 7.230E-03

     total cpu time spent up to now is     1942.3 secs

     total energy              =    -825.92843387 Ry
     Harris-Foulkes estimate   =    -825.92843435 Ry
     estimated scf accuracy    <       0.00002513 Ry

     total magnetization       =     3.00 Bohr mag/cell
     absolute magnetization    =     4.24 Bohr mag/cell

     iteration # 15     ecut=    70.00 Ry     beta= 0.70
     Davidson diagonalization with overlap
     ethr =  7.95E-09,  avg # of iterations =  3.0

     negative rho (up, down):  6.649E-04 7.258E-03

     total cpu time spent up to now is     2074.2 secs

     total energy              =    -825.92844344 Ry
     Harris-Foulkes estimate   =    -825.92844286 Ry
     estimated scf accuracy    <       0.00000607 Ry

     total magnetization       =     3.00 Bohr mag/cell
     absolute magnetization    =     4.27 Bohr mag/cell

     iteration # 16     ecut=    70.00 Ry     beta= 0.70
     Davidson diagonalization with overlap
     ethr =  2.85E-09,  avg # of iterations =  3.0

     negative rho (up, down):  6.653E-04 7.262E-03

     total cpu time spent up to now is     2207.6 secs

     total energy              =    -825.92844608 Ry
     Harris-Foulkes estimate   =    -825.92844580 Ry
     estimated scf accuracy    <       0.00000125 Ry

     total magnetization       =     3.00 Bohr mag/cell
     absolute magnetization    =     4.29 Bohr mag/cell

     iteration # 17     ecut=    70.00 Ry     beta= 0.70
     Davidson diagonalization with overlap
     ethr =  5.85E-10,  avg # of iterations =  3.5

     negative rho (up, down):  6.655E-04 7.270E-03

     Magnetic moment per site:
     atom:    1    charge:    0.2135    magn:   -0.0018    constr:    0.0000
     atom:    2    charge:    0.2122    magn:    0.0155    constr:    0.0000
     atom:    3    charge:    1.7170    magn:   -0.0128    constr:    0.0000
     atom:    4    charge:    1.7156    magn:    0.0179    constr:    0.0000
     atom:    5    charge:    1.7177    magn:   -0.0096    constr:    0.0000
     atom:    6    charge:    1.7143    magn:    0.0061    constr:    0.0000
     atom:    7    charge:    1.7178    magn:   -0.0095    constr:    0.0000
     atom:    8    charge:    1.7156    magn:    0.0179    constr:    0.0000
     atom:    9    charge:    1.7170    magn:   -0.0127    constr:    0.0000
     atom:   10    charge:    1.7155    magn:    0.0576    constr:    0.0000
     atom:   11    charge:    1.7174    magn:   -0.0180    constr:    0.0000
     atom:   12    charge:    1.7155    magn:    0.0576    constr:    0.0000
     atom:   13    charge:    1.7174    magn:   -0.0180    constr:    0.0000
     atom:   14    charge:    1.7159    magn:    0.0460    constr:    0.0000
     atom:   15    charge:    1.7143    magn:   -0.0146    constr:    0.0000
     atom:   16    charge:    1.7124    magn:    0.0611    constr:    0.0000
     atom:   17    charge:    1.7235    magn:   -0.0137    constr:    0.0000
     atom:   18    charge:    1.7123    magn:    0.0615    constr:    0.0000
     atom:   19    charge:    1.7144    magn:   -0.0147    constr:    0.0000
     atom:   20    charge:    1.7159    magn:    0.0462    constr:    0.0000
     atom:   21    charge:    1.7175    magn:   -0.0179    constr:    0.0000
     atom:   22    charge:    1.7155    magn:    0.0576    constr:    0.0000
     atom:   23    charge:    1.7170    magn:   -0.0127    constr:    0.0000
     atom:   24    charge:    1.7156    magn:    0.0179    constr:    0.0000
     atom:   25    charge:    1.7142    magn:   -0.0147    constr:    0.0000
     atom:   26    charge:    1.7130    magn:    0.0608    constr:    0.0000
     atom:   27    charge:    1.8752    magn:   -0.0286    constr:    0.0000
     atom:   28    charge:   10.0228    magn:    0.7815    constr:    0.0000
     atom:   29    charge:    1.8742    magn:   -0.0285    constr:    0.0000
     atom:   30    charge:    1.7123    magn:    0.0615    constr:    0.0000
     atom:   31    charge:    1.7144    magn:   -0.0147    constr:    0.0000
     atom:   32    charge:    1.7156    magn:    0.0179    constr:    0.0000
     atom:   33    charge:    1.7178    magn:   -0.0095    constr:    0.0000
     atom:   34    charge:    1.7142    magn:    0.0125    constr:    0.0000
     atom:   35    charge:    1.7177    magn:   -0.0096    constr:    0.0000
     atom:   36    charge:    1.7143    magn:    0.0062    constr:    0.0000
     atom:   37    charge:    1.7234    magn:   -0.0141    constr:    0.0000
     atom:   38    charge:    1.7130    magn:    0.0608    constr:    0.0000
     atom:   39    charge:    1.8752    magn:   -0.0286    constr:    0.0000
     atom:   40    charge:    1.7124    magn:    0.0611    constr:    0.0000
     atom:   41    charge:    1.7235    magn:   -0.0137    constr:    0.0000
     atom:   42    charge:    1.7143    magn:    0.0061    constr:    0.0000
     atom:   43    charge:    1.7177    magn:   -0.0096    constr:    0.0000
     atom:   44    charge:    1.7142    magn:    0.0125    constr:    0.0000
     atom:   45    charge:    1.7234    magn:   -0.0065    constr:    0.0000
     atom:   46    charge:    1.7142    magn:    0.0125    constr:    0.0000
     atom:   47    charge:    1.7177    magn:   -0.0096    constr:    0.0000
     atom:   48    charge:    1.7156    magn:    0.0179    constr:    0.0000
     atom:   49    charge:    1.7142    magn:   -0.0147    constr:    0.0000
     atom:   50    charge:    1.7159    magn:    0.0460    constr:    0.0000
     atom:   51    charge:    1.7143    magn:   -0.0146    constr:    0.0000
     atom:   52    charge:    1.7156    magn:    0.0179    constr:    0.0000

     total cpu time spent up to now is     2359.1 secs

     End of self-consistent calculation

 ------ SPIN UP ------------


          k = 0.0000 0.0000 0.0000 ( 87777 PWs)   bands (ev):

   -80.6866 -50.1979 -50.1947 -49.1039 -19.7756 -18.9395 -18.9386 -18.8487
   -18.8290 -18.8269 -18.4860 -17.0774 -17.0762 -17.0708 -16.9939 -16.9917
   -16.6820 -16.2317 -16.2316 -16.1238 -16.0638 -16.0626 -15.3652 -14.1227
   -14.1210 -14.0544 -13.9897 -13.9890 -13.3246 -13.0642 -13.0628 -13.0360
   -12.7362 -12.7335 -12.3189 -11.8416 -11.8411 -11.6571 -11.3837 -11.3817
   -10.4750  -9.6733  -9.6732  -9.4354  -9.3171  -9.3168  -9.2233  -9.1961
    -9.1959  -9.1817  -8.6958  -8.6926  -8.1666  -8.1639  -8.0759  -8.0184
    -7.8299  -7.5940  -7.4248  -7.4164  -7.2016  -7.1910  -7.0614  -6.9162
    -6.9161  -6.8278  -6.8243  -6.8001  -6.7111  -6.5608  -6.5596  -6.5296
    -6.5200  -6.5193  -6.4744  -6.2890  -5.6552  -5.5914  -5.5208  -5.5188
    -5.3176  -5.3169  -5.0198  -4.9798  -4.8803  -4.7480  -4.7283  -4.7280
    -4.3751  -4.2314  -4.2282  -4.2109  -4.2102  -3.8881  -3.8873  -3.7894
    -3.6665  -3.6663  -3.0990  -2.7571  -2.7543  -1.8987  -1.8016  -1.8009
    -1.2262  -1.1160  -1.1143  -0.8136   0.9030   0.9628   0.9663   1.5661
     1.5672   1.5837   2.4782   2.7551   2.7585   2.8558   2.9722   2.9977
     3.4469   3.4696   3.4709   3.6615   3.6771   3.7295   3.7406   3.7422

     occupation numbers 
     1.0000   1.0000   1.0000   1.0000   1.0000   1.0000   1.0000   1.0000
     1.0000   1.0000   1.0000   1.0000   1.0000   1.0000   1.0000   1.0000
     1.0000   1.0000   1.0000   1.0000   1.0000   1.0000   1.0000   1.0000
     1.0000   1.0000   1.0000   1.0000   1.0000   1.0000   1.0000   1.0000
     1.0000   1.0000   1.0000   1.0000   1.0000   1.0000   1.0000   1.0000
     1.0000   1.0000   1.0000   1.0000   1.0000   1.0000   1.0000   1.0000
     1.0000   1.0000   1.0000   1.0000   1.0000   1.0000   1.0000   1.0000
     1.0000   1.0000   1.0000   1.0000   1.0000   1.0000   1.0000   1.0000
     1.0000   1.0000   1.0000   1.0000   1.0000   1.0000   1.0000   1.0000
     1.0000   1.0000   1.0000   1.0000   1.0000   1.0000   1.0000   1.0000
     1.0000   1.0000   1.0000   1.0000   1.0000   1.0000   1.0000   1.0000
     1.0000   1.0000   1.0000   1.0000   1.0000   1.0000   1.0000   1.0000
     1.0000   1.0000   1.0000   1.0000   1.0000   1.0000   1.0000   1.0000
     1.0000   1.0000   1.0000   1.0000   0.0000   0.0000   0.0000   0.0000
     0.0000   0.0000   0.0000   0.0000   0.0000   0.0000   0.0000   0.0000
     0.0000   0.0000   0.0000   0.0000   0.0000   0.0000   0.0000   0.0000

 ------ SPIN DOWN ----------


          k = 0.0000 0.0000 0.0000 ( 87777 PWs)   bands (ev):

   -79.3573 -49.1338 -49.1319 -47.3589 -19.7338 -18.8911 -18.8907 -18.8111
   -18.8024 -18.8000 -18.4208 -17.0416 -17.0400 -17.0388 -16.9378 -16.9358
   -16.6522 -16.1818 -16.1814 -16.0924 -16.0200 -16.0188 -15.3342 -14.0498
   -14.0471 -13.9861 -13.9796 -13.9788 -13.3307 -13.0378 -13.0365 -13.0033
   -12.7171 -12.7142 -12.2816 -11.7994 -11.7990 -11.6321 -11.3594 -11.3575
   -10.4372  -9.6056  -9.6054  -9.4047  -9.2823  -9.2820  -9.2071  -9.1715
    -9.1713  -9.1641  -8.6793  -8.6766  -8.1164  -8.1146  -8.0360  -7.9072
    -7.8119  -7.4522  -7.4084  -7.3649  -7.1240  -7.0057  -6.8877  -6.8547
    -6.8547  -6.7672  -6.7610  -6.7272  -6.6950  -6.5417  -6.5404  -6.5183
    -6.5070  -6.5060  -6.4569  -6.1180  -5.4840  -5.4815  -5.3717  -5.2998
    -5.2409  -5.2404  -4.9664  -4.8690  -4.6776  -4.6733  -4.6363  -4.6360
    -4.2990  -4.1017  -4.0974  -4.0069  -4.0033  -3.7519  -3.7513  -3.7021
    -3.6475  -3.6473  -3.0216  -2.5000  -2.4990  -1.7766  -1.7760  -1.7289
    -0.7996  -0.5228  -0.5170   0.1127   1.0052   1.0085   1.0600   1.7382
     1.7459   1.7491   2.5070   2.8922   2.8964   2.9258   3.2536   3.2760
     3.5959   3.6549   3.6577   3.7193   3.7288   3.7466   3.7507   3.7593

     occupation numbers 
     1.0000   1.0000   1.0000   1.0000   1.0000   1.0000   1.0000   1.0000
     1.0000   1.0000   1.0000   1.0000   1.0000   1.0000   1.0000   1.0000
     1.0000   1.0000   1.0000   1.0000   1.0000   1.0000   1.0000   1.0000
     1.0000   1.0000   1.0000   1.0000   1.0000   1.0000   1.0000   1.0000
     1.0000   1.0000   1.0000   1.0000   1.0000   1.0000   1.0000   1.0000
     1.0000   1.0000   1.0000   1.0000   1.0000   1.0000   1.0000   1.0000
     1.0000   1.0000   1.0000   1.0000   1.0000   1.0000   1.0000   1.0000
     1.0000   1.0000   1.0000   1.0000   1.0000   1.0000   1.0000   1.0000
     1.0000   1.0000   1.0000   1.0000   1.0000   1.0000   1.0000   1.0000
     1.0000   1.0000   1.0000   1.0000   1.0000   1.0000   1.0000   1.0000
     1.0000   1.0000   1.0000   1.0000   1.0000   1.0000   1.0000   1.0000
     1.0000   1.0000   1.0000   1.0000   1.0000   1.0000   1.0000   1.0000
     1.0000   1.0000   1.0000   1.0000   1.0000   1.0000   1.0000   1.0000
     1.0000   0.0000   0.0000   0.0000   0.0000   0.0000   0.0000   0.0000
     0.0000   0.0000   0.0000   0.0000   0.0000   0.0000   0.0000   0.0000
     0.0000   0.0000   0.0000   0.0000   0.0000   0.0000   0.0000   0.0000

     the Fermi energy is    -0.6696 ev

!    total energy              =    -825.92844681 Ry
     Harris-Foulkes estimate   =    -825.92844693 Ry
     estimated scf accuracy    <       0.00000045 Ry

     The total energy is the sum of the following terms:

     one-electron contribution =   -2738.64349848 Ry
     hartree contribution      =    1414.18611145 Ry
     xc contribution           =    -259.70229103 Ry
     ewald contribution        =     758.23123126 Ry
     smearing contrib. (-TS)   =       0.00000000 Ry

     total magnetization       =     3.00 Bohr mag/cell
     absolute magnetization    =     4.30 Bohr mag/cell

     convergence has been achieved in  17 iterations

     Writing output data file distance-2.0.save/

     init_run     :     75.47s CPU     76.94s WALL (       1 calls)
     electrons    :   2244.71s CPU   2281.22s WALL (       1 calls)

     Called by init_run:
     wfcinit      :     46.32s CPU     46.61s WALL (       1 calls)
     wfcinit:atom :      0.07s CPU      0.11s WALL (       2 calls)
     wfcinit:wfcr :     45.79s CPU     46.00s WALL (       2 calls)
     potinit      :     12.20s CPU     12.71s WALL (       1 calls)
     hinit0       :      8.11s CPU      8.15s WALL (       1 calls)

     Called by electrons:
     c_bands      :   1541.18s CPU   1549.18s WALL (      17 calls)
     sum_band     :    411.86s CPU    423.43s WALL (      17 calls)
     v_of_rho     :    142.97s CPU    150.55s WALL (      18 calls)
     v_h          :      1.56s CPU      1.58s WALL (      18 calls)
     v_xc         :    141.41s CPU    148.96s WALL (      18 calls)
     newd         :    150.68s CPU    160.84s WALL (      18 calls)
     mix_rho      :      8.28s CPU      8.39s WALL (      17 calls)

     Called by c_bands:
     init_us_2    :      3.72s CPU      3.74s WALL (      70 calls)
     cegterg      :   1532.11s CPU   1540.09s WALL (      34 calls)

     Called by sum_band:
     sum_band:bec :      0.03s CPU      0.03s WALL (      34 calls)
     addusdens    :    255.87s CPU    266.43s WALL (      17 calls)

     Called by *egterg:
     h_psi        :    780.61s CPU    786.30s WALL (     172 calls)
     s_psi        :    261.08s CPU    261.21s WALL (     172 calls)
     g_psi        :      0.89s CPU      0.89s WALL (     136 calls)
     cdiaghg      :     15.90s CPU     15.91s WALL (     170 calls)
     cegterg:over :    215.17s CPU    215.28s WALL (     136 calls)
     cegterg:upda :    142.79s CPU    143.47s WALL (     136 calls)
     cegterg:last :     88.80s CPU     88.83s WALL (      36 calls)

     Called by h_psi:
     h_psi:pot    :    779.70s CPU    784.40s WALL (     172 calls)
     h_psi:calbec :    259.27s CPU    259.40s WALL (     172 calls)
     vloc_psi     :    260.29s CPU    264.75s WALL (     172 calls)
     add_vuspsi   :    260.13s CPU    260.25s WALL (     172 calls)

     General routines
     calbec       :    351.31s CPU    351.51s WALL (     206 calls)
     fft          :     83.38s CPU     86.36s WALL (    1344 calls)
     ffts         :      1.45s CPU      1.49s WALL (      70 calls)
     fftw         :    264.80s CPU    269.39s WALL (   29094 calls)
     interpolate  :      3.47s CPU      3.54s WALL (      36 calls)

     Parallel routines
     fft_scatt_xy :     66.28s CPU     67.03s WALL (   30508 calls)
     fft_scatt_yz :    108.01s CPU    113.46s WALL (   30508 calls)

     PWSCF        :  38m41.60s CPU  39m19.95s WALL


   This run was terminated on:  13:52:45  11Aug2022            

=------------------------------------------------------------------------------=
   JOB DONE.
=------------------------------------------------------------------------------=
