
     Program PWSCF v.6.4.1 starts on  9Mar2022 at 23:12:25 

     This program is part of the open-source Quantum ESPRESSO suite
     for quantum simulation of materials; please cite
         "P. Giannozzi et al., J. Phys.:Condens. Matter 21 395502 (2009);
         "P. Giannozzi et al., J. Phys.:Condens. Matter 29 465901 (2017);
          URL http://www.quantum-espresso.org", 
     in publications or presentations arising from this work. More details at
     http://www.quantum-espresso.org/quote

     Parallel version (MPI), running on     6 processors

     MPI processes distributed on     1 nodes
     R & G space division:  proc/nbgrp/npool/nimage =       6
     Reading input from degauss-0.07.in

     Current dimensions of program PWSCF are:
     Max number of different atomic species (ntypx) = 10
     Max number of k-points (npk) =  40000
     Max angular momentum in pseudopotentials (lmaxx) =  3
               file Cr.pbe-spn-rrkjus_psl.1.0.0.UPF: wavefunction(s)  3P renormalized
               file Cr.pbe-spn-rrkjus_psl.1.0.0.UPF: wavefunction(s)  3P renormalized

     Subspace diagonalization in iterative solution of the eigenvalue problem:
     a serial algorithm will be used

     Message from routine setup:
     DEPRECATED: symmetry with ibrav=0, use correct ibrav instead

     Parallelization info
     --------------------
     sticks:   dense  smooth     PW     G-vecs:    dense   smooth      PW
     Min         320     129     39                10576     2689     453
     Max         321     131     41                10577     2690     454
     Sum        1925     777    241                63461    16135    2721



     bravais-lattice index     =            0
     lattice parameter (alat)  =       5.4991  a.u.
     unit-cell volume          =     166.2936 (a.u.)^3
     number of atoms/cell      =            2
     number of atomic types    =            2
     number of electrons       =        28.00
     number of Kohn-Sham states=           18
     kinetic-energy cutoff     =      80.0000  Ry
     charge density cutoff     =     800.0000  Ry
     convergence threshold     =      1.0E-06
     mixing beta               =       0.7000
     number of iterations used =            8  plain     mixing
     Exchange-correlation      = PBE ( 1  4  3  4 0 0)

     celldm(1)=   5.499103  celldm(2)=   0.000000  celldm(3)=   0.000000
     celldm(4)=   0.000000  celldm(5)=   0.000000  celldm(6)=   0.000000

     crystal axes: (cart. coord. in units of alat)
               a(1) = (   1.000000   0.000000   0.000000 )  
               a(2) = (   0.000000   1.000000   0.000000 )  
               a(3) = (   0.000000   0.000000   1.000000 )  

     reciprocal axes: (cart. coord. in units 2 pi/alat)
               b(1) = (  1.000000  0.000000  0.000000 )  
               b(2) = (  0.000000  1.000000  0.000000 )  
               b(3) = (  0.000000  0.000000  1.000000 )  


     PseudoPot. # 1 for Cr read from file:
     /home/cristian/Escritorio/Proyecto_Grafeno/pseudopotenciales/Cr.pbe-spn-rrkjus_psl.1.0.0.UPF
     MD5 check sum: 793d051e4f89dd1e3290b85340a92c0a
     Pseudo is Ultrasoft + core correction, Zval = 14.0
     Generated using "atomic" code by A. Dal Corso v.6.2.2
     Using radial grid of 1183 points,  6 beta functions with: 
                l(1) =   0
                l(2) =   0
                l(3) =   1
                l(4) =   1
                l(5) =   2
                l(6) =   2
     Q(r) pseudized with 0 coefficients 


     PseudoPot. # 2 for Cr read from file:
     /home/cristian/Escritorio/Proyecto_Grafeno/pseudopotenciales/Cr.pbe-spn-rrkjus_psl.1.0.0.UPF
     MD5 check sum: 793d051e4f89dd1e3290b85340a92c0a
     Pseudo is Ultrasoft + core correction, Zval = 14.0
     Generated using "atomic" code by A. Dal Corso v.6.2.2
     Using radial grid of 1183 points,  6 beta functions with: 
                l(1) =   0
                l(2) =   0
                l(3) =   1
                l(4) =   1
                l(5) =   2
                l(6) =   2
     Q(r) pseudized with 0 coefficients 


     atomic species   valence    mass     pseudopotential
        Cr1           14.00    51.99610     Cr( 1.00)
        Cr2           14.00    51.99610     Cr( 1.00)

     Starting magnetic structure 
     atomic species   magnetization
        Cr1          0.100
        Cr2         -0.100

     48 Sym. Ops., with inversion, found



   Cartesian axes

     site n.     atom                  positions (alat units)
         1           Cr1 tau(   1) = (   0.0000000   0.0000000   0.0000000  )
         2           Cr2 tau(   2) = (   0.5000000   0.5000000   0.5000000  )

     number of k points=    35  Methfessel-Paxton smearing, width (Ry)=  0.0700
                       cart. coord. in units 2pi/alat
        k(    1) = (   0.0500000   0.0500000   0.0500000), wk =   0.0080000
        k(    2) = (   0.0500000   0.0500000   0.1500000), wk =   0.0240000
        k(    3) = (   0.0500000   0.0500000   0.2500000), wk =   0.0240000
        k(    4) = (   0.0500000   0.0500000   0.3500000), wk =   0.0240000
        k(    5) = (   0.0500000   0.0500000   0.4500000), wk =   0.0240000
        k(    6) = (   0.0500000   0.1500000   0.1500000), wk =   0.0240000
        k(    7) = (   0.0500000   0.1500000   0.2500000), wk =   0.0480000
        k(    8) = (   0.0500000   0.1500000   0.3500000), wk =   0.0480000
        k(    9) = (   0.0500000   0.1500000   0.4500000), wk =   0.0480000
        k(   10) = (   0.0500000   0.2500000   0.2500000), wk =   0.0240000
        k(   11) = (   0.0500000   0.2500000   0.3500000), wk =   0.0480000
        k(   12) = (   0.0500000   0.2500000   0.4500000), wk =   0.0480000
        k(   13) = (   0.0500000   0.3500000   0.3500000), wk =   0.0240000
        k(   14) = (   0.0500000   0.3500000   0.4500000), wk =   0.0480000
        k(   15) = (   0.0500000   0.4500000   0.4500000), wk =   0.0240000
        k(   16) = (   0.1500000   0.1500000   0.1500000), wk =   0.0080000
        k(   17) = (   0.1500000   0.1500000   0.2500000), wk =   0.0240000
        k(   18) = (   0.1500000   0.1500000   0.3500000), wk =   0.0240000
        k(   19) = (   0.1500000   0.1500000   0.4500000), wk =   0.0240000
        k(   20) = (   0.1500000   0.2500000   0.2500000), wk =   0.0240000
        k(   21) = (   0.1500000   0.2500000   0.3500000), wk =   0.0480000
        k(   22) = (   0.1500000   0.2500000   0.4500000), wk =   0.0480000
        k(   23) = (   0.1500000   0.3500000   0.3500000), wk =   0.0240000
        k(   24) = (   0.1500000   0.3500000   0.4500000), wk =   0.0480000
        k(   25) = (   0.1500000   0.4500000   0.4500000), wk =   0.0240000
        k(   26) = (   0.2500000   0.2500000   0.2500000), wk =   0.0080000
        k(   27) = (   0.2500000   0.2500000   0.3500000), wk =   0.0240000
        k(   28) = (   0.2500000   0.2500000   0.4500000), wk =   0.0240000
        k(   29) = (   0.2500000   0.3500000   0.3500000), wk =   0.0240000
        k(   30) = (   0.2500000   0.3500000   0.4500000), wk =   0.0480000
        k(   31) = (   0.2500000   0.4500000   0.4500000), wk =   0.0240000
        k(   32) = (   0.3500000   0.3500000   0.3500000), wk =   0.0080000
        k(   33) = (   0.3500000   0.3500000   0.4500000), wk =   0.0240000
        k(   34) = (   0.3500000   0.4500000   0.4500000), wk =   0.0240000
        k(   35) = (   0.4500000   0.4500000   0.4500000), wk =   0.0080000

     Dense  grid:    63461 G-vectors     FFT dimensions: (  50,  50,  50)

     Smooth grid:    16135 G-vectors     FFT dimensions: (  32,  32,  32)

     Estimated max dynamical RAM per process >      51.30 MB

     Estimated total dynamical RAM >     307.81 MB
     Generating pointlists ...
     new r_m :   0.3572 (alat units)  1.9645 (a.u.) for type    1
     new r_m :   0.3572 (alat units)  1.9645 (a.u.) for type    2

     Check: negative core charge=   -0.000002

     Initial potential from superposition of free atoms

     starting charge   27.99845, renormalised to   28.00000
     Starting wfcs are   20 randomized atomic wfcs

     total cpu time spent up to now is        2.3 secs

     Self-consistent Calculation

     iteration #  1     ecut=    80.00 Ry     beta= 0.70
     Davidson diagonalization with overlap
     ethr =  1.00E-02,  avg # of iterations =  2.5

     Threshold (ethr) on eigenvalues was too large:
     Diagonalizing with lowered threshold

     Davidson diagonalization with overlap
     ethr =  6.58E-04,  avg # of iterations =  2.3

     total cpu time spent up to now is        5.1 secs

     total energy              =    -349.88877940 Ry
     Harris-Foulkes estimate   =    -350.01787210 Ry
     estimated scf accuracy    <       0.19753558 Ry

     total magnetization       =     0.00 Bohr mag/cell
     absolute magnetization    =     2.13 Bohr mag/cell

     iteration #  2     ecut=    80.00 Ry     beta= 0.70
     Davidson diagonalization with overlap
     ethr =  7.05E-04,  avg # of iterations =  3.1

     total cpu time spent up to now is        7.1 secs

     total energy              =    -349.91684630 Ry
     Harris-Foulkes estimate   =    -350.04837356 Ry
     estimated scf accuracy    <       0.28873782 Ry

     total magnetization       =     0.00 Bohr mag/cell
     absolute magnetization    =     2.70 Bohr mag/cell

     iteration #  3     ecut=    80.00 Ry     beta= 0.70
     Davidson diagonalization with overlap
     ethr =  7.05E-04,  avg # of iterations =  3.0

     total cpu time spent up to now is        8.8 secs

     total energy              =    -349.97562684 Ry
     Harris-Foulkes estimate   =    -349.97646789 Ry
     estimated scf accuracy    <       0.00308032 Ry

     total magnetization       =    -0.00 Bohr mag/cell
     absolute magnetization    =     2.41 Bohr mag/cell

     iteration #  4     ecut=    80.00 Ry     beta= 0.70
     Davidson diagonalization with overlap
     ethr =  1.10E-05,  avg # of iterations =  3.9

     total cpu time spent up to now is       11.0 secs

     total energy              =    -349.96734474 Ry
     Harris-Foulkes estimate   =    -349.98731869 Ry
     estimated scf accuracy    <       0.22583978 Ry

     total magnetization       =     0.01 Bohr mag/cell
     absolute magnetization    =     2.44 Bohr mag/cell

     iteration #  5     ecut=    80.00 Ry     beta= 0.70
     Davidson diagonalization with overlap
     ethr =  1.10E-05,  avg # of iterations =  4.0

     total cpu time spent up to now is       13.0 secs

     total energy              =    -349.97725166 Ry
     Harris-Foulkes estimate   =    -349.97721116 Ry
     estimated scf accuracy    <       0.00008330 Ry

     total magnetization       =    -0.00 Bohr mag/cell
     absolute magnetization    =     2.51 Bohr mag/cell

     iteration #  6     ecut=    80.00 Ry     beta= 0.70
     Davidson diagonalization with overlap
     ethr =  2.97E-07,  avg # of iterations =  3.1

     total cpu time spent up to now is       14.5 secs

     total energy              =    -349.97730142 Ry
     Harris-Foulkes estimate   =    -349.97726730 Ry
     estimated scf accuracy    <       0.00005435 Ry

     total magnetization       =    -0.00 Bohr mag/cell
     absolute magnetization    =     2.53 Bohr mag/cell

     iteration #  7     ecut=    80.00 Ry     beta= 0.70
     Davidson diagonalization with overlap
     ethr =  1.94E-07,  avg # of iterations =  3.9

     total cpu time spent up to now is       16.2 secs

     total energy              =    -349.97710437 Ry
     Harris-Foulkes estimate   =    -349.97741031 Ry
     estimated scf accuracy    <       0.00005616 Ry

     total magnetization       =    -0.00 Bohr mag/cell
     absolute magnetization    =     2.63 Bohr mag/cell

     iteration #  8     ecut=    80.00 Ry     beta= 0.70
     Davidson diagonalization with overlap
     ethr =  1.94E-07,  avg # of iterations =  4.7

     total cpu time spent up to now is       18.3 secs

     total energy              =    -349.97756726 Ry
     Harris-Foulkes estimate   =    -349.97760644 Ry
     estimated scf accuracy    <       0.00001047 Ry

     total magnetization       =     0.00 Bohr mag/cell
     absolute magnetization    =     2.85 Bohr mag/cell

     iteration #  9     ecut=    80.00 Ry     beta= 0.70
     Davidson diagonalization with overlap
     ethr =  3.74E-08,  avg # of iterations =  4.5

     total cpu time spent up to now is       20.2 secs

     total energy              =    -349.97761603 Ry
     Harris-Foulkes estimate   =    -349.97764099 Ry
     estimated scf accuracy    <       0.00000285 Ry

     total magnetization       =    -0.00 Bohr mag/cell
     absolute magnetization    =     2.94 Bohr mag/cell

     iteration # 10     ecut=    80.00 Ry     beta= 0.70
     Davidson diagonalization with overlap
     ethr =  1.02E-08,  avg # of iterations =  4.6

     Magnetic moment per site:
     atom:    1    charge:   12.2749    magn:    1.3958    constr:    0.0000
     atom:    2    charge:   12.2750    magn:   -1.3958    constr:    0.0000

     total cpu time spent up to now is       22.3 secs

     End of self-consistent calculation

 ------ SPIN UP ------------


          k = 0.0500 0.0500 0.0500 (  2007 PWs)   bands (ev):

   -54.2354 -52.7228 -25.5593 -25.5593 -25.5515 -23.9344 -23.9251 -23.9251
    10.6173  14.2691  14.2691  17.2096  17.2096  17.3511  19.3398  19.3398
    20.4029  20.6656

          k = 0.0500 0.0500 0.1500 (  2005 PWs)   bands (ev):

   -54.2312 -52.7228 -25.5771 -25.5500 -25.5434 -23.9652 -23.9314 -23.9313
    11.0235  14.4701  14.4760  17.1222  17.1666  17.5112  19.0897  19.4472
    19.8850  20.2060

          k = 0.0500 0.0500 0.2500 (  1997 PWs)   bands (ev):

   -54.2243 -52.7229 -25.6040 -25.5348 -25.5320 -24.0160 -23.9419 -23.9402
    11.7874  14.7796  14.8552  17.0702  17.1033  17.7027  18.6307  19.3101
    19.5655  19.6267

          k = 0.0500 0.0500 0.3500 (  2010 PWs)   bands (ev):

   -54.2175 -52.7230 -25.6306 -25.5208 -25.5194 -24.0665 -23.9526 -23.9494
    12.7984  14.9478  15.3828  17.0259  17.0840  17.8208  18.0652  18.9529
    18.9940  19.8253

          k = 0.0500 0.0500 0.4500 (  2013 PWs)   bands (ev):

   -54.2132 -52.7231 -25.6468 -25.5140 -25.5098 -24.0976 -23.9593 -23.9551
    13.8402  14.6960  15.9310  16.8451  17.1540  17.6456  17.7813  18.6534
    18.9334  19.8221

          k = 0.0500 0.1500 0.1500 (  2001 PWs)   bands (ev):

   -54.2273 -52.7224 -25.5872 -25.5545 -25.5377 -23.9843 -23.9406 -23.9363
    11.4107  14.6301  14.7041  16.9357  17.0666  17.6998  19.1145  19.3739
    19.3821  19.8999

          k = 0.0500 0.1500 0.2500 (  1999 PWs)   bands (ev):

   -54.2211 -52.7218 -25.6132 -25.5526 -25.5281 -24.0197 -23.9514 -23.9433
    12.1300  14.8825  15.0863  16.7862  16.9441  17.7088  18.8437  19.0848
    19.3767  19.5356

          k = 0.0500 0.1500 0.3500 (  2004 PWs)   bands (ev):

   -54.2148 -52.7211 -25.6410 -25.5513 -25.5163 -24.0561 -23.9618 -23.9495
    13.0600  15.0091  15.5394  16.7138  16.8603  17.4633  18.4579  18.9294
    19.2616  19.7744

          k = 0.0500 0.1500 0.4500 (  2011 PWs)   bands (ev):

   -54.2109 -52.7208 -25.6582 -25.5513 -25.5084 -24.0783 -23.9683 -23.9531
    13.9940  14.7298  15.9844  16.5787  16.9177  17.2116  18.2117  18.7681
    19.4773  20.0726

          k = 0.0500 0.2500 0.2500 (  2007 PWs)   bands (ev):

   -54.2158 -52.7199 -25.6332 -25.5787 -25.5196 -24.0288 -23.9645 -23.9473
    12.7390  14.9354  15.5519  16.5208  16.8258  17.3608  18.8971  19.1128
    19.3697  19.4633

          k = 0.0500 0.2500 0.3500 (  2005 PWs)   bands (ev):

   -54.2105 -52.7181 -25.6591 -25.6001 -25.5102 -24.0408 -23.9752 -23.9499
    13.4575  14.8521  16.0615  16.3746  16.8664  16.9621  18.7449  19.0373
    19.6185  19.8021

          k = 0.0500 0.2500 0.4500 (  2017 PWs)   bands (ev):

   -54.2072 -52.7170 -25.6772 -25.6117 -25.5041 -24.0491 -23.9813 -23.9510
    14.0986  14.5684  16.3476  16.4113  16.6571  17.0566  18.7591  18.9566
    19.8477  20.3699

          k = 0.0500 0.3500 0.3500 (  2016 PWs)   bands (ev):

   -54.2061 -52.7151 -25.6800 -25.6457 -25.5038 -24.0281 -23.9872 -23.9496
    13.8072  14.5829  16.1309  16.4906  16.7697  17.2836  18.9070  19.2518
    19.5538  20.2934

          k = 0.0500 0.3500 0.4500 (  2018 PWs)   bands (ev):

   -54.2034 -52.7133 -25.6966 -25.6699 -25.4998 -24.0221 -23.9935 -23.9488
    14.0530  14.3197  16.0573  16.1895  17.3066  17.7981  19.0349  19.2738
    19.7872  20.6730

          k = 0.0500 0.4500 0.4500 (  2011 PWs)   bands (ev):

   -54.2011 -52.7109 -25.7092 -25.7044 -25.4972 -24.0065 -24.0005 -23.9475
    13.9821  14.1618  15.9042  15.9467  18.2483  18.5993  19.1941  19.4401
    19.4812  20.4710

          k = 0.1500 0.1500 0.1500 (  1992 PWs)   bands (ev):

   -54.2238 -52.7216 -25.5767 -25.5767 -25.5402 -23.9916 -23.9481 -23.9481
    11.7863  14.8571  14.8571  16.8399  16.8399  17.6541  19.0785  19.2563
    19.2563  20.2579

          k = 0.1500 0.1500 0.2500 (  2000 PWs)   bands (ev):

   -54.2180 -52.7204 -25.6107 -25.5595 -25.5466 -24.0156 -23.9606 -23.9547
    12.4768  15.1416  15.1726  16.6627  16.6781  17.3072  19.0241  19.2508
    19.4766  19.6588

          k = 0.1500 0.1500 0.3500 (  2007 PWs)   bands (ev):

   -54.2122 -52.7192 -25.6438 -25.5541 -25.5420 -24.0459 -23.9734 -23.9544
    13.3505  15.2536  15.5108  16.4795  16.6713  17.0483  18.7380  19.1641
    19.4970  19.8500

          k = 0.1500 0.1500 0.4500 (  2008 PWs)   bands (ev):

   -54.2086 -52.7184 -25.6640 -25.5592 -25.5310 -24.0652 -23.9815 -23.9532
    14.2091  14.8883  15.8851  16.2434  16.8290  17.0286  18.5174  18.9021
    19.4668  20.2024

          k = 0.1500 0.2500 0.2500 (  2005 PWs)   bands (ev):

   -54.2130 -52.7182 -25.6206 -25.5843 -25.5486 -24.0183 -23.9743 -23.9652
    13.0895  15.2286  15.6057  16.4122  16.5301  16.8095  19.1878  19.4261
    19.4392  19.7519

          k = 0.1500 0.2500 0.3500 (  2005 PWs)   bands (ev):

   -54.2080 -52.7160 -25.6513 -25.5989 -25.5397 -24.0335 -23.9878 -23.9632
    13.7954  15.1548  15.9391  16.2571  16.4901  16.6927  19.0892  19.1448
    19.5605  20.2965

          k = 0.1500 0.2500 0.4500 (  2011 PWs)   bands (ev):

   -54.2049 -52.7147 -25.6742 -25.6062 -25.5319 -24.0458 -23.9969 -23.9585
    14.3940  14.8532  16.0239  16.1761  16.5219  17.0117  18.9751  19.0326
    19.5156  20.2891

          k = 0.1500 0.3500 0.3500 (  2017 PWs)   bands (ev):

   -54.2038 -52.7129 -25.6652 -25.6426 -25.5314 -24.0288 -23.9993 -23.9678
    14.1603  14.8803  16.0239  16.2114  16.6884  16.8682  19.0974  19.3512
    19.5087  20.3471

          k = 0.1500 0.3500 0.4500 (  2018 PWs)   bands (ev):

   -54.2012 -52.7110 -25.6852 -25.6586 -25.5255 -24.0287 -24.0083 -23.9659
    14.3570  14.6475  15.9354  16.0396  17.0579  17.4320  19.1084  19.3806
    19.4773  20.3140

          k = 0.1500 0.4500 0.4500 (  2021 PWs)   bands (ev):

   -54.1989 -52.7086 -25.6931 -25.6900 -25.5211 -24.0194 -24.0142 -23.9707
    14.2642  14.5149  15.8274  15.8566  17.8574  17.9518  19.1673  19.2070
    19.5999  20.2874

          k = 0.2500 0.2500 0.2500 (  2022 PWs)   bands (ev):

   -54.2085 -52.7155 -25.5999 -25.5999 -25.5887 -24.0054 -23.9904 -23.9904
    13.6982  15.6877  15.6877  16.2314  16.2496  16.2496  19.3777  19.3777
    19.8050  19.8050

          k = 0.2500 0.2500 0.3500 (  2011 PWs)   bands (ev):

   -54.2041 -52.7127 -25.6427 -25.6011 -25.5787 -24.0248 -24.0070 -23.9833
    14.3440  15.5697  15.7535  16.1100  16.1131  16.4778  19.2634  19.4551
    19.4591  20.0393

          k = 0.2500 0.2500 0.4500 (  2009 PWs)   bands (ev):

   -54.2013 -52.7110 -25.6703 -25.6074 -25.5654 -24.0415 -24.0174 -23.9743
    14.7619  15.2182  15.7726  16.0469  16.2472  16.9228  19.1433  19.3256
    19.3427  20.2031

          k = 0.2500 0.3500 0.3500 (  2012 PWs)   bands (ev):

   -54.2001 -52.7093 -25.6408 -25.6382 -25.5752 -24.0314 -24.0194 -23.9954
    14.7571  15.3706  15.8606  15.8786  16.4055  16.5367  19.2370  19.3844
    19.6354  20.0557

          k = 0.2500 0.3500 0.4500 (  2015 PWs)   bands (ev):

   -54.1977 -52.7073 -25.6674 -25.6398 -25.5662 -24.0400 -24.0317 -23.9938
    14.8204  15.2280  15.7439  15.8965  16.6152  17.0309  19.1778  19.2553
    19.6561  20.1996

          k = 0.2500 0.4500 0.4500 (  2023 PWs)   bands (ev):

   -54.1954 -52.7050 -25.6663 -25.6662 -25.5597 -24.0409 -24.0370 -24.0078
    14.7318  15.1439  15.7136  15.7343  17.2467  17.2743  19.1042  19.1825
    19.8181  20.2609

          k = 0.3500 0.3500 0.3500 (  2010 PWs)   bands (ev):

   -54.1964 -52.7058 -25.6370 -25.6156 -25.6156 -24.0401 -24.0401 -24.0168
    15.1849  15.7080  15.7080  15.7962  16.3649  16.3649  19.2500  19.2500
    19.9637  19.9637

          k = 0.3500 0.3500 0.4500 (  2007 PWs)   bands (ev):

   -54.1941 -52.7035 -25.6508 -25.6261 -25.5998 -24.0533 -24.0519 -24.0236
    15.1539  15.5893  15.6188  16.1254  16.2511  16.7882  19.1584  19.1830
    19.9411  20.1914

          k = 0.3500 0.4500 0.4500 (  2006 PWs)   bands (ev):

   -54.1919 -52.7013 -25.6418 -25.6385 -25.5979 -24.0628 -24.0604 -24.0448
    15.2015  15.5871  15.6169  15.9389  16.7246  16.7740  19.0789  19.1519
    20.0803  20.2674

          k = 0.4500 0.4500 0.4500 (  1974 PWs)   bands (ev):

   -54.1897 -52.6989 -25.6267 -25.6209 -25.6209 -24.0754 -24.0754 -24.0687
    15.4588  15.5700  15.5700  16.4619  16.4897  16.4897  19.0753  19.0753
    20.2756  20.2756

 ------ SPIN DOWN ----------


          k = 0.0500 0.0500 0.0500 (  2007 PWs)   bands (ev):

   -54.2356 -52.7227 -25.5594 -25.5594 -25.5516 -23.9343 -23.9250 -23.9250
    10.6173  14.2691  14.2691  17.2096  17.2096  17.3511  19.3397  19.3397
    20.4029  20.6656

          k = 0.0500 0.0500 0.1500 (  2005 PWs)   bands (ev):

   -54.2313 -52.7227 -25.5772 -25.5501 -25.5435 -23.9652 -23.9314 -23.9313
    11.0236  14.4700  14.4760  17.1221  17.1665  17.5111  19.0897  19.4472
    19.8850  20.2060

          k = 0.0500 0.0500 0.2500 (  1997 PWs)   bands (ev):

   -54.2245 -52.7228 -25.6041 -25.5349 -25.5320 -24.0159 -23.9418 -23.9402
    11.7875  14.7796  14.8552  17.0702  17.1033  17.7027  18.6307  19.3102
    19.5656  19.6267

          k = 0.0500 0.0500 0.3500 (  2010 PWs)   bands (ev):

   -54.2176 -52.7229 -25.6306 -25.5209 -25.5195 -24.0665 -23.9525 -23.9493
    12.7984  14.9478  15.3827  17.0259  17.0839  17.8207  18.0652  18.9530
    18.9940  19.8252

          k = 0.0500 0.0500 0.4500 (  2013 PWs)   bands (ev):

   -54.2133 -52.7230 -25.6469 -25.5141 -25.5099 -24.0975 -23.9592 -23.9550
    13.8402  14.6960  15.9310  16.8450  17.1539  17.6456  17.7812  18.6534
    18.9334  19.8221

          k = 0.0500 0.1500 0.1500 (  2001 PWs)   bands (ev):

   -54.2275 -52.7223 -25.5873 -25.5546 -25.5377 -23.9842 -23.9405 -23.9363
    11.4107  14.6300  14.7040  16.9357  17.0666  17.6997  19.1145  19.3739
    19.3821  19.8999

          k = 0.0500 0.1500 0.2500 (  1999 PWs)   bands (ev):

   -54.2212 -52.7217 -25.6133 -25.5527 -25.5282 -24.0197 -23.9514 -23.9433
    12.1301  14.8824  15.0863  16.7862  16.9440  17.7087  18.8437  19.0849
    19.3767  19.5356

          k = 0.0500 0.1500 0.3500 (  2004 PWs)   bands (ev):

   -54.2149 -52.7211 -25.6411 -25.5514 -25.5164 -24.0560 -23.9617 -23.9495
    13.0600  15.0091  15.5394  16.7138  16.8603  17.4633  18.4578  18.9295
    19.2616  19.7744

          k = 0.0500 0.1500 0.4500 (  2011 PWs)   bands (ev):

   -54.2110 -52.7207 -25.6583 -25.5514 -25.5085 -24.0783 -23.9682 -23.9531
    13.9940  14.7298  15.9843  16.5787  16.9176  17.2116  18.2117  18.7681
    19.4773  20.0726

          k = 0.0500 0.2500 0.2500 (  2007 PWs)   bands (ev):

   -54.2159 -52.7199 -25.6333 -25.5788 -25.5197 -24.0288 -23.9645 -23.9472
    12.7390  14.9353  15.5519  16.5208  16.8257  17.3608  18.8971  19.1128
    19.3697  19.4632

          k = 0.0500 0.2500 0.3500 (  2005 PWs)   bands (ev):

   -54.2106 -52.7180 -25.6592 -25.6002 -25.5103 -24.0408 -23.9752 -23.9499
    13.4575  14.8521  16.0614  16.3746  16.8664  16.9620  18.7449  19.0373
    19.6185  19.8021

          k = 0.0500 0.2500 0.4500 (  2017 PWs)   bands (ev):

   -54.2073 -52.7169 -25.6772 -25.6118 -25.5042 -24.0491 -23.9813 -23.9509
    14.0986  14.5684  16.3476  16.4112  16.6571  17.0566  18.7591  18.9566
    19.8476  20.3699

          k = 0.0500 0.3500 0.3500 (  2016 PWs)   bands (ev):

   -54.2062 -52.7150 -25.6801 -25.6458 -25.5039 -24.0281 -23.9871 -23.9496
    13.8072  14.5829  16.1309  16.4905  16.7697  17.2836  18.9070  19.2518
    19.5538  20.2934

          k = 0.0500 0.3500 0.4500 (  2018 PWs)   bands (ev):

   -54.2036 -52.7132 -25.6967 -25.6700 -25.4999 -24.0221 -23.9935 -23.9488
    14.0530  14.3197  16.0573  16.1895  17.3065  17.7981  19.0349  19.2738
    19.7872  20.6730

          k = 0.0500 0.4500 0.4500 (  2011 PWs)   bands (ev):

   -54.2012 -52.7109 -25.7093 -25.7045 -25.4972 -24.0064 -24.0005 -23.9474
    13.9821  14.1618  15.9042  15.9467  18.2482  18.5993  19.1941  19.4401
    19.4812  20.4710

          k = 0.1500 0.1500 0.1500 (  1992 PWs)   bands (ev):

   -54.2239 -52.7216 -25.5768 -25.5768 -25.5403 -23.9916 -23.9481 -23.9481
    11.7863  14.8571  14.8571  16.8398  16.8398  17.6540  19.0785  19.2563
    19.2563  20.2579

          k = 0.1500 0.1500 0.2500 (  2000 PWs)   bands (ev):

   -54.2181 -52.7203 -25.6108 -25.5596 -25.5467 -24.0156 -23.9606 -23.9547
    12.4768  15.1416  15.1726  16.6626  16.6780  17.3072  19.0241  19.2508
    19.4766  19.6588

          k = 0.1500 0.1500 0.3500 (  2007 PWs)   bands (ev):

   -54.2123 -52.7191 -25.6439 -25.5542 -25.5421 -24.0458 -23.9734 -23.9544
    13.3505  15.2535  15.5108  16.4795  16.6713  17.0483  18.7380  19.1641
    19.4970  19.8500

          k = 0.1500 0.1500 0.4500 (  2008 PWs)   bands (ev):

   -54.2087 -52.7184 -25.6641 -25.5593 -25.5311 -24.0652 -23.9815 -23.9532
    14.2091  14.8883  15.8851  16.2434  16.8290  17.0286  18.5174  18.9021
    19.4667  20.2025

          k = 0.1500 0.2500 0.2500 (  2005 PWs)   bands (ev):

   -54.2131 -52.7182 -25.6207 -25.5844 -25.5487 -24.0182 -23.9742 -23.9652
    13.0895  15.2286  15.6057  16.4122  16.5301  16.8095  19.1878  19.4262
    19.4391  19.7519

          k = 0.1500 0.2500 0.3500 (  2005 PWs)   bands (ev):

   -54.2081 -52.7160 -25.6514 -25.5990 -25.5398 -24.0334 -23.9878 -23.9632
    13.7954  15.1548  15.9391  16.2571  16.4901  16.6927  19.0892  19.1448
    19.5605  20.2965

          k = 0.1500 0.2500 0.4500 (  2011 PWs)   bands (ev):

   -54.2051 -52.7146 -25.6742 -25.6063 -25.5320 -24.0457 -23.9968 -23.9584
    14.3941  14.8532  16.0238  16.1761  16.5219  17.0118  18.9751  19.0326
    19.5155  20.2891

          k = 0.1500 0.3500 0.3500 (  2017 PWs)   bands (ev):

   -54.2040 -52.7128 -25.6653 -25.6427 -25.5315 -24.0287 -23.9993 -23.9677
    14.1603  14.8802  16.0239  16.2114  16.6884  16.8682  19.0974  19.3512
    19.5087  20.3471

          k = 0.1500 0.3500 0.4500 (  2018 PWs)   bands (ev):

   -54.2014 -52.7109 -25.6852 -25.6587 -25.5256 -24.0287 -24.0083 -23.9658
    14.3570  14.6475  15.9354  16.0396  17.0578  17.4321  19.1083  19.3806
    19.4773  20.3141

          k = 0.1500 0.4500 0.4500 (  2021 PWs)   bands (ev):

   -54.1991 -52.7086 -25.6932 -25.6900 -25.5212 -24.0193 -24.0142 -23.9706
    14.2642  14.5149  15.8273  15.8565  17.8574  17.9518  19.1673  19.2069
    19.5999  20.2875

          k = 0.2500 0.2500 0.2500 (  2022 PWs)   bands (ev):

   -54.2087 -52.7154 -25.6000 -25.6000 -25.5888 -24.0054 -23.9904 -23.9904
    13.6982  15.6877  15.6877  16.2314  16.2496  16.2496  19.3777  19.3777
    19.8050  19.8050

          k = 0.2500 0.2500 0.3500 (  2011 PWs)   bands (ev):

   -54.2042 -52.7126 -25.6427 -25.6012 -25.5788 -24.0248 -24.0069 -23.9833
    14.3440  15.5697  15.7535  16.1100  16.1131  16.4778  19.2634  19.4551
    19.4590  20.0393

          k = 0.2500 0.2500 0.4500 (  2009 PWs)   bands (ev):

   -54.2014 -52.7109 -25.6704 -25.6075 -25.5655 -24.0415 -24.0174 -23.9743
    14.7619  15.2182  15.7726  16.0469  16.2472  16.9228  19.1433  19.3256
    19.3427  20.2031

          k = 0.2500 0.3500 0.3500 (  2012 PWs)   bands (ev):

   -54.2002 -52.7093 -25.6408 -25.6383 -25.5753 -24.0313 -24.0194 -23.9954
    14.7571  15.3706  15.8606  15.8786  16.4055  16.5367  19.2369  19.3844
    19.6354  20.0557

          k = 0.2500 0.3500 0.4500 (  2015 PWs)   bands (ev):

   -54.1978 -52.7072 -25.6675 -25.6399 -25.5663 -24.0400 -24.0317 -23.9938
    14.8204  15.2280  15.7439  15.8965  16.6152  17.0310  19.1778  19.2552
    19.6561  20.1997

          k = 0.2500 0.4500 0.4500 (  2023 PWs)   bands (ev):

   -54.1955 -52.7049 -25.6663 -25.6662 -25.5598 -24.0408 -24.0369 -24.0078
    14.7318  15.1439  15.7136  15.7343  17.2468  17.2743  19.1041  19.1824
    19.8181  20.2609

          k = 0.3500 0.3500 0.3500 (  2010 PWs)   bands (ev):

   -54.1965 -52.7057 -25.6371 -25.6157 -25.6157 -24.0401 -24.0401 -24.0168
    15.1849  15.7080  15.7080  15.7962  16.3649  16.3649  19.2500  19.2500
    19.9637  19.9637

          k = 0.3500 0.3500 0.4500 (  2007 PWs)   bands (ev):

   -54.1942 -52.7035 -25.6509 -25.6262 -25.5998 -24.0532 -24.0518 -24.0235
    15.1539  15.5892  15.6188  16.1254  16.2511  16.7882  19.1583  19.1829
    19.9411  20.1914

          k = 0.3500 0.4500 0.4500 (  2006 PWs)   bands (ev):

   -54.1920 -52.7012 -25.6419 -25.6386 -25.5980 -24.0628 -24.0604 -24.0448
    15.2014  15.5871  15.6169  15.9389  16.7246  16.7741  19.0788  19.1518
    20.0803  20.2674

          k = 0.4500 0.4500 0.4500 (  1974 PWs)   bands (ev):

   -54.1898 -52.6989 -25.6268 -25.6210 -25.6210 -24.0753 -24.0753 -24.0687
    15.4587  15.5700  15.5700  16.4620  16.4897  16.4897  19.0752  19.0752
    20.2756  20.2756

     the Fermi energy is    18.1727 ev

!    total energy              =    -349.97764938 Ry
     Harris-Foulkes estimate   =    -349.97764933 Ry
     estimated scf accuracy    <       0.00000003 Ry

     The total energy is the sum of the following terms:

     one-electron contribution =    -121.56554900 Ry
     hartree contribution      =      75.53683871 Ry
     xc contribution           =     -44.55802588 Ry
     ewald contribution        =    -259.42040003 Ry
     smearing contrib. (-TS)   =       0.02948682 Ry

     total magnetization       =    -0.00 Bohr mag/cell
     absolute magnetization    =     2.99 Bohr mag/cell

     convergence has been achieved in  10 iterations

     Writing output data file degauss-0.07.save/

     init_run     :      0.88s CPU      0.91s WALL (       1 calls)
     electrons    :     19.53s CPU     19.95s WALL (       1 calls)

     Called by init_run:
     wfcinit      :      0.43s CPU      0.43s WALL (       1 calls)
     potinit      :      0.07s CPU      0.07s WALL (       1 calls)
     hinit0       :      0.27s CPU      0.28s WALL (       1 calls)

     Called by electrons:
     c_bands      :     15.73s CPU     16.05s WALL (      11 calls)
     sum_band     :      2.77s CPU      2.85s WALL (      11 calls)
     v_of_rho     :      0.39s CPU      0.40s WALL (      11 calls)
     newd         :      0.66s CPU      0.69s WALL (      11 calls)
     mix_rho      :      0.03s CPU      0.03s WALL (      11 calls)

     Called by c_bands:
     init_us_2    :      0.22s CPU      0.23s WALL (    1610 calls)
     cegterg      :     14.85s CPU     15.16s WALL (     770 calls)

     Called by sum_band:
     sum_band:bec :      0.01s CPU      0.01s WALL (     770 calls)
     addusdens    :      1.18s CPU      1.19s WALL (      11 calls)

     Called by *egterg:
     h_psi        :      7.89s CPU      8.06s WALL (    3612 calls)
     s_psi        :      0.85s CPU      0.88s WALL (    3612 calls)
     g_psi        :      0.07s CPU      0.08s WALL (    2772 calls)
     cdiaghg      :      2.29s CPU      2.32s WALL (    3472 calls)

     Called by h_psi:
     h_psi:pot    :      7.85s CPU      8.02s WALL (    3612 calls)
     h_psi:calbec :      1.20s CPU      1.23s WALL (    3612 calls)
     vloc_psi     :      5.78s CPU      5.90s WALL (    3612 calls)
     add_vuspsi   :      0.86s CPU      0.89s WALL (    3612 calls)

     General routines
     calbec       :      1.57s CPU      1.62s WALL (    4382 calls)
     fft          :      0.18s CPU      0.19s WALL (     271 calls)
     ffts         :      0.01s CPU      0.01s WALL (      44 calls)
     fftw         :      5.86s CPU      5.99s WALL (   95548 calls)
     interpolate  :      0.02s CPU      0.02s WALL (      22 calls)

     Parallel routines
     fft_scatt_xy :      0.75s CPU      0.77s WALL (   95863 calls)
     fft_scatt_yz :      3.11s CPU      3.19s WALL (   95863 calls)

     PWSCF        :     21.88s CPU     22.38s WALL


   This run was terminated on:  23:12:47   9Mar2022            

=------------------------------------------------------------------------------=
   JOB DONE.
=------------------------------------------------------------------------------=
