
     Program PWSCF v.6.4.1 starts on  9Mar2022 at 23:11:40 

     This program is part of the open-source Quantum ESPRESSO suite
     for quantum simulation of materials; please cite
         "P. Giannozzi et al., J. Phys.:Condens. Matter 21 395502 (2009);
         "P. Giannozzi et al., J. Phys.:Condens. Matter 29 465901 (2017);
          URL http://www.quantum-espresso.org", 
     in publications or presentations arising from this work. More details at
     http://www.quantum-espresso.org/quote

     Parallel version (MPI), running on     6 processors

     MPI processes distributed on     1 nodes
     R & G space division:  proc/nbgrp/npool/nimage =       6
     Reading input from degauss-0.03.in

     Current dimensions of program PWSCF are:
     Max number of different atomic species (ntypx) = 10
     Max number of k-points (npk) =  40000
     Max angular momentum in pseudopotentials (lmaxx) =  3
               file Cr.pbe-spn-rrkjus_psl.1.0.0.UPF: wavefunction(s)  3P renormalized
               file Cr.pbe-spn-rrkjus_psl.1.0.0.UPF: wavefunction(s)  3P renormalized

     Subspace diagonalization in iterative solution of the eigenvalue problem:
     a serial algorithm will be used

     Message from routine setup:
     DEPRECATED: symmetry with ibrav=0, use correct ibrav instead

     Parallelization info
     --------------------
     sticks:   dense  smooth     PW     G-vecs:    dense   smooth      PW
     Min         320     129     39                10576     2689     453
     Max         321     131     41                10577     2690     454
     Sum        1925     777    241                63461    16135    2721



     bravais-lattice index     =            0
     lattice parameter (alat)  =       5.4991  a.u.
     unit-cell volume          =     166.2936 (a.u.)^3
     number of atoms/cell      =            2
     number of atomic types    =            2
     number of electrons       =        28.00
     number of Kohn-Sham states=           18
     kinetic-energy cutoff     =      80.0000  Ry
     charge density cutoff     =     800.0000  Ry
     convergence threshold     =      1.0E-06
     mixing beta               =       0.7000
     number of iterations used =            8  plain     mixing
     Exchange-correlation      = PBE ( 1  4  3  4 0 0)

     celldm(1)=   5.499103  celldm(2)=   0.000000  celldm(3)=   0.000000
     celldm(4)=   0.000000  celldm(5)=   0.000000  celldm(6)=   0.000000

     crystal axes: (cart. coord. in units of alat)
               a(1) = (   1.000000   0.000000   0.000000 )  
               a(2) = (   0.000000   1.000000   0.000000 )  
               a(3) = (   0.000000   0.000000   1.000000 )  

     reciprocal axes: (cart. coord. in units 2 pi/alat)
               b(1) = (  1.000000  0.000000  0.000000 )  
               b(2) = (  0.000000  1.000000  0.000000 )  
               b(3) = (  0.000000  0.000000  1.000000 )  


     PseudoPot. # 1 for Cr read from file:
     /home/cristian/Escritorio/Proyecto_Grafeno/pseudopotenciales/Cr.pbe-spn-rrkjus_psl.1.0.0.UPF
     MD5 check sum: 793d051e4f89dd1e3290b85340a92c0a
     Pseudo is Ultrasoft + core correction, Zval = 14.0
     Generated using "atomic" code by A. Dal Corso v.6.2.2
     Using radial grid of 1183 points,  6 beta functions with: 
                l(1) =   0
                l(2) =   0
                l(3) =   1
                l(4) =   1
                l(5) =   2
                l(6) =   2
     Q(r) pseudized with 0 coefficients 


     PseudoPot. # 2 for Cr read from file:
     /home/cristian/Escritorio/Proyecto_Grafeno/pseudopotenciales/Cr.pbe-spn-rrkjus_psl.1.0.0.UPF
     MD5 check sum: 793d051e4f89dd1e3290b85340a92c0a
     Pseudo is Ultrasoft + core correction, Zval = 14.0
     Generated using "atomic" code by A. Dal Corso v.6.2.2
     Using radial grid of 1183 points,  6 beta functions with: 
                l(1) =   0
                l(2) =   0
                l(3) =   1
                l(4) =   1
                l(5) =   2
                l(6) =   2
     Q(r) pseudized with 0 coefficients 


     atomic species   valence    mass     pseudopotential
        Cr1           14.00    51.99610     Cr( 1.00)
        Cr2           14.00    51.99610     Cr( 1.00)

     Starting magnetic structure 
     atomic species   magnetization
        Cr1          0.100
        Cr2         -0.100

     48 Sym. Ops., with inversion, found



   Cartesian axes

     site n.     atom                  positions (alat units)
         1           Cr1 tau(   1) = (   0.0000000   0.0000000   0.0000000  )
         2           Cr2 tau(   2) = (   0.5000000   0.5000000   0.5000000  )

     number of k points=    35  Methfessel-Paxton smearing, width (Ry)=  0.0300
                       cart. coord. in units 2pi/alat
        k(    1) = (   0.0500000   0.0500000   0.0500000), wk =   0.0080000
        k(    2) = (   0.0500000   0.0500000   0.1500000), wk =   0.0240000
        k(    3) = (   0.0500000   0.0500000   0.2500000), wk =   0.0240000
        k(    4) = (   0.0500000   0.0500000   0.3500000), wk =   0.0240000
        k(    5) = (   0.0500000   0.0500000   0.4500000), wk =   0.0240000
        k(    6) = (   0.0500000   0.1500000   0.1500000), wk =   0.0240000
        k(    7) = (   0.0500000   0.1500000   0.2500000), wk =   0.0480000
        k(    8) = (   0.0500000   0.1500000   0.3500000), wk =   0.0480000
        k(    9) = (   0.0500000   0.1500000   0.4500000), wk =   0.0480000
        k(   10) = (   0.0500000   0.2500000   0.2500000), wk =   0.0240000
        k(   11) = (   0.0500000   0.2500000   0.3500000), wk =   0.0480000
        k(   12) = (   0.0500000   0.2500000   0.4500000), wk =   0.0480000
        k(   13) = (   0.0500000   0.3500000   0.3500000), wk =   0.0240000
        k(   14) = (   0.0500000   0.3500000   0.4500000), wk =   0.0480000
        k(   15) = (   0.0500000   0.4500000   0.4500000), wk =   0.0240000
        k(   16) = (   0.1500000   0.1500000   0.1500000), wk =   0.0080000
        k(   17) = (   0.1500000   0.1500000   0.2500000), wk =   0.0240000
        k(   18) = (   0.1500000   0.1500000   0.3500000), wk =   0.0240000
        k(   19) = (   0.1500000   0.1500000   0.4500000), wk =   0.0240000
        k(   20) = (   0.1500000   0.2500000   0.2500000), wk =   0.0240000
        k(   21) = (   0.1500000   0.2500000   0.3500000), wk =   0.0480000
        k(   22) = (   0.1500000   0.2500000   0.4500000), wk =   0.0480000
        k(   23) = (   0.1500000   0.3500000   0.3500000), wk =   0.0240000
        k(   24) = (   0.1500000   0.3500000   0.4500000), wk =   0.0480000
        k(   25) = (   0.1500000   0.4500000   0.4500000), wk =   0.0240000
        k(   26) = (   0.2500000   0.2500000   0.2500000), wk =   0.0080000
        k(   27) = (   0.2500000   0.2500000   0.3500000), wk =   0.0240000
        k(   28) = (   0.2500000   0.2500000   0.4500000), wk =   0.0240000
        k(   29) = (   0.2500000   0.3500000   0.3500000), wk =   0.0240000
        k(   30) = (   0.2500000   0.3500000   0.4500000), wk =   0.0480000
        k(   31) = (   0.2500000   0.4500000   0.4500000), wk =   0.0240000
        k(   32) = (   0.3500000   0.3500000   0.3500000), wk =   0.0080000
        k(   33) = (   0.3500000   0.3500000   0.4500000), wk =   0.0240000
        k(   34) = (   0.3500000   0.4500000   0.4500000), wk =   0.0240000
        k(   35) = (   0.4500000   0.4500000   0.4500000), wk =   0.0080000

     Dense  grid:    63461 G-vectors     FFT dimensions: (  50,  50,  50)

     Smooth grid:    16135 G-vectors     FFT dimensions: (  32,  32,  32)

     Estimated max dynamical RAM per process >      51.30 MB

     Estimated total dynamical RAM >     307.81 MB
     Generating pointlists ...
     new r_m :   0.3572 (alat units)  1.9645 (a.u.) for type    1
     new r_m :   0.3572 (alat units)  1.9645 (a.u.) for type    2

     Check: negative core charge=   -0.000002

     Initial potential from superposition of free atoms

     starting charge   27.99845, renormalised to   28.00000
     Starting wfcs are   20 randomized atomic wfcs

     total cpu time spent up to now is        2.3 secs

     Self-consistent Calculation

     iteration #  1     ecut=    80.00 Ry     beta= 0.70
     Davidson diagonalization with overlap
     ethr =  1.00E-02,  avg # of iterations =  2.5

     Threshold (ethr) on eigenvalues was too large:
     Diagonalizing with lowered threshold

     Davidson diagonalization with overlap
     ethr =  6.29E-04,  avg # of iterations =  2.3

     total cpu time spent up to now is        5.1 secs

     total energy              =    -349.90242938 Ry
     Harris-Foulkes estimate   =    -350.02629742 Ry
     estimated scf accuracy    <       0.18916287 Ry

     total magnetization       =    -0.00 Bohr mag/cell
     absolute magnetization    =     2.17 Bohr mag/cell

     iteration #  2     ecut=    80.00 Ry     beta= 0.70
     Davidson diagonalization with overlap
     ethr =  6.76E-04,  avg # of iterations =  3.1

     total cpu time spent up to now is        7.1 secs

     total energy              =    -349.93265295 Ry
     Harris-Foulkes estimate   =    -350.05394318 Ry
     estimated scf accuracy    <       0.26488466 Ry

     total magnetization       =    -0.00 Bohr mag/cell
     absolute magnetization    =     2.75 Bohr mag/cell

     iteration #  3     ecut=    80.00 Ry     beta= 0.70
     Davidson diagonalization with overlap
     ethr =  6.76E-04,  avg # of iterations =  3.0

     total cpu time spent up to now is        8.8 secs

     total energy              =    -349.98660681 Ry
     Harris-Foulkes estimate   =    -349.98687899 Ry
     estimated scf accuracy    <       0.00212396 Ry

     total magnetization       =    -0.00 Bohr mag/cell
     absolute magnetization    =     2.49 Bohr mag/cell

     iteration #  4     ecut=    80.00 Ry     beta= 0.70
     Davidson diagonalization with overlap
     ethr =  7.59E-06,  avg # of iterations =  4.0

     total cpu time spent up to now is       11.1 secs

     total energy              =    -349.98140446 Ry
     Harris-Foulkes estimate   =    -349.99439719 Ry
     estimated scf accuracy    <       0.14002715 Ry

     total magnetization       =     0.03 Bohr mag/cell
     absolute magnetization    =     2.55 Bohr mag/cell

     iteration #  5     ecut=    80.00 Ry     beta= 0.70
     Davidson diagonalization with overlap
     ethr =  7.59E-06,  avg # of iterations =  4.0

     total cpu time spent up to now is       13.0 secs

     total energy              =    -349.98791115 Ry
     Harris-Foulkes estimate   =    -349.98784356 Ry
     estimated scf accuracy    <       0.00012751 Ry

     total magnetization       =    -0.00 Bohr mag/cell
     absolute magnetization    =     2.62 Bohr mag/cell

     iteration #  6     ecut=    80.00 Ry     beta= 0.70
     Davidson diagonalization with overlap
     ethr =  4.55E-07,  avg # of iterations =  2.6

     total cpu time spent up to now is       14.4 secs

     total energy              =    -349.98782932 Ry
     Harris-Foulkes estimate   =    -349.98792814 Ry
     estimated scf accuracy    <       0.00009694 Ry

     total magnetization       =    -0.00 Bohr mag/cell
     absolute magnetization    =     2.65 Bohr mag/cell

     iteration #  7     ecut=    80.00 Ry     beta= 0.70
     Davidson diagonalization with overlap
     ethr =  3.46E-07,  avg # of iterations =  4.3

     total cpu time spent up to now is       16.2 secs

     total energy              =    -349.98756211 Ry
     Harris-Foulkes estimate   =    -349.98826095 Ry
     estimated scf accuracy    <       0.00005324 Ry

     total magnetization       =    -0.00 Bohr mag/cell
     absolute magnetization    =     2.85 Bohr mag/cell

     iteration #  8     ecut=    80.00 Ry     beta= 0.70
     Davidson diagonalization with overlap
     ethr =  1.90E-07,  avg # of iterations =  4.6

     total cpu time spent up to now is       18.4 secs

     total energy              =    -349.98833015 Ry
     Harris-Foulkes estimate   =    -349.98838202 Ry
     estimated scf accuracy    <       0.00001070 Ry

     total magnetization       =     0.00 Bohr mag/cell
     absolute magnetization    =     3.12 Bohr mag/cell

     iteration #  9     ecut=    80.00 Ry     beta= 0.70
     Davidson diagonalization with overlap
     ethr =  3.82E-08,  avg # of iterations =  4.5

     Magnetic moment per site:
     atom:    1    charge:   12.2775    magn:    1.4196    constr:    0.0000
     atom:    2    charge:   12.2773    magn:   -1.4196    constr:    0.0000

     total cpu time spent up to now is       20.3 secs

     End of self-consistent calculation

 ------ SPIN UP ------------


          k = 0.0500 0.0500 0.0500 (  2007 PWs)   bands (ev):

   -54.2108 -52.6742 -25.5378 -25.5378 -25.5301 -23.8886 -23.8794 -23.8794
    10.6189  14.2818  14.2818  17.2313  17.2313  17.3728  19.3707  19.3707
    20.4350  20.6985

          k = 0.0500 0.0500 0.1500 (  2005 PWs)   bands (ev):

   -54.2066 -52.6742 -25.5557 -25.5286 -25.5221 -23.9194 -23.8857 -23.8856
    11.0253  14.4827  14.4885  17.1435  17.1878  17.5325  19.1202  19.4782
    19.9157  20.2370

          k = 0.0500 0.0500 0.2500 (  1997 PWs)   bands (ev):

   -54.1998 -52.6743 -25.5829 -25.5136 -25.5108 -23.9702 -23.8960 -23.8944
    11.7895  14.7915  14.8678  17.0908  17.1236  17.7234  18.6605  19.3399
    19.5949  19.6571

          k = 0.0500 0.0500 0.3500 (  2010 PWs)   bands (ev):

   -54.1930 -52.6743 -25.6096 -25.4997 -25.4984 -24.0208 -23.9065 -23.9033
    12.8009  14.9583  15.3945  17.0454  17.1034  17.8411  18.0947  18.9822
    19.0226  19.8518

          k = 0.0500 0.0500 0.4500 (  2013 PWs)   bands (ev):

   -54.1887 -52.6744 -25.6260 -25.4930 -25.4888 -24.0519 -23.9131 -23.9090
    13.8434  14.7047  15.9389  16.8678  17.1724  17.6742  17.8027  18.6821
    18.9607  19.8549

          k = 0.0500 0.1500 0.1500 (  2001 PWs)   bands (ev):

   -54.2028 -52.6738 -25.5657 -25.5333 -25.5165 -23.9383 -23.8951 -23.8905
    11.4126  14.6427  14.7166  16.9569  17.0870  17.7199  19.1453  19.4042
    19.4130  19.9299

          k = 0.0500 0.1500 0.2500 (  1999 PWs)   bands (ev):

   -54.1966 -52.6731 -25.5918 -25.5316 -25.5069 -23.9738 -23.9058 -23.8974
    12.1323  14.8949  15.0986  16.8069  16.9630  17.7278  18.8747  19.1145
    19.4054  19.5665

          k = 0.0500 0.1500 0.3500 (  2004 PWs)   bands (ev):

   -54.1903 -52.6724 -25.6199 -25.5303 -25.4952 -24.0104 -23.9159 -23.9035
    13.0632  15.0204  15.5510  16.7334  16.8785  17.4830  18.4890  18.9556
    19.2916  19.8026

          k = 0.0500 0.1500 0.4500 (  2011 PWs)   bands (ev):

   -54.1864 -52.6720 -25.6373 -25.5302 -25.4874 -24.0328 -23.9223 -23.9070
    13.9985  14.7392  15.9928  16.5990  16.9372  17.2322  18.2426  18.7937
    19.5038  20.0964

          k = 0.0500 0.2500 0.2500 (  2007 PWs)   bands (ev):

   -54.1913 -52.6713 -25.6116 -25.5579 -25.4984 -23.9829 -23.9192 -23.9012
    12.7421  14.9480  15.5640  16.5412  16.8419  17.3801  18.9284  19.1398
    19.4006  19.4939

          k = 0.0500 0.2500 0.3500 (  2005 PWs)   bands (ev):

   -54.1860 -52.6694 -25.6377 -25.5790 -25.4891 -23.9952 -23.9298 -23.9038
    13.4624  14.8643  16.0727  16.3944  16.8815  16.9806  18.7755  19.0645
    19.6480  19.8324

          k = 0.0500 0.2500 0.4500 (  2017 PWs)   bands (ev):

   -54.1827 -52.6683 -25.6560 -25.5903 -25.4832 -24.0038 -23.9357 -23.9048
    14.1063  14.5791  16.3664  16.4212  16.6747  17.0745  18.7909  18.9806
    19.8708  20.3967

          k = 0.0500 0.3500 0.3500 (  2016 PWs)   bands (ev):

   -54.1816 -52.6664 -25.6584 -25.6245 -25.4828 -23.9827 -23.9421 -23.9034
    13.8151  14.5949  16.1505  16.5101  16.7808  17.2926  18.9341  19.2836
    19.5827  20.3241

          k = 0.0500 0.3500 0.4500 (  2018 PWs)   bands (ev):

   -54.1790 -52.6645 -25.6751 -25.6484 -25.4788 -23.9770 -23.9483 -23.9027
    14.0645  14.3299  16.0767  16.2090  17.3138  17.8108  19.0566  19.3090
    19.8084  20.7078

          k = 0.0500 0.4500 0.4500 (  2011 PWs)   bands (ev):

   -54.1766 -52.6622 -25.6876 -25.6828 -25.4762 -23.9615 -23.9556 -23.9012
    13.9963  14.1706  15.9235  15.9660  18.2569  18.6052  19.2123  19.4559
    19.5205  20.5117

          k = 0.1500 0.1500 0.1500 (  1992 PWs)   bands (ev):

   -54.1992 -52.6730 -25.5553 -25.5553 -25.5193 -23.9456 -23.9025 -23.9025
    11.7883  14.8697  14.8697  16.8603  16.8603  17.6725  19.1090  19.2873
    19.2873  20.2887

          k = 0.1500 0.1500 0.2500 (  2000 PWs)   bands (ev):

   -54.1935 -52.6717 -25.5894 -25.5383 -25.5256 -23.9697 -23.9148 -23.9091
    12.4793  15.1543  15.1848  16.6825  16.6974  17.3258  19.0554  19.2802
    19.5073  19.6876

          k = 0.1500 0.1500 0.3500 (  2007 PWs)   bands (ev):

   -54.1877 -52.6705 -25.6227 -25.5330 -25.5210 -24.0003 -23.9275 -23.9087
    13.3541  15.2647  15.5233  16.4975  16.6906  17.0672  18.7704  19.1912
    19.5226  19.8792

          k = 0.1500 0.1500 0.4500 (  2008 PWs)   bands (ev):

   -54.1841 -52.6697 -25.6430 -25.5379 -25.5101 -24.0198 -23.9354 -23.9074
    14.2147  14.8976  15.8964  16.2615  16.8483  17.0474  18.5509  18.9282
    19.4856  20.2380

          k = 0.1500 0.2500 0.2500 (  2005 PWs)   bands (ev):

   -54.1885 -52.6695 -25.5992 -25.5633 -25.5275 -23.9724 -23.9288 -23.9193
    13.0927  15.2414  15.6181  16.4317  16.5477  16.8280  19.2199  19.4538
    19.4697  19.7813

          k = 0.1500 0.2500 0.3500 (  2005 PWs)   bands (ev):

   -54.1835 -52.6673 -25.6300 -25.5777 -25.5186 -23.9879 -23.9422 -23.9174
    13.8006  15.1673  15.9523  16.2746  16.5078  16.7092  19.1247  19.1685
    19.5876  20.3297

          k = 0.1500 0.2500 0.4500 (  2011 PWs)   bands (ev):

   -54.1804 -52.6660 -25.6530 -25.5848 -25.5109 -24.0005 -23.9510 -23.9127
    14.4028  14.8636  16.0416  16.1893  16.5368  17.0297  19.0097  19.0566
    19.5341  20.3284

          k = 0.1500 0.3500 0.3500 (  2017 PWs)   bands (ev):

   -54.1793 -52.6642 -25.6437 -25.6214 -25.5104 -23.9832 -23.9541 -23.9218
    14.1687  14.8925  16.0429  16.2300  16.7000  16.8801  19.1202  19.3881
    19.5339  20.3831

          k = 0.1500 0.3500 0.4500 (  2018 PWs)   bands (ev):

   -54.1767 -52.6622 -25.6638 -25.6372 -25.5046 -23.9835 -23.9629 -23.9199
    14.3695  14.6575  15.9539  16.0581  17.0664  17.4467  19.1279  19.4154
    19.4995  20.3559

          k = 0.1500 0.4500 0.4500 (  2021 PWs)   bands (ev):

   -54.1745 -52.6599 -25.6716 -25.6685 -25.5002 -23.9742 -23.9692 -23.9246
    14.2786  14.5245  15.8459  15.8750  17.8686  17.9628  19.1855  19.2205
    19.6405  20.3338

          k = 0.2500 0.2500 0.2500 (  2022 PWs)   bands (ev):

   -54.1840 -52.6667 -25.5787 -25.5787 -25.5677 -23.9596 -23.9448 -23.9448
    13.7020  15.7009  15.7009  16.2491  16.2673  16.2673  19.4069  19.4069
    19.8370  19.8370

          k = 0.2500 0.2500 0.3500 (  2011 PWs)   bands (ev):

   -54.1796 -52.6640 -25.6215 -25.5798 -25.5577 -23.9794 -23.9611 -23.9377
    14.3500  15.5835  15.7687  16.1247  16.1311  16.4930  19.2878  19.4815
    19.4917  20.0774

          k = 0.2500 0.2500 0.4500 (  2009 PWs)   bands (ev):

   -54.1768 -52.6622 -25.6491 -25.5859 -25.5445 -23.9962 -23.9714 -23.9287
    14.7728  15.2294  15.7903  16.0586  16.2623  16.9403  19.1652  19.3582
    19.3646  20.2456

          k = 0.2500 0.3500 0.3500 (  2012 PWs)   bands (ev):

   -54.1756 -52.6606 -25.6195 -25.6170 -25.5542 -23.9857 -23.9739 -23.9497
    14.7666  15.3838  15.8783  15.8955  16.4194  16.5494  19.2570  19.4042
    19.6761  20.0971

          k = 0.2500 0.3500 0.4500 (  2015 PWs)   bands (ev):

   -54.1732 -52.6585 -25.6462 -25.6185 -25.5453 -23.9946 -23.9860 -23.9482
    14.8339  15.2399  15.7609  15.9127  16.6265  17.0470  19.1961  19.2707
    19.6977  20.2445

          k = 0.2500 0.4500 0.4500 (  2023 PWs)   bands (ev):

   -54.1709 -52.6562 -25.6450 -25.6449 -25.5388 -23.9954 -23.9916 -23.9619
    14.7461  15.1556  15.7308  15.7511  17.2611  17.2886  19.1165  19.1993
    19.8609  20.3085

          k = 0.3500 0.3500 0.3500 (  2010 PWs)   bands (ev):

   -54.1719 -52.6570 -25.6158 -25.5947 -25.5947 -23.9944 -23.9944 -23.9713
    15.1975  15.7244  15.7244  15.8091  16.3789  16.3789  19.2674  19.2674
    20.0074  20.0074

          k = 0.3500 0.3500 0.4500 (  2007 PWs)   bands (ev):

   -54.1696 -52.6548 -25.6297 -25.6050 -25.5790 -24.0074 -24.0063 -23.9780
    15.1680  15.6061  15.6344  16.1366  16.2660  16.8051  19.1719  19.1996
    19.9855  20.2377

          k = 0.3500 0.4500 0.4500 (  2006 PWs)   bands (ev):

   -54.1674 -52.6525 -25.6208 -25.6176 -25.5771 -24.0170 -24.0148 -23.9990
    15.2157  15.6029  15.6325  15.9531  16.7412  16.7907  19.0907  19.1664
    20.1260  20.3153

          k = 0.4500 0.4500 0.4500 (  1974 PWs)   bands (ev):

   -54.1652 -52.6502 -25.6059 -25.6002 -25.6002 -24.0295 -24.0295 -24.0229
    15.4731  15.5842  15.5842  16.4794  16.5079  16.5079  19.0870  19.0870
    20.3237  20.3237

 ------ SPIN DOWN ----------


          k = 0.0500 0.0500 0.0500 (  2007 PWs)   bands (ev):

   -54.2107 -52.6744 -25.5377 -25.5377 -25.5300 -23.8888 -23.8796 -23.8796
    10.6189  14.2818  14.2818  17.2314  17.2314  17.3729  19.3706  19.3706
    20.4350  20.6984

          k = 0.0500 0.0500 0.1500 (  2005 PWs)   bands (ev):

   -54.2065 -52.6745 -25.5556 -25.5285 -25.5220 -23.9196 -23.8859 -23.8858
    11.0253  14.4827  14.4885  17.1436  17.1878  17.5326  19.1201  19.4781
    19.9156  20.2370

          k = 0.0500 0.0500 0.2500 (  1997 PWs)   bands (ev):

   -54.1997 -52.6745 -25.5827 -25.5134 -25.5106 -23.9704 -23.8962 -23.8946
    11.7895  14.7915  14.8678  17.0909  17.1237  17.7235  18.6604  19.3398
    19.5948  19.6571

          k = 0.0500 0.0500 0.3500 (  2010 PWs)   bands (ev):

   -54.1928 -52.6745 -25.6095 -25.4996 -25.4982 -24.0210 -23.9067 -23.9035
    12.8009  14.9583  15.3946  17.0455  17.1036  17.8412  18.0946  18.9821
    19.0225  19.8517

          k = 0.0500 0.0500 0.4500 (  2013 PWs)   bands (ev):

   -54.1886 -52.6746 -25.6259 -25.4928 -25.4886 -24.0521 -23.9133 -23.9092
    13.8434  14.7047  15.9389  16.8678  17.1725  17.6742  17.8028  18.6820
    18.9607  19.8548

          k = 0.0500 0.1500 0.1500 (  2001 PWs)   bands (ev):

   -54.2026 -52.6740 -25.5656 -25.5332 -25.5163 -23.9385 -23.8953 -23.8907
    11.4126  14.6427  14.7166  16.9570  17.0871  17.7201  19.1452  19.4041
    19.4129  19.9298

          k = 0.0500 0.1500 0.2500 (  1999 PWs)   bands (ev):

   -54.1964 -52.6733 -25.5917 -25.5314 -25.5068 -23.9740 -23.9060 -23.8976
    12.1323  14.8949  15.0986  16.8070  16.9631  17.7280  18.8747  19.1144
    19.4053  19.5664

          k = 0.0500 0.1500 0.3500 (  2004 PWs)   bands (ev):

   -54.1902 -52.6727 -25.6197 -25.5301 -25.4951 -24.0106 -23.9161 -23.9037
    13.0632  15.0204  15.5510  16.7335  16.8786  17.4831  18.4889  18.9555
    19.2915  19.8025

          k = 0.0500 0.1500 0.4500 (  2011 PWs)   bands (ev):

   -54.1863 -52.6723 -25.6371 -25.5300 -25.4872 -24.0330 -23.9225 -23.9072
    13.9986  14.7392  15.9929  16.5990  16.9373  17.2323  18.2426  18.7936
    19.5038  20.0964

          k = 0.0500 0.2500 0.2500 (  2007 PWs)   bands (ev):

   -54.1911 -52.6715 -25.6115 -25.5577 -25.4983 -23.9831 -23.9194 -23.9014
    12.7421  14.9480  15.5640  16.5412  16.8419  17.3802  18.9283  19.1398
    19.4005  19.4938

          k = 0.0500 0.2500 0.3500 (  2005 PWs)   bands (ev):

   -54.1858 -52.6696 -25.6375 -25.5788 -25.4890 -23.9954 -23.9300 -23.9040
    13.4624  14.8643  16.0727  16.3944  16.8816  16.9807  18.7754  19.0644
    19.6480  19.8323

          k = 0.0500 0.2500 0.4500 (  2017 PWs)   bands (ev):

   -54.1825 -52.6685 -25.6558 -25.5902 -25.4830 -24.0040 -23.9359 -23.9050
    14.1063  14.5791  16.3665  16.4212  16.6747  17.0745  18.7909  18.9805
    19.8708  20.3967

          k = 0.0500 0.3500 0.3500 (  2016 PWs)   bands (ev):

   -54.1815 -52.6666 -25.6582 -25.6243 -25.4827 -23.9829 -23.9423 -23.9036
    13.8152  14.5949  16.1506  16.5101  16.7808  17.2926  18.9341  19.2835
    19.5826  20.3240

          k = 0.0500 0.3500 0.4500 (  2018 PWs)   bands (ev):

   -54.1788 -52.6647 -25.6750 -25.6482 -25.4787 -23.9772 -23.9485 -23.9029
    14.0645  14.3299  16.0768  16.2091  17.3139  17.8107  19.0566  19.3089
    19.8084  20.7078

          k = 0.0500 0.4500 0.4500 (  2011 PWs)   bands (ev):

   -54.1765 -52.6624 -25.6874 -25.6827 -25.4760 -23.9617 -23.9558 -23.9014
    13.9964  14.1706  15.9235  15.9660  18.2569  18.6052  19.2123  19.4560
    19.5204  20.5116

          k = 0.1500 0.1500 0.1500 (  1992 PWs)   bands (ev):

   -54.1991 -52.6732 -25.5551 -25.5551 -25.5191 -23.9458 -23.9027 -23.9027
    11.7883  14.8697  14.8697  16.8604  16.8604  17.6727  19.1089  19.2872
    19.2872  20.2886

          k = 0.1500 0.1500 0.2500 (  2000 PWs)   bands (ev):

   -54.1933 -52.6720 -25.5892 -25.5381 -25.5255 -23.9699 -23.9150 -23.9093
    12.4793  15.1543  15.1848  16.6826  16.6974  17.3259  19.0553  19.2801
    19.5073  19.6876

          k = 0.1500 0.1500 0.3500 (  2007 PWs)   bands (ev):

   -54.1876 -52.6707 -25.6225 -25.5328 -25.5208 -24.0005 -23.9277 -23.9089
    13.3541  15.2647  15.5233  16.4976  16.6906  17.0673  18.7704  19.1911
    19.5226  19.8792

          k = 0.1500 0.1500 0.4500 (  2008 PWs)   bands (ev):

   -54.1840 -52.6699 -25.6429 -25.5378 -25.5099 -24.0200 -23.9356 -23.9076
    14.2147  14.8976  15.8964  16.2616  16.8484  17.0474  18.5508  18.9281
    19.4856  20.2379

          k = 0.1500 0.2500 0.2500 (  2005 PWs)   bands (ev):

   -54.1884 -52.6698 -25.5990 -25.5632 -25.5274 -23.9726 -23.9290 -23.9195
    13.0927  15.2414  15.6181  16.4317  16.5477  16.8280  19.2198  19.4538
    19.4696  19.7813

          k = 0.1500 0.2500 0.3500 (  2005 PWs)   bands (ev):

   -54.1834 -52.6675 -25.6298 -25.5776 -25.5185 -23.9881 -23.9424 -23.9176
    13.8006  15.1673  15.9523  16.2747  16.5078  16.7092  19.1246  19.1685
    19.5876  20.3296

          k = 0.1500 0.2500 0.4500 (  2011 PWs)   bands (ev):

   -54.1803 -52.6662 -25.6528 -25.5847 -25.5108 -24.0007 -23.9512 -23.9129
    14.4028  14.8636  16.0416  16.1893  16.5368  17.0297  19.0097  19.0566
    19.5341  20.3282

          k = 0.1500 0.3500 0.3500 (  2017 PWs)   bands (ev):

   -54.1792 -52.6644 -25.6436 -25.6212 -25.5103 -23.9834 -23.9543 -23.9220
    14.1687  14.8925  16.0429  16.2301  16.7000  16.8801  19.1202  19.3879
    19.5339  20.3830

          k = 0.1500 0.3500 0.4500 (  2018 PWs)   bands (ev):

   -54.1766 -52.6624 -25.6636 -25.6370 -25.5044 -23.9837 -23.9631 -23.9201
    14.3696  14.6575  15.9540  16.0582  17.0664  17.4466  19.1279  19.4153
    19.4995  20.3558

          k = 0.1500 0.4500 0.4500 (  2021 PWs)   bands (ev):

   -54.1743 -52.6601 -25.6714 -25.6683 -25.5000 -23.9744 -23.9694 -23.9248
    14.2786  14.5245  15.8460  15.8751  17.8686  17.9628  19.1855  19.2205
    19.6404  20.3336

          k = 0.2500 0.2500 0.2500 (  2022 PWs)   bands (ev):

   -54.1839 -52.6670 -25.5786 -25.5786 -25.5675 -23.9598 -23.9450 -23.9450
    13.7020  15.7009  15.7009  16.2491  16.2673  16.2673  19.4068  19.4068
    19.8369  19.8369

          k = 0.2500 0.2500 0.3500 (  2011 PWs)   bands (ev):

   -54.1794 -52.6642 -25.6213 -25.5797 -25.5576 -23.9795 -23.9613 -23.9379
    14.3500  15.5836  15.7688  16.1248  16.1312  16.4930  19.2877  19.4815
    19.4916  20.0773

          k = 0.2500 0.2500 0.4500 (  2009 PWs)   bands (ev):

   -54.1767 -52.6625 -25.6489 -25.5858 -25.5444 -23.9964 -23.9716 -23.9289
    14.7728  15.2294  15.7903  16.0586  16.2624  16.9403  19.1652  19.3583
    19.3645  20.2454

          k = 0.2500 0.3500 0.3500 (  2012 PWs)   bands (ev):

   -54.1755 -52.6608 -25.6194 -25.6168 -25.5541 -23.9859 -23.9741 -23.9499
    14.7667  15.3838  15.8784  15.8956  16.4194  16.5494  19.2570  19.4042
    19.6760  20.0970

          k = 0.2500 0.3500 0.4500 (  2015 PWs)   bands (ev):

   -54.1730 -52.6587 -25.6461 -25.6184 -25.5451 -23.9948 -23.9862 -23.9484
    14.8340  15.2399  15.7610  15.9128  16.6265  17.0470  19.1961  19.2707
    19.6975  20.2444

          k = 0.2500 0.4500 0.4500 (  2023 PWs)   bands (ev):

   -54.1708 -52.6564 -25.6449 -25.6448 -25.5387 -23.9956 -23.9918 -23.9621
    14.7462  15.1556  15.7309  15.7512  17.2611  17.2885  19.1166  19.1993
    19.8608  20.3082

          k = 0.3500 0.3500 0.3500 (  2010 PWs)   bands (ev):

   -54.1717 -52.6572 -25.6157 -25.5945 -25.5945 -23.9946 -23.9946 -23.9715
    15.1976  15.7245  15.7245  15.8091  16.3789  16.3789  19.2674  19.2674
    20.0072  20.0072

          k = 0.3500 0.3500 0.4500 (  2007 PWs)   bands (ev):

   -54.1694 -52.6550 -25.6295 -25.6048 -25.5788 -24.0076 -24.0065 -23.9782
    15.1681  15.6061  15.6345  16.1366  16.2660  16.8050  19.1720  19.1996
    19.9853  20.2375

          k = 0.3500 0.4500 0.4500 (  2006 PWs)   bands (ev):

   -54.1672 -52.6527 -25.6206 -25.6174 -25.5770 -24.0172 -24.0150 -23.9992
    15.2158  15.6029  15.6326  15.9531  16.7412  16.7906  19.0909  19.1664
    20.1258  20.3151

          k = 0.4500 0.4500 0.4500 (  1974 PWs)   bands (ev):

   -54.1650 -52.6504 -25.6057 -25.6000 -25.6000 -24.0297 -24.0297 -24.0231
    15.4732  15.5843  15.5843  16.4793  16.5078  16.5078  19.0871  19.0871
    20.3235  20.3235

     the Fermi energy is    18.1360 ev

!    total energy              =    -349.98839390 Ry
     Harris-Foulkes estimate   =    -349.98839364 Ry
     estimated scf accuracy    <       0.00000022 Ry

     The total energy is the sum of the following terms:

     one-electron contribution =    -121.59183118 Ry
     hartree contribution      =      75.59090299 Ry
     xc contribution           =     -44.56888369 Ry
     ewald contribution        =    -259.42040003 Ry
     smearing contrib. (-TS)   =       0.00181801 Ry

     total magnetization       =    -0.00 Bohr mag/cell
     absolute magnetization    =     3.04 Bohr mag/cell

     convergence has been achieved in   9 iterations

     Writing output data file degauss-0.03.save/

     init_run     :      0.89s CPU      0.92s WALL (       1 calls)
     electrons    :     17.62s CPU     17.99s WALL (       1 calls)

     Called by init_run:
     wfcinit      :      0.41s CPU      0.42s WALL (       1 calls)
     potinit      :      0.09s CPU      0.09s WALL (       1 calls)
     hinit0       :      0.27s CPU      0.28s WALL (       1 calls)

     Called by electrons:
     c_bands      :     14.18s CPU     14.49s WALL (      10 calls)
     sum_band     :      2.55s CPU      2.59s WALL (      10 calls)
     v_of_rho     :      0.32s CPU      0.33s WALL (      10 calls)
     newd         :      0.60s CPU      0.62s WALL (      10 calls)
     mix_rho      :      0.03s CPU      0.03s WALL (      10 calls)

     Called by c_bands:
     init_us_2    :      0.20s CPU      0.21s WALL (    1470 calls)
     cegterg      :     13.44s CPU     13.73s WALL (     700 calls)

     Called by sum_band:
     sum_band:bec :      0.01s CPU      0.01s WALL (     700 calls)
     addusdens    :      1.01s CPU      1.01s WALL (      10 calls)

     Called by *egterg:
     h_psi        :      7.10s CPU      7.26s WALL (    3212 calls)
     s_psi        :      0.78s CPU      0.81s WALL (    3212 calls)
     g_psi        :      0.07s CPU      0.07s WALL (    2442 calls)
     cdiaghg      :      2.06s CPU      2.10s WALL (    3072 calls)

     Called by h_psi:
     h_psi:pot    :      7.07s CPU      7.22s WALL (    3212 calls)
     h_psi:calbec :      1.09s CPU      1.12s WALL (    3212 calls)
     vloc_psi     :      5.19s CPU      5.29s WALL (    3212 calls)
     add_vuspsi   :      0.78s CPU      0.80s WALL (    3212 calls)

     General routines
     calbec       :      1.41s CPU      1.46s WALL (    3912 calls)
     fft          :      0.15s CPU      0.16s WALL (     246 calls)
     ffts         :      0.01s CPU      0.01s WALL (      40 calls)
     fftw         :      5.31s CPU      5.43s WALL (   86454 calls)
     interpolate  :      0.01s CPU      0.02s WALL (      20 calls)

     Parallel routines
     fft_scatt_xy :      0.69s CPU      0.71s WALL (   86740 calls)
     fft_scatt_yz :      2.77s CPU      2.83s WALL (   86740 calls)

     PWSCF        :     19.96s CPU     20.44s WALL


   This run was terminated on:  23:12: 1   9Mar2022            

=------------------------------------------------------------------------------=
   JOB DONE.
=------------------------------------------------------------------------------=
