
     Program PWSCF v.6.4.1 starts on  5Sep2022 at 23:45:33 

     This program is part of the open-source Quantum ESPRESSO suite
     for quantum simulation of materials; please cite
         "P. Giannozzi et al., J. Phys.:Condens. Matter 21 395502 (2009);
         "P. Giannozzi et al., J. Phys.:Condens. Matter 29 465901 (2017);
          URL http://www.quantum-espresso.org", 
     in publications or presentations arising from this work. More details at
     http://www.quantum-espresso.org/quote

     Parallel version (MPI), running on     6 processors

     MPI processes distributed on     1 nodes
     R & G space division:  proc/nbgrp/npool/nimage =       6
     Reading input from distance-5.0.in

     Current dimensions of program PWSCF are:
     Max number of different atomic species (ntypx) = 10
     Max number of k-points (npk) =  40000
     Max angular momentum in pseudopotentials (lmaxx) =  3

     IMPORTANT: XC functional enforced from input :
     Exchange-correlation      = RVV10 ( 1  4 13  4 3 0)
     Any further DFT definition will be discarded
     Please, verify this is what you really want

               file H.pbe-rrkjus.UPF: wavefunction(s)  1S renormalized
               file Cu.pbe-dn-rrkjus_psl.1.0.0.UPF: wavefunction(s)  3D renormalized

     Subspace diagonalization in iterative solution of the eigenvalue problem:
     a serial algorithm will be used


     Parallelization info
     --------------------
     sticks:   dense  smooth     PW     G-vecs:    dense   smooth      PW
     Min        3051    1746    432               270999   117096   14629
     Max        3053    1747    437               271001   117099   14630
     Sum       18313   10477   2611              1626001   702581   87777



     bravais-lattice index     =            4
     lattice parameter (alat)  =      23.2937  a.u.
     unit-cell volume          =    8879.8548 (a.u.)^3
     number of atoms/cell      =           52
     number of atomic types    =            3
     number of electrons       =       209.00
     number of Kohn-Sham states=          126
     kinetic-energy cutoff     =      70.0000  Ry
     charge density cutoff     =     490.0000  Ry
     convergence threshold     =      1.0E-06
     mixing beta               =       0.7000
     number of iterations used =            8  plain     mixing
     Exchange-correlation      = RVV10 ( 1  4 13  4 3 0)

     celldm(1)=  23.293684  celldm(2)=   0.000000  celldm(3)=   0.811261
     celldm(4)=   0.000000  celldm(5)=   0.000000  celldm(6)=   0.000000

     crystal axes: (cart. coord. in units of alat)
               a(1) = (   1.000000   0.000000   0.000000 )  
               a(2) = (  -0.500000   0.866025   0.000000 )  
               a(3) = (   0.000000   0.000000   0.811261 )  

     reciprocal axes: (cart. coord. in units 2 pi/alat)
               b(1) = (  1.000000  0.577350 -0.000000 )  
               b(2) = (  0.000000  1.154701  0.000000 )  
               b(3) = (  0.000000 -0.000000  1.232649 )  


     PseudoPot. # 1 for H  read from file:
     /home/cristian/Escritorio/Proyecto_Grafeno/pseudopotenciales/H.pbe-rrkjus.UPF
     MD5 check sum: 7cc9d459525c9a0585f487a71c3c9563
     Pseudo is Ultrasoft, Zval =  1.0
     Generated by new atomic code, or converted to UPF format
     Using radial grid of 1061 points,  2 beta functions with: 
                l(1) =   0
                l(2) =   0
     Q(r) pseudized with 0 coefficients 


     PseudoPot. # 2 for C  read from file:
     /home/cristian/Escritorio/Proyecto_Grafeno/pseudopotenciales/C.pbe-n-rrkjus_psl.1.0.0.UPF
     MD5 check sum: 1fdd950c42eb37d8afe3dd2f8d12311e
     Pseudo is Ultrasoft + core correction, Zval =  4.0
     Generated using "atomic" code by A. Dal Corso v.6.3MaX
     Using radial grid of 1073 points,  4 beta functions with: 
                l(1) =   0
                l(2) =   0
                l(3) =   1
                l(4) =   1
     Q(r) pseudized with 0 coefficients 


     PseudoPot. # 3 for Cu read from file:
     /home/cristian/Escritorio/Proyecto_Grafeno/pseudopotenciales/Cu.pbe-dn-rrkjus_psl.1.0.0.UPF
     MD5 check sum: ba3d6c84e19846e79d48cdc68ff7152b
     Pseudo is Ultrasoft + core correction, Zval = 11.0
     Generated using "atomic" code by A. Dal Corso v.6.3
     Using radial grid of 1199 points,  6 beta functions with: 
                l(1) =   0
                l(2) =   0
                l(3) =   1
                l(4) =   1
                l(5) =   2
                l(6) =   2
     Q(r) pseudized with 0 coefficients 


     vdW kernel table read from file rVV10_kernel_table
     MD5 check sum: b8e2538accc0c0b3206b45ba4daaba6c

     atomic species   valence    mass     pseudopotential
        H              1.00     1.00794     H ( 1.00)
        C              4.00    12.01070     C ( 1.00)
        Cu            11.00    63.54600     Cu( 1.00)

     Starting magnetic structure 
     atomic species   magnetization
        H            0.500
        C            0.300
        Cu           0.800

     No symmetry found


                                    s                        frac. trans.

      isym =  1     identity                                     

 cryst.   s( 1) = (     1          0          0      )
                  (     0          1          0      )
                  (     0          0          1      )

 cart.    s( 1) = (  1.0000000  0.0000000  0.0000000 )
                  (  0.0000000  1.0000000  0.0000000 )
                  (  0.0000000  0.0000000  1.0000000 )


     point group C_1 (1)    
     there are  1 classes
     the character table:

       E    
A      1.00

     the symmetry operations in each class and the name of the first element:

     E        1
          identity                                               

   Cartesian axes

     site n.     atom                  positions (alat units)
         1           H   tau(   1) = (   0.2666667   0.4618802   0.4056306  )
         2           H   tau(   2) = (   0.2666667   0.4618802   0.4666433  )
         3           C   tau(   3) = (   0.0000000   0.0000000   0.0000000  )
         4           C   tau(   4) = (   0.0000000   0.1154701   0.0000000  )
         5           C   tau(   5) = (  -0.1000000   0.1732051   0.0000000  )
         6           C   tau(   6) = (  -0.1000000   0.2886751   0.0000000  )
         7           C   tau(   7) = (  -0.2000000   0.3464102   0.0000000  )
         8           C   tau(   8) = (  -0.2000000   0.4618802   0.0000000  )
         9           C   tau(   9) = (  -0.3000000   0.5196152   0.0000000  )
        10           C   tau(  10) = (  -0.3000000   0.6350853   0.0000000  )
        11           C   tau(  11) = (  -0.4000000   0.6928203   0.0000000  )
        12           C   tau(  12) = (  -0.4000000   0.8082904   0.0000000  )
        13           C   tau(  13) = (   0.2000000   0.0000000   0.0000000  )
        14           C   tau(  14) = (   0.2000000   0.1154701   0.0000000  )
        15           C   tau(  15) = (   0.1000000   0.1732051   0.0000000  )
        16           C   tau(  16) = (   0.1000000   0.2886751   0.0000000  )
        17           C   tau(  17) = (   0.0000000   0.3464102   0.0000000  )
        18           C   tau(  18) = (   0.0000000   0.4618802   0.0000000  )
        19           C   tau(  19) = (  -0.1000000   0.5196152   0.0000000  )
        20           C   tau(  20) = (  -0.1000000   0.6350853   0.0000000  )
        21           C   tau(  21) = (  -0.2000000   0.6928203   0.0000000  )
        22           C   tau(  22) = (  -0.2000000   0.8082904   0.0000000  )
        23           C   tau(  23) = (   0.4000000   0.0000000   0.0000000  )
        24           C   tau(  24) = (   0.4000000   0.1154701   0.0000000  )
        25           C   tau(  25) = (   0.3000000   0.1732051   0.0000000  )
        26           C   tau(  26) = (   0.3000000   0.2886751   0.0000000  )
        27           C   tau(  27) = (   0.2000000   0.3464102   0.0000000  )
        28           Cu  tau(  28) = (   0.2000000   0.4618802   0.0000000  )
        29           C   tau(  29) = (   0.1000000   0.5196152   0.0000000  )
        30           C   tau(  30) = (   0.1000000   0.6350853   0.0000000  )
        31           C   tau(  31) = (   0.0000000   0.6928203   0.0000000  )
        32           C   tau(  32) = (   0.0000000   0.8082904   0.0000000  )
        33           C   tau(  33) = (   0.6000000   0.0000000   0.0000000  )
        34           C   tau(  34) = (   0.6000000   0.1154701   0.0000000  )
        35           C   tau(  35) = (   0.5000000   0.1732051   0.0000000  )
        36           C   tau(  36) = (   0.5000000   0.2886751   0.0000000  )
        37           C   tau(  37) = (   0.4000000   0.3464102   0.0000000  )
        38           C   tau(  38) = (   0.4000000   0.4618802   0.0000000  )
        39           C   tau(  39) = (   0.3000000   0.5196152   0.0000000  )
        40           C   tau(  40) = (   0.3000000   0.6350853   0.0000000  )
        41           C   tau(  41) = (   0.2000000   0.6928203   0.0000000  )
        42           C   tau(  42) = (   0.2000000   0.8082904   0.0000000  )
        43           C   tau(  43) = (   0.8000000   0.0000000   0.0000000  )
        44           C   tau(  44) = (   0.8000000   0.1154701   0.0000000  )
        45           C   tau(  45) = (   0.7000000   0.1732051   0.0000000  )
        46           C   tau(  46) = (   0.7000000   0.2886751   0.0000000  )
        47           C   tau(  47) = (   0.6000000   0.3464102   0.0000000  )
        48           C   tau(  48) = (   0.6000000   0.4618802   0.0000000  )
        49           C   tau(  49) = (   0.5000000   0.5196152   0.0000000  )
        50           C   tau(  50) = (   0.5000000   0.6350853   0.0000000  )
        51           C   tau(  51) = (   0.4000000   0.6928203   0.0000000  )
        52           C   tau(  52) = (   0.4000000   0.8082904   0.0000000  )

   Crystallographic axes

     site n.     atom                  positions (cryst. coord.)
         1           H   tau(   1) = (  0.5333333  0.5333333  0.5000000  )
         2           H   tau(   2) = (  0.5333333  0.5333333  0.5752072  )
         3           C   tau(   3) = (  0.0000000  0.0000000  0.0000000  )
         4           C   tau(   4) = (  0.0666667  0.1333333  0.0000000  )
         5           C   tau(   5) = (  0.0000000  0.2000000  0.0000000  )
         6           C   tau(   6) = (  0.0666667  0.3333333  0.0000000  )
         7           C   tau(   7) = (  0.0000000  0.4000000  0.0000000  )
         8           C   tau(   8) = (  0.0666667  0.5333333  0.0000000  )
         9           C   tau(   9) = (  0.0000000  0.6000000  0.0000000  )
        10           C   tau(  10) = (  0.0666667  0.7333333  0.0000000  )
        11           C   tau(  11) = (  0.0000000  0.8000000  0.0000000  )
        12           C   tau(  12) = (  0.0666667  0.9333333  0.0000000  )
        13           C   tau(  13) = (  0.2000000  0.0000000  0.0000000  )
        14           C   tau(  14) = (  0.2666667  0.1333333  0.0000000  )
        15           C   tau(  15) = (  0.2000000  0.2000000  0.0000000  )
        16           C   tau(  16) = (  0.2666667  0.3333333  0.0000000  )
        17           C   tau(  17) = (  0.2000000  0.4000000  0.0000000  )
        18           C   tau(  18) = (  0.2666667  0.5333333  0.0000000  )
        19           C   tau(  19) = (  0.2000000  0.6000000  0.0000000  )
        20           C   tau(  20) = (  0.2666667  0.7333333  0.0000000  )
        21           C   tau(  21) = (  0.2000000  0.8000000  0.0000000  )
        22           C   tau(  22) = (  0.2666667  0.9333333  0.0000000  )
        23           C   tau(  23) = (  0.4000000  0.0000000  0.0000000  )
        24           C   tau(  24) = (  0.4666667  0.1333333  0.0000000  )
        25           C   tau(  25) = (  0.4000000  0.2000000  0.0000000  )
        26           C   tau(  26) = (  0.4666667  0.3333333  0.0000000  )
        27           C   tau(  27) = (  0.4000000  0.4000000  0.0000000  )
        28           Cu  tau(  28) = (  0.4666667  0.5333333  0.0000000  )
        29           C   tau(  29) = (  0.4000000  0.6000000  0.0000000  )
        30           C   tau(  30) = (  0.4666667  0.7333333  0.0000000  )
        31           C   tau(  31) = (  0.4000000  0.8000000  0.0000000  )
        32           C   tau(  32) = (  0.4666667  0.9333333  0.0000000  )
        33           C   tau(  33) = (  0.6000000  0.0000000  0.0000000  )
        34           C   tau(  34) = (  0.6666667  0.1333333  0.0000000  )
        35           C   tau(  35) = (  0.6000000  0.2000000  0.0000000  )
        36           C   tau(  36) = (  0.6666667  0.3333333  0.0000000  )
        37           C   tau(  37) = (  0.6000000  0.4000000  0.0000000  )
        38           C   tau(  38) = (  0.6666667  0.5333333  0.0000000  )
        39           C   tau(  39) = (  0.6000000  0.6000000  0.0000000  )
        40           C   tau(  40) = (  0.6666667  0.7333333  0.0000000  )
        41           C   tau(  41) = (  0.6000000  0.8000000  0.0000000  )
        42           C   tau(  42) = (  0.6666667  0.9333333  0.0000000  )
        43           C   tau(  43) = (  0.8000000  0.0000000  0.0000000  )
        44           C   tau(  44) = (  0.8666667  0.1333333  0.0000000  )
        45           C   tau(  45) = (  0.8000000  0.2000000  0.0000000  )
        46           C   tau(  46) = (  0.8666667  0.3333333  0.0000000  )
        47           C   tau(  47) = (  0.8000000  0.4000000  0.0000000  )
        48           C   tau(  48) = (  0.8666667  0.5333333  0.0000000  )
        49           C   tau(  49) = (  0.8000000  0.6000000  0.0000000  )
        50           C   tau(  50) = (  0.8666667  0.7333333  0.0000000  )
        51           C   tau(  51) = (  0.8000000  0.8000000  0.0000000  )
        52           C   tau(  52) = (  0.8666667  0.9333333  0.0000000  )

     number of k points=     1  Marzari-Vanderbilt smearing, width (Ry)=  0.0010
                       cart. coord. in units 2pi/alat
        k(    1) = (   0.0000000   0.0000000   0.0000000), wk =   1.0000000

                       cryst. coord.
        k(    1) = (   0.0000000   0.0000000   0.0000000), wk =   1.0000000

     Dense  grid:  1626001 G-vectors     FFT dimensions: ( 180, 180, 135)

     Smooth grid:   702581 G-vectors     FFT dimensions: ( 125, 125, 108)

     Dynamical RAM for                 wfc:      28.14 MB

     Dynamical RAM for     wfc (w. buffer):      84.42 MB

     Dynamical RAM for           str. fact:      12.41 MB

     Dynamical RAM for           local pot:       0.00 MB

     Dynamical RAM for          nlocal pot:      92.46 MB

     Dynamical RAM for                qrad:      19.73 MB

     Dynamical RAM for          rho,v,vnew:      58.92 MB

     Dynamical RAM for               rhoin:      19.64 MB

     Dynamical RAM for            rho*nmix:     132.32 MB

     Dynamical RAM for           G-vectors:      16.40 MB

     Dynamical RAM for          h,s,v(r/c):      11.63 MB

     Dynamical RAM for          <psi|beta>:       0.80 MB

     Dynamical RAM for                 psi:     112.56 MB

     Dynamical RAM for                hpsi:     112.56 MB

     Dynamical RAM for                spsi:     112.56 MB

     Dynamical RAM for      wfcinit/wfcrot:      93.45 MB

     Dynamical RAM for           addusdens:     975.89 MB

     Estimated static dynamical RAM per process >     486.96 MB

     Estimated max dynamical RAM per process >       1.43 GB

     Estimated total dynamical RAM >       8.57 GB
     Generating pointlists ...
     new r_m :   0.0252 (alat units)  0.5862 (a.u.) for type    1
     new r_m :   0.0476 (alat units)  1.1095 (a.u.) for type    2
     new r_m :   0.0476 (alat units)  1.1095 (a.u.) for type    3

     Check: negative core charge=   -0.000002

     Initial potential from superposition of free atoms

     starting charge  208.80532, renormalised to  209.00000

     negative rho (up, down):  6.852E-05 9.051E-03


---------------------------------------------------------------------------------
Carrying out rVV10 run using the following parameters:
Nqs =      20    Nr_points =    1024   r_max =   100.000
b_value =  6.30000    beta =  0.00901
     q_mesh =  0.00010000  0.00030000  0.00058939  0.00100810
               0.00161396  0.00249058  0.00375900  0.00559430
               0.00824984  0.01209221  0.01765183  0.02569619
               0.03733578  0.05417739  0.07854596  0.11380545
               0.16482331  0.23864234  0.34545298  0.50000000

Gradients computed in Reciprocal space

---------------------------------------------------------------------------------


     Starting wfcs are  207 randomized atomic wfcs

     total cpu time spent up to now is       70.6 secs

     Self-consistent Calculation

     iteration #  1     ecut=    70.00 Ry     beta= 0.70
     Davidson diagonalization with overlap
     ethr =  1.00E-02,  avg # of iterations =  2.5

     negative rho (up, down):  1.309E-04 9.670E-03

     total cpu time spent up to now is      191.4 secs

     total energy              =    -726.91149457 Ry
     Harris-Foulkes estimate   =    -734.96438498 Ry
     estimated scf accuracy    <      14.81856047 Ry

     total magnetization       =     7.00 Bohr mag/cell
     absolute magnetization    =     7.39 Bohr mag/cell

     iteration #  2     ecut=    70.00 Ry     beta= 0.70
     Davidson diagonalization with overlap
     ethr =  7.09E-03,  avg # of iterations =  4.0

     negative rho (up, down):  1.386E-04 8.400E-03

     total cpu time spent up to now is      308.4 secs

     total energy              =    -726.81347475 Ry
     Harris-Foulkes estimate   =    -745.91986622 Ry
     estimated scf accuracy    <      52.47934033 Ry

     total magnetization       =     1.16 Bohr mag/cell
     absolute magnetization    =     1.82 Bohr mag/cell

     iteration #  3     ecut=    70.00 Ry     beta= 0.70
     Davidson diagonalization with overlap
     ethr =  7.09E-03,  avg # of iterations =  4.0

     negative rho (up, down):  1.674E-04 7.562E-03

     total cpu time spent up to now is      410.2 secs

     total energy              =    -731.88665734 Ry
     Harris-Foulkes estimate   =    -736.58533854 Ry
     estimated scf accuracy    <      13.70809852 Ry

     total magnetization       =     3.00 Bohr mag/cell
     absolute magnetization    =     3.23 Bohr mag/cell

     iteration #  4     ecut=    70.00 Ry     beta= 0.70
     Davidson diagonalization with overlap
     ethr =  6.56E-03,  avg # of iterations =  3.0

     negative rho (up, down):  2.101E-04 5.638E-03

     total cpu time spent up to now is      499.7 secs

     total energy              =    -733.78764944 Ry
     Harris-Foulkes estimate   =    -734.86863265 Ry
     estimated scf accuracy    <       4.72373027 Ry

     total magnetization       =     3.00 Bohr mag/cell
     absolute magnetization    =     3.16 Bohr mag/cell

     iteration #  5     ecut=    70.00 Ry     beta= 0.70
     Davidson diagonalization with overlap
     ethr =  2.26E-03,  avg # of iterations =  2.0

     negative rho (up, down):  2.398E-04 8.439E-03

     total cpu time spent up to now is      589.3 secs

     total energy              =    -734.29716865 Ry
     Harris-Foulkes estimate   =    -735.09841215 Ry
     estimated scf accuracy    <       3.83218958 Ry

     total magnetization       =     1.00 Bohr mag/cell
     absolute magnetization    =     1.48 Bohr mag/cell

     iteration #  6     ecut=    70.00 Ry     beta= 0.70
     Davidson diagonalization with overlap
     ethr =  1.83E-03,  avg # of iterations =  2.0

     negative rho (up, down):  3.001E-04 1.439E-02

     total cpu time spent up to now is      677.6 secs

     total energy              =    -734.69850448 Ry
     Harris-Foulkes estimate   =    -734.76528887 Ry
     estimated scf accuracy    <       0.18415051 Ry

     total magnetization       =     1.00 Bohr mag/cell
     absolute magnetization    =     1.35 Bohr mag/cell

     iteration #  7     ecut=    70.00 Ry     beta= 0.70
     Davidson diagonalization with overlap
     ethr =  8.81E-05,  avg # of iterations =  7.0

     negative rho (up, down):  4.125E-04 1.200E-02

     total cpu time spent up to now is      788.6 secs

     total energy              =    -734.71879455 Ry
     Harris-Foulkes estimate   =    -734.79887206 Ry
     estimated scf accuracy    <       0.28193267 Ry

     total magnetization       =     1.00 Bohr mag/cell
     absolute magnetization    =     1.24 Bohr mag/cell

     iteration #  8     ecut=    70.00 Ry     beta= 0.70
     Davidson diagonalization with overlap
     ethr =  8.81E-05,  avg # of iterations =  3.0

     negative rho (up, down):  4.953E-04 5.746E-03

     total cpu time spent up to now is      881.1 secs

     total energy              =    -734.74767884 Ry
     Harris-Foulkes estimate   =    -734.76513128 Ry
     estimated scf accuracy    <       0.06367395 Ry

     total magnetization       =     1.00 Bohr mag/cell
     absolute magnetization    =     1.20 Bohr mag/cell

     iteration #  9     ecut=    70.00 Ry     beta= 0.70
     Davidson diagonalization with overlap
     ethr =  3.05E-05,  avg # of iterations =  5.5

     negative rho (up, down):  5.499E-04 2.915E-03

     total cpu time spent up to now is      974.7 secs

     total energy              =    -734.75617193 Ry
     Harris-Foulkes estimate   =    -734.76074013 Ry
     estimated scf accuracy    <       0.04739969 Ry

     total magnetization       =     1.00 Bohr mag/cell
     absolute magnetization    =     1.16 Bohr mag/cell

     iteration # 10     ecut=    70.00 Ry     beta= 0.70
     Davidson diagonalization with overlap
     ethr =  2.27E-05,  avg # of iterations =  1.0

     negative rho (up, down):  5.554E-04 2.538E-03

     total cpu time spent up to now is     1060.3 secs

     total energy              =    -734.75607793 Ry
     Harris-Foulkes estimate   =    -734.75895036 Ry
     estimated scf accuracy    <       0.02210112 Ry

     total magnetization       =     1.00 Bohr mag/cell
     absolute magnetization    =     1.14 Bohr mag/cell

     iteration # 11     ecut=    70.00 Ry     beta= 0.70
     Davidson diagonalization with overlap
     ethr =  1.06E-05,  avg # of iterations =  1.0

     negative rho (up, down):  5.774E-04 2.887E-03

     total cpu time spent up to now is     1145.8 secs

     total energy              =    -734.75713476 Ry
     Harris-Foulkes estimate   =    -734.75959678 Ry
     estimated scf accuracy    <       0.02679851 Ry

     total magnetization       =     1.00 Bohr mag/cell
     absolute magnetization    =     1.14 Bohr mag/cell

     iteration # 12     ecut=    70.00 Ry     beta= 0.70
     Davidson diagonalization with overlap
     ethr =  1.06E-05,  avg # of iterations =  4.5

     negative rho (up, down):  5.784E-04 2.068E-03

     total cpu time spent up to now is     1234.1 secs

     total energy              =    -734.75795660 Ry
     Harris-Foulkes estimate   =    -734.75821946 Ry
     estimated scf accuracy    <       0.00205684 Ry

     total magnetization       =     1.00 Bohr mag/cell
     absolute magnetization    =     1.11 Bohr mag/cell

     iteration # 13     ecut=    70.00 Ry     beta= 0.70
     Davidson diagonalization with overlap
     ethr =  9.84E-07,  avg # of iterations =  4.0

     negative rho (up, down):  5.797E-04 1.940E-03

     total cpu time spent up to now is     1322.7 secs

     total energy              =    -734.75814333 Ry
     Harris-Foulkes estimate   =    -734.75817165 Ry
     estimated scf accuracy    <       0.00027159 Ry

     total magnetization       =     1.00 Bohr mag/cell
     absolute magnetization    =     1.09 Bohr mag/cell

     iteration # 14     ecut=    70.00 Ry     beta= 0.70
     Davidson diagonalization with overlap
     ethr =  1.30E-07,  avg # of iterations =  2.5

     negative rho (up, down):  5.704E-04 1.502E-03

     total cpu time spent up to now is     1411.3 secs

     total energy              =    -734.75817616 Ry
     Harris-Foulkes estimate   =    -734.75817594 Ry
     estimated scf accuracy    <       0.00002293 Ry

     total magnetization       =     1.00 Bohr mag/cell
     absolute magnetization    =     1.08 Bohr mag/cell

     iteration # 15     ecut=    70.00 Ry     beta= 0.70
     Davidson diagonalization with overlap
     ethr =  1.10E-08,  avg # of iterations =  3.0

     negative rho (up, down):  5.708E-04 1.532E-03

     total cpu time spent up to now is     1519.1 secs

     total energy              =    -734.75818447 Ry
     Harris-Foulkes estimate   =    -734.75818762 Ry
     estimated scf accuracy    <       0.00020774 Ry

     total magnetization       =     1.00 Bohr mag/cell
     absolute magnetization    =     1.07 Bohr mag/cell

     iteration # 16     ecut=    70.00 Ry     beta= 0.70
     Davidson diagonalization with overlap
     ethr =  1.10E-08,  avg # of iterations =  2.0

     negative rho (up, down):  5.690E-04 1.508E-03

     total cpu time spent up to now is     1605.2 secs

     total energy              =    -734.75818366 Ry
     Harris-Foulkes estimate   =    -734.75818657 Ry
     estimated scf accuracy    <       0.00010047 Ry

     total magnetization       =     1.00 Bohr mag/cell
     absolute magnetization    =     1.07 Bohr mag/cell

     iteration # 17     ecut=    70.00 Ry     beta= 0.70
     Davidson diagonalization with overlap
     ethr =  1.10E-08,  avg # of iterations =  2.0

     negative rho (up, down):  5.678E-04 1.478E-03

     total cpu time spent up to now is     1694.6 secs

     total energy              =    -734.75818479 Ry
     Harris-Foulkes estimate   =    -734.75818803 Ry
     estimated scf accuracy    <       0.00001156 Ry

     total magnetization       =     1.00 Bohr mag/cell
     absolute magnetization    =     1.07 Bohr mag/cell

     iteration # 18     ecut=    70.00 Ry     beta= 0.70
     Davidson diagonalization with overlap
     ethr =  5.53E-09,  avg # of iterations =  2.0

     negative rho (up, down):  5.675E-04 1.484E-03

     total cpu time spent up to now is     1785.7 secs

     total energy              =    -734.75818863 Ry
     Harris-Foulkes estimate   =    -734.75818874 Ry
     estimated scf accuracy    <       0.00009591 Ry

     total magnetization       =     1.00 Bohr mag/cell
     absolute magnetization    =     1.07 Bohr mag/cell

     iteration # 19     ecut=    70.00 Ry     beta= 0.70
     Davidson diagonalization with overlap
     ethr =  5.53E-09,  avg # of iterations =  2.0

     negative rho (up, down):  5.664E-04 1.476E-03

     total cpu time spent up to now is     1883.8 secs

     total energy              =    -734.75818823 Ry
     Harris-Foulkes estimate   =    -734.75818993 Ry
     estimated scf accuracy    <       0.00007944 Ry

     total magnetization       =     1.00 Bohr mag/cell
     absolute magnetization    =     1.07 Bohr mag/cell

     iteration # 20     ecut=    70.00 Ry     beta= 0.70
     Davidson diagonalization with overlap
     ethr =  5.53E-09,  avg # of iterations =  2.5

     negative rho (up, down):  5.661E-04 1.476E-03

     total cpu time spent up to now is     1979.5 secs

     total energy              =    -734.75818958 Ry
     Harris-Foulkes estimate   =    -734.75819029 Ry
     estimated scf accuracy    <       0.00008970 Ry

     total magnetization       =     1.00 Bohr mag/cell
     absolute magnetization    =     1.07 Bohr mag/cell

     iteration # 21     ecut=    70.00 Ry     beta= 0.70
     Davidson diagonalization with overlap
     ethr =  5.53E-09,  avg # of iterations =  1.0

     negative rho (up, down):  5.656E-04 1.468E-03

     total cpu time spent up to now is     2069.0 secs

     total energy              =    -734.75818922 Ry
     Harris-Foulkes estimate   =    -734.75818995 Ry
     estimated scf accuracy    <       0.00005304 Ry

     total magnetization       =     1.00 Bohr mag/cell
     absolute magnetization    =     1.06 Bohr mag/cell

     iteration # 22     ecut=    70.00 Ry     beta= 0.70
     Davidson diagonalization with overlap
     ethr =  5.53E-09,  avg # of iterations =  2.0

     negative rho (up, down):  5.656E-04 1.454E-03

     total cpu time spent up to now is     2163.9 secs

     total energy              =    -734.75818944 Ry
     Harris-Foulkes estimate   =    -734.75819078 Ry
     estimated scf accuracy    <       0.00002718 Ry

     total magnetization       =     1.00 Bohr mag/cell
     absolute magnetization    =     1.06 Bohr mag/cell

     iteration # 23     ecut=    70.00 Ry     beta= 0.70
     Davidson diagonalization with overlap
     ethr =  5.53E-09,  avg # of iterations =  2.0

     negative rho (up, down):  5.654E-04 1.458E-03

     total cpu time spent up to now is     2252.9 secs

     total energy              =    -734.75818978 Ry
     Harris-Foulkes estimate   =    -734.75819074 Ry
     estimated scf accuracy    <       0.00001217 Ry

     total magnetization       =     1.00 Bohr mag/cell
     absolute magnetization    =     1.06 Bohr mag/cell

     iteration # 24     ecut=    70.00 Ry     beta= 0.70
     Davidson diagonalization with overlap
     ethr =  5.53E-09,  avg # of iterations =  1.0

     negative rho (up, down):  5.659E-04 1.453E-03

     total cpu time spent up to now is     2338.4 secs

     total energy              =    -734.75819027 Ry
     Harris-Foulkes estimate   =    -734.75819039 Ry
     estimated scf accuracy    <       0.00000795 Ry

     total magnetization       =     1.00 Bohr mag/cell
     absolute magnetization    =     1.06 Bohr mag/cell

     iteration # 25     ecut=    70.00 Ry     beta= 0.70
     Davidson diagonalization with overlap
     ethr =  3.80E-09,  avg # of iterations =  1.5

     negative rho (up, down):  5.659E-04 1.453E-03

     total cpu time spent up to now is     2424.0 secs

     total energy              =    -734.75819023 Ry
     Harris-Foulkes estimate   =    -734.75819066 Ry
     estimated scf accuracy    <       0.00000487 Ry

     total magnetization       =     1.00 Bohr mag/cell
     absolute magnetization    =     1.06 Bohr mag/cell

     iteration # 26     ecut=    70.00 Ry     beta= 0.70
     Davidson diagonalization with overlap
     ethr =  2.33E-09,  avg # of iterations =  1.5

     negative rho (up, down):  5.659E-04 1.455E-03

     total cpu time spent up to now is     2509.7 secs

     total energy              =    -734.75819021 Ry
     Harris-Foulkes estimate   =    -734.75819044 Ry
     estimated scf accuracy    <       0.00000180 Ry

     total magnetization       =     1.00 Bohr mag/cell
     absolute magnetization    =     1.06 Bohr mag/cell

     iteration # 27     ecut=    70.00 Ry     beta= 0.70
     Davidson diagonalization with overlap
     ethr =  8.59E-10,  avg # of iterations =  2.5

     negative rho (up, down):  5.660E-04 1.453E-03

     Magnetic moment per site:
     atom:    1    charge:    0.2116    magn:   -0.0000    constr:    0.0000
     atom:    2    charge:    0.2111    magn:   -0.0000    constr:    0.0000
     atom:    3    charge:    1.7158    magn:    0.0016    constr:    0.0000
     atom:    4    charge:    1.7153    magn:    0.0017    constr:    0.0000
     atom:    5    charge:    1.7170    magn:    0.0001    constr:    0.0000
     atom:    6    charge:    1.7146    magn:   -0.0001    constr:    0.0000
     atom:    7    charge:    1.7169    magn:    0.0001    constr:    0.0000
     atom:    8    charge:    1.7153    magn:    0.0017    constr:    0.0000
     atom:    9    charge:    1.7157    magn:    0.0016    constr:    0.0000
     atom:   10    charge:    1.7170    magn:   -0.0009    constr:    0.0000
     atom:   11    charge:    1.7160    magn:    0.0005    constr:    0.0000
     atom:   12    charge:    1.7170    magn:   -0.0009    constr:    0.0000
     atom:   13    charge:    1.7160    magn:    0.0005    constr:    0.0000
     atom:   14    charge:    1.7168    magn:   -0.0010    constr:    0.0000
     atom:   15    charge:    1.7130    magn:    0.0073    constr:    0.0000
     atom:   16    charge:    1.7108    magn:    0.0133    constr:    0.0000
     atom:   17    charge:    1.7213    magn:    0.0030    constr:    0.0000
     atom:   18    charge:    1.7109    magn:    0.0133    constr:    0.0000
     atom:   19    charge:    1.7130    magn:    0.0073    constr:    0.0000
     atom:   20    charge:    1.7168    magn:   -0.0010    constr:    0.0000
     atom:   21    charge:    1.7159    magn:    0.0005    constr:    0.0000
     atom:   22    charge:    1.7170    magn:   -0.0009    constr:    0.0000
     atom:   23    charge:    1.7157    magn:    0.0016    constr:    0.0000
     atom:   24    charge:    1.7153    magn:    0.0017    constr:    0.0000
     atom:   25    charge:    1.7129    magn:    0.0072    constr:    0.0000
     atom:   26    charge:    1.7107    magn:    0.0130    constr:    0.0000
     atom:   27    charge:    1.8171    magn:    0.0792    constr:    0.0000
     atom:   28    charge:    7.0284    magn:    0.1548    constr:    0.0000
     atom:   29    charge:    1.8172    magn:    0.0792    constr:    0.0000
     atom:   30    charge:    1.7108    magn:    0.0130    constr:    0.0000
     atom:   31    charge:    1.7130    magn:    0.0072    constr:    0.0000
     atom:   32    charge:    1.7153    magn:    0.0017    constr:    0.0000
     atom:   33    charge:    1.7170    magn:    0.0001    constr:    0.0000
     atom:   34    charge:    1.7153    magn:   -0.0000    constr:    0.0000
     atom:   35    charge:    1.7169    magn:    0.0001    constr:    0.0000
     atom:   36    charge:    1.7146    magn:   -0.0001    constr:    0.0000
     atom:   37    charge:    1.7214    magn:    0.0031    constr:    0.0000
     atom:   38    charge:    1.7108    magn:    0.0131    constr:    0.0000
     atom:   39    charge:    1.8177    magn:    0.0804    constr:    0.0000
     atom:   40    charge:    1.7108    magn:    0.0131    constr:    0.0000
     atom:   41    charge:    1.7214    magn:    0.0031    constr:    0.0000
     atom:   42    charge:    1.7146    magn:   -0.0001    constr:    0.0000
     atom:   43    charge:    1.7170    magn:    0.0001    constr:    0.0000
     atom:   44    charge:    1.7153    magn:   -0.0000    constr:    0.0000
     atom:   45    charge:    1.7211    magn:   -0.0007    constr:    0.0000
     atom:   46    charge:    1.7153    magn:   -0.0000    constr:    0.0000
     atom:   47    charge:    1.7169    magn:    0.0001    constr:    0.0000
     atom:   48    charge:    1.7153    magn:    0.0017    constr:    0.0000
     atom:   49    charge:    1.7130    magn:    0.0073    constr:    0.0000
     atom:   50    charge:    1.7169    magn:   -0.0010    constr:    0.0000
     atom:   51    charge:    1.7130    magn:    0.0073    constr:    0.0000
     atom:   52    charge:    1.7153    magn:    0.0017    constr:    0.0000

     total cpu time spent up to now is     2600.5 secs

     End of self-consistent calculation

 ------ SPIN UP ------------


          k = 0.0000 0.0000 0.0000 ( 87777 PWs)   bands (ev):

   -19.8484 -19.0063 -19.0063 -18.9109 -18.9107 -18.8488 -18.7735 -17.1771
   -17.1768 -17.1392 -17.0955 -17.0951 -16.8169 -16.3362 -16.3360 -16.1903
   -16.1901 -16.1680 -15.7769 -14.4335 -14.4330 -14.1373 -14.0414 -14.0412
   -13.5847 -13.1741 -13.1741 -13.0874 -12.9451 -12.9449 -12.6398 -12.3253
   -12.3252 -11.7219 -11.6162 -11.6161 -11.1951 -10.9466 -10.9464  -9.5326
    -9.3717  -9.3716  -9.2502  -9.2405  -9.2404  -9.2312  -9.1208  -9.1203
    -9.0688  -9.0686  -8.9698  -8.7249  -8.7248  -7.9641  -7.9040  -7.8466
    -7.6716  -7.6714  -7.5415  -7.5415  -6.9473  -6.8485  -6.8483  -6.8256
    -6.7966  -6.7230  -6.7227  -6.7200  -6.6262  -6.6258  -6.5813  -6.5747
    -6.5747  -6.5467  -6.5289  -6.4058  -6.4057  -5.6206  -5.6206  -5.0361
    -5.0255  -4.9640  -4.8931  -4.8930  -4.7693  -4.7325  -4.7323  -4.5484
    -4.5482  -4.4768  -3.8588  -3.8587  -3.8255  -3.8254  -3.7896  -3.6473
    -3.6471  -3.4152  -1.8905  -1.8334  -1.8332  -1.7409  -1.7405  -1.2307
    -0.8479  -0.8477   0.9041   0.9409   0.9412   1.0874   1.0876   1.4896
     2.4746   2.7868   2.7871   2.8309   2.9240   2.9243   3.3645   3.5995
     3.6036   3.7281   3.7325   3.7509   3.7564   3.8787

     occupation numbers 
     1.0000   1.0000   1.0000   1.0000   1.0000   1.0000   1.0000   1.0000
     1.0000   1.0000   1.0000   1.0000   1.0000   1.0000   1.0000   1.0000
     1.0000   1.0000   1.0000   1.0000   1.0000   1.0000   1.0000   1.0000
     1.0000   1.0000   1.0000   1.0000   1.0000   1.0000   1.0000   1.0000
     1.0000   1.0000   1.0000   1.0000   1.0000   1.0000   1.0000   1.0000
     1.0000   1.0000   1.0000   1.0000   1.0000   1.0000   1.0000   1.0000
     1.0000   1.0000   1.0000   1.0000   1.0000   1.0000   1.0000   1.0000
     1.0000   1.0000   1.0000   1.0000   1.0000   1.0000   1.0000   1.0000
     1.0000   1.0000   1.0000   1.0000   1.0000   1.0000   1.0000   1.0000
     1.0000   1.0000   1.0000   1.0000   1.0000   1.0000   1.0000   1.0000
     1.0000   1.0000   1.0000   1.0000   1.0000   1.0000   1.0000   1.0000
     1.0000   1.0000   1.0000   1.0000   1.0000   1.0000   1.0000   1.0000
     1.0000   1.0000   1.0000   1.0000   1.0000   1.0000   1.0000   1.0000
     0.5054   0.4946   0.0000   0.0000   0.0000   0.0000   0.0000   0.0000
     0.0000   0.0000   0.0000   0.0000   0.0000   0.0000   0.0000   0.0000
     0.0000   0.0000   0.0000   0.0000   0.0000   0.0000

 ------ SPIN DOWN ----------


          k = 0.0000 0.0000 0.0000 ( 87777 PWs)   bands (ev):

   -19.8232 -18.9738 -18.9737 -18.9041 -18.9038 -18.8457 -18.6981 -17.1373
   -17.1371 -17.1232 -17.0738 -17.0733 -16.7834 -16.2989 -16.2986 -16.1687
   -16.1683 -16.1610 -15.7013 -14.3431 -14.3429 -14.1131 -14.0333 -14.0331
   -13.5422 -13.1487 -13.1486 -13.0744 -12.9085 -12.9081 -12.5750 -12.2141
   -12.2138 -11.7022 -11.5817 -11.5814 -11.0898 -10.8166 -10.8164  -9.4916
    -9.3523  -9.3520  -9.2426  -9.2317  -9.2316  -9.2188  -9.0122  -9.0121
    -8.9493  -8.9480  -8.8450  -8.6836  -8.6833  -7.9539  -7.8797  -7.8248
    -7.6227  -7.6226  -7.5239  -7.5238  -6.8975  -6.8473  -6.8472  -6.7961
    -6.7850  -6.7098  -6.7095  -6.6832  -6.6042  -6.6039  -6.5736  -6.5708
    -6.5707  -6.5463  -6.5228  -6.3649  -6.3649  -5.5931  -5.5929  -5.0170
    -4.9542  -4.8732  -4.8731  -4.8120  -4.7644  -4.7314  -4.7312  -4.5387
    -4.5385  -4.4607  -3.8547  -3.8546  -3.8000  -3.7998  -3.7904  -3.6290
    -3.6288  -3.3772  -1.8866  -1.8315  -1.8312  -1.7187  -1.7183  -1.1943
    -0.4476  -0.4442   0.9072   0.9442   0.9445   1.1108   1.1109   1.5017
     2.4758   2.7890   2.7893   2.8321   2.9513   2.9517   3.3722   3.6005
     3.6049   3.7275   3.7317   3.7498   3.7631   3.8906

     occupation numbers 
     1.0000   1.0000   1.0000   1.0000   1.0000   1.0000   1.0000   1.0000
     1.0000   1.0000   1.0000   1.0000   1.0000   1.0000   1.0000   1.0000
     1.0000   1.0000   1.0000   1.0000   1.0000   1.0000   1.0000   1.0000
     1.0000   1.0000   1.0000   1.0000   1.0000   1.0000   1.0000   1.0000
     1.0000   1.0000   1.0000   1.0000   1.0000   1.0000   1.0000   1.0000
     1.0000   1.0000   1.0000   1.0000   1.0000   1.0000   1.0000   1.0000
     1.0000   1.0000   1.0000   1.0000   1.0000   1.0000   1.0000   1.0000
     1.0000   1.0000   1.0000   1.0000   1.0000   1.0000   1.0000   1.0000
     1.0000   1.0000   1.0000   1.0000   1.0000   1.0000   1.0000   1.0000
     1.0000   1.0000   1.0000   1.0000   1.0000   1.0000   1.0000   1.0000
     1.0000   1.0000   1.0000   1.0000   1.0000   1.0000   1.0000   1.0000
     1.0000   1.0000   1.0000   1.0000   1.0000   1.0000   1.0000   1.0000
     1.0000   1.0000   1.0000   1.0000   1.0000   1.0000   1.0000   1.0000
     0.0000   0.0000   0.0000   0.0000   0.0000   0.0000   0.0000   0.0000
     0.0000   0.0000   0.0000   0.0000   0.0000   0.0000   0.0000   0.0000
     0.0000   0.0000   0.0000   0.0000   0.0000   0.0000

     the Fermi energy is    -0.8459 ev

!    total energy              =    -734.75819019 Ry
     Harris-Foulkes estimate   =    -734.75819047 Ry
     estimated scf accuracy    <       0.00000045 Ry

     The total energy is the sum of the following terms:

     one-electron contribution =   -2475.07078793 Ry
     hartree contribution      =    1293.20950725 Ry
     xc contribution           =    -275.91881146 Ry
     ewald contribution        =     723.02223010 Ry
     smearing contrib. (-TS)   =      -0.00032814 Ry

     total magnetization       =     1.00 Bohr mag/cell
     absolute magnetization    =     1.07 Bohr mag/cell

     convergence has been achieved in  27 iterations

     Writing output data file cobre-baricentro-5.0.save/

     init_run     :     68.39s CPU     69.55s WALL (       1 calls)
     electrons    :   2482.75s CPU   2530.03s WALL (       1 calls)

     Called by init_run:
     wfcinit      :     39.19s CPU     39.47s WALL (       1 calls)
     wfcinit:atom :      0.06s CPU      0.08s WALL (       2 calls)
     wfcinit:wfcr :     38.77s CPU     38.98s WALL (       2 calls)
     potinit      :     12.55s CPU     12.87s WALL (       1 calls)
     hinit0       :      8.44s CPU      8.48s WALL (       1 calls)

     Called by electrons:
     c_bands      :   1542.64s CPU   1551.08s WALL (      27 calls)
     sum_band     :    533.07s CPU    549.47s WALL (      27 calls)
     v_of_rho     :    200.66s CPU    209.40s WALL (      28 calls)
     v_h          :      2.10s CPU      2.19s WALL (      28 calls)
     v_xc         :    198.56s CPU    207.21s WALL (      28 calls)
     newd         :    202.27s CPU    216.39s WALL (      28 calls)
     mix_rho      :     11.65s CPU     11.84s WALL (      27 calls)

     Called by c_bands:
     init_us_2    :      4.75s CPU      4.78s WALL (     110 calls)
     cegterg      :   1530.83s CPU   1539.20s WALL (      54 calls)

     Called by sum_band:
     sum_band:bec :      0.04s CPU      0.04s WALL (      54 calls)
     addusdens    :    336.86s CPU    352.11s WALL (      27 calls)

     Called by *egterg:
     h_psi        :    796.26s CPU    801.99s WALL (     198 calls)
     s_psi        :    263.82s CPU    264.00s WALL (     198 calls)
     g_psi        :      0.90s CPU      0.90s WALL (     142 calls)
     cdiaghg      :     11.80s CPU     11.81s WALL (     196 calls)
     cegterg:over :    195.54s CPU    195.66s WALL (     142 calls)
     cegterg:upda :    117.59s CPU    118.35s WALL (     142 calls)
     cegterg:last :     88.22s CPU     88.26s WALL (      54 calls)

     Called by h_psi:
     h_psi:pot    :    795.25s CPU    799.96s WALL (     198 calls)
     h_psi:calbec :    264.30s CPU    264.42s WALL (     198 calls)
     vloc_psi     :    267.34s CPU    271.80s WALL (     198 calls)
     add_vuspsi   :    263.61s CPU    263.74s WALL (     198 calls)

     General routines
     calbec       :    379.61s CPU    379.79s WALL (     252 calls)
     fft          :    118.83s CPU    122.40s WALL (    2094 calls)
     ffts         :      2.01s CPU      2.07s WALL (     110 calls)
     fftw         :    291.10s CPU    296.04s WALL (   37890 calls)
     interpolate  :      4.85s CPU      4.96s WALL (      56 calls)

     Parallel routines
     fft_scatt_xy :     70.23s CPU     71.17s WALL (   40094 calls)
     fft_scatt_yz :    146.92s CPU    153.18s WALL (   40094 calls)

     PWSCF        :  42m32.44s CPU  43m21.21s WALL


   This run was terminated on:   0:28:54   6Sep2022            

=------------------------------------------------------------------------------=
   JOB DONE.
=------------------------------------------------------------------------------=
