
     Program PWSCF v.6.4.1 starts on  6Sep2022 at  4: 1:13 

     This program is part of the open-source Quantum ESPRESSO suite
     for quantum simulation of materials; please cite
         "P. Giannozzi et al., J. Phys.:Condens. Matter 21 395502 (2009);
         "P. Giannozzi et al., J. Phys.:Condens. Matter 29 465901 (2017);
          URL http://www.quantum-espresso.org", 
     in publications or presentations arising from this work. More details at
     http://www.quantum-espresso.org/quote

     Parallel version (MPI), running on     6 processors

     MPI processes distributed on     1 nodes
     R & G space division:  proc/nbgrp/npool/nimage =       6
     Reading input from distance-2.6.in

     Current dimensions of program PWSCF are:
     Max number of different atomic species (ntypx) = 10
     Max number of k-points (npk) =  40000
     Max angular momentum in pseudopotentials (lmaxx) =  3

     IMPORTANT: XC functional enforced from input :
     Exchange-correlation      = RVV10 ( 1  4 13  4 3 0)
     Any further DFT definition will be discarded
     Please, verify this is what you really want

               file H.pbe-rrkjus.UPF: wavefunction(s)  1S renormalized
               file Cu.pbe-dn-rrkjus_psl.1.0.0.UPF: wavefunction(s)  3D renormalized

     Subspace diagonalization in iterative solution of the eigenvalue problem:
     a serial algorithm will be used


     Parallelization info
     --------------------
     sticks:   dense  smooth     PW     G-vecs:    dense   smooth      PW
     Min        3051    1746    432               270999   117096   14629
     Max        3053    1747    437               271001   117099   14630
     Sum       18313   10477   2611              1626001   702581   87777



     bravais-lattice index     =            4
     lattice parameter (alat)  =      23.2937  a.u.
     unit-cell volume          =    8879.8548 (a.u.)^3
     number of atoms/cell      =           52
     number of atomic types    =            3
     number of electrons       =       209.00
     number of Kohn-Sham states=          126
     kinetic-energy cutoff     =      70.0000  Ry
     charge density cutoff     =     490.0000  Ry
     convergence threshold     =      1.0E-06
     mixing beta               =       0.7000
     number of iterations used =            8  plain     mixing
     Exchange-correlation      = RVV10 ( 1  4 13  4 3 0)

     celldm(1)=  23.293684  celldm(2)=   0.000000  celldm(3)=   0.811261
     celldm(4)=   0.000000  celldm(5)=   0.000000  celldm(6)=   0.000000

     crystal axes: (cart. coord. in units of alat)
               a(1) = (   1.000000   0.000000   0.000000 )  
               a(2) = (  -0.500000   0.866025   0.000000 )  
               a(3) = (   0.000000   0.000000   0.811261 )  

     reciprocal axes: (cart. coord. in units 2 pi/alat)
               b(1) = (  1.000000  0.577350 -0.000000 )  
               b(2) = (  0.000000  1.154701  0.000000 )  
               b(3) = (  0.000000 -0.000000  1.232649 )  


     PseudoPot. # 1 for H  read from file:
     /home/cristian/Escritorio/Proyecto_Grafeno/pseudopotenciales/H.pbe-rrkjus.UPF
     MD5 check sum: 7cc9d459525c9a0585f487a71c3c9563
     Pseudo is Ultrasoft, Zval =  1.0
     Generated by new atomic code, or converted to UPF format
     Using radial grid of 1061 points,  2 beta functions with: 
                l(1) =   0
                l(2) =   0
     Q(r) pseudized with 0 coefficients 


     PseudoPot. # 2 for C  read from file:
     /home/cristian/Escritorio/Proyecto_Grafeno/pseudopotenciales/C.pbe-n-rrkjus_psl.1.0.0.UPF
     MD5 check sum: 1fdd950c42eb37d8afe3dd2f8d12311e
     Pseudo is Ultrasoft + core correction, Zval =  4.0
     Generated using "atomic" code by A. Dal Corso v.6.3MaX
     Using radial grid of 1073 points,  4 beta functions with: 
                l(1) =   0
                l(2) =   0
                l(3) =   1
                l(4) =   1
     Q(r) pseudized with 0 coefficients 


     PseudoPot. # 3 for Cu read from file:
     /home/cristian/Escritorio/Proyecto_Grafeno/pseudopotenciales/Cu.pbe-dn-rrkjus_psl.1.0.0.UPF
     MD5 check sum: ba3d6c84e19846e79d48cdc68ff7152b
     Pseudo is Ultrasoft + core correction, Zval = 11.0
     Generated using "atomic" code by A. Dal Corso v.6.3
     Using radial grid of 1199 points,  6 beta functions with: 
                l(1) =   0
                l(2) =   0
                l(3) =   1
                l(4) =   1
                l(5) =   2
                l(6) =   2
     Q(r) pseudized with 0 coefficients 


     vdW kernel table read from file rVV10_kernel_table
     MD5 check sum: b8e2538accc0c0b3206b45ba4daaba6c

     atomic species   valence    mass     pseudopotential
        H              1.00     1.00794     H ( 1.00)
        C              4.00    12.01070     C ( 1.00)
        Cu            11.00    63.54600     Cu( 1.00)

     Starting magnetic structure 
     atomic species   magnetization
        H            0.500
        C            0.300
        Cu           0.800

     No symmetry found


                                    s                        frac. trans.

      isym =  1     identity                                     

 cryst.   s( 1) = (     1          0          0      )
                  (     0          1          0      )
                  (     0          0          1      )

 cart.    s( 1) = (  1.0000000  0.0000000  0.0000000 )
                  (  0.0000000  1.0000000  0.0000000 )
                  (  0.0000000  0.0000000  1.0000000 )


     point group C_1 (1)    
     there are  1 classes
     the character table:

       E    
A      1.00

     the symmetry operations in each class and the name of the first element:

     E        1
          identity                                               

   Cartesian axes

     site n.     atom                  positions (alat units)
         1           H   tau(   1) = (   0.2666667   0.4618802   0.2109279  )
         2           H   tau(   2) = (   0.2666667   0.4618802   0.2719406  )
         3           C   tau(   3) = (   0.0000000   0.0000000   0.0000000  )
         4           C   tau(   4) = (   0.0000000   0.1154701   0.0000000  )
         5           C   tau(   5) = (  -0.1000000   0.1732051   0.0000000  )
         6           C   tau(   6) = (  -0.1000000   0.2886751   0.0000000  )
         7           C   tau(   7) = (  -0.2000000   0.3464102   0.0000000  )
         8           C   tau(   8) = (  -0.2000000   0.4618802   0.0000000  )
         9           C   tau(   9) = (  -0.3000000   0.5196152   0.0000000  )
        10           C   tau(  10) = (  -0.3000000   0.6350853   0.0000000  )
        11           C   tau(  11) = (  -0.4000000   0.6928203   0.0000000  )
        12           C   tau(  12) = (  -0.4000000   0.8082904   0.0000000  )
        13           C   tau(  13) = (   0.2000000   0.0000000   0.0000000  )
        14           C   tau(  14) = (   0.2000000   0.1154701   0.0000000  )
        15           C   tau(  15) = (   0.1000000   0.1732051   0.0000000  )
        16           C   tau(  16) = (   0.1000000   0.2886751   0.0000000  )
        17           C   tau(  17) = (   0.0000000   0.3464102   0.0000000  )
        18           C   tau(  18) = (   0.0000000   0.4618802   0.0000000  )
        19           C   tau(  19) = (  -0.1000000   0.5196152   0.0000000  )
        20           C   tau(  20) = (  -0.1000000   0.6350853   0.0000000  )
        21           C   tau(  21) = (  -0.2000000   0.6928203   0.0000000  )
        22           C   tau(  22) = (  -0.2000000   0.8082904   0.0000000  )
        23           C   tau(  23) = (   0.4000000   0.0000000   0.0000000  )
        24           C   tau(  24) = (   0.4000000   0.1154701   0.0000000  )
        25           C   tau(  25) = (   0.3000000   0.1732051   0.0000000  )
        26           C   tau(  26) = (   0.3000000   0.2886751   0.0000000  )
        27           C   tau(  27) = (   0.2000000   0.3464102   0.0000000  )
        28           Cu  tau(  28) = (   0.2000000   0.4618802   0.0000000  )
        29           C   tau(  29) = (   0.1000000   0.5196152   0.0000000  )
        30           C   tau(  30) = (   0.1000000   0.6350853   0.0000000  )
        31           C   tau(  31) = (   0.0000000   0.6928203   0.0000000  )
        32           C   tau(  32) = (   0.0000000   0.8082904   0.0000000  )
        33           C   tau(  33) = (   0.6000000   0.0000000   0.0000000  )
        34           C   tau(  34) = (   0.6000000   0.1154701   0.0000000  )
        35           C   tau(  35) = (   0.5000000   0.1732051   0.0000000  )
        36           C   tau(  36) = (   0.5000000   0.2886751   0.0000000  )
        37           C   tau(  37) = (   0.4000000   0.3464102   0.0000000  )
        38           C   tau(  38) = (   0.4000000   0.4618802   0.0000000  )
        39           C   tau(  39) = (   0.3000000   0.5196152   0.0000000  )
        40           C   tau(  40) = (   0.3000000   0.6350853   0.0000000  )
        41           C   tau(  41) = (   0.2000000   0.6928203   0.0000000  )
        42           C   tau(  42) = (   0.2000000   0.8082904   0.0000000  )
        43           C   tau(  43) = (   0.8000000   0.0000000   0.0000000  )
        44           C   tau(  44) = (   0.8000000   0.1154701   0.0000000  )
        45           C   tau(  45) = (   0.7000000   0.1732051   0.0000000  )
        46           C   tau(  46) = (   0.7000000   0.2886751   0.0000000  )
        47           C   tau(  47) = (   0.6000000   0.3464102   0.0000000  )
        48           C   tau(  48) = (   0.6000000   0.4618802   0.0000000  )
        49           C   tau(  49) = (   0.5000000   0.5196152   0.0000000  )
        50           C   tau(  50) = (   0.5000000   0.6350853   0.0000000  )
        51           C   tau(  51) = (   0.4000000   0.6928203   0.0000000  )
        52           C   tau(  52) = (   0.4000000   0.8082904   0.0000000  )

   Crystallographic axes

     site n.     atom                  positions (cryst. coord.)
         1           H   tau(   1) = (  0.5333333  0.5333333  0.2600000  )
         2           H   tau(   2) = (  0.5333333  0.5333333  0.3352072  )
         3           C   tau(   3) = (  0.0000000  0.0000000  0.0000000  )
         4           C   tau(   4) = (  0.0666667  0.1333333  0.0000000  )
         5           C   tau(   5) = (  0.0000000  0.2000000  0.0000000  )
         6           C   tau(   6) = (  0.0666667  0.3333333  0.0000000  )
         7           C   tau(   7) = (  0.0000000  0.4000000  0.0000000  )
         8           C   tau(   8) = (  0.0666667  0.5333333  0.0000000  )
         9           C   tau(   9) = (  0.0000000  0.6000000  0.0000000  )
        10           C   tau(  10) = (  0.0666667  0.7333333  0.0000000  )
        11           C   tau(  11) = (  0.0000000  0.8000000  0.0000000  )
        12           C   tau(  12) = (  0.0666667  0.9333333  0.0000000  )
        13           C   tau(  13) = (  0.2000000  0.0000000  0.0000000  )
        14           C   tau(  14) = (  0.2666667  0.1333333  0.0000000  )
        15           C   tau(  15) = (  0.2000000  0.2000000  0.0000000  )
        16           C   tau(  16) = (  0.2666667  0.3333333  0.0000000  )
        17           C   tau(  17) = (  0.2000000  0.4000000  0.0000000  )
        18           C   tau(  18) = (  0.2666667  0.5333333  0.0000000  )
        19           C   tau(  19) = (  0.2000000  0.6000000  0.0000000  )
        20           C   tau(  20) = (  0.2666667  0.7333333  0.0000000  )
        21           C   tau(  21) = (  0.2000000  0.8000000  0.0000000  )
        22           C   tau(  22) = (  0.2666667  0.9333333  0.0000000  )
        23           C   tau(  23) = (  0.4000000  0.0000000  0.0000000  )
        24           C   tau(  24) = (  0.4666667  0.1333333  0.0000000  )
        25           C   tau(  25) = (  0.4000000  0.2000000  0.0000000  )
        26           C   tau(  26) = (  0.4666667  0.3333333  0.0000000  )
        27           C   tau(  27) = (  0.4000000  0.4000000  0.0000000  )
        28           Cu  tau(  28) = (  0.4666667  0.5333333  0.0000000  )
        29           C   tau(  29) = (  0.4000000  0.6000000  0.0000000  )
        30           C   tau(  30) = (  0.4666667  0.7333333  0.0000000  )
        31           C   tau(  31) = (  0.4000000  0.8000000  0.0000000  )
        32           C   tau(  32) = (  0.4666667  0.9333333  0.0000000  )
        33           C   tau(  33) = (  0.6000000  0.0000000  0.0000000  )
        34           C   tau(  34) = (  0.6666667  0.1333333  0.0000000  )
        35           C   tau(  35) = (  0.6000000  0.2000000  0.0000000  )
        36           C   tau(  36) = (  0.6666667  0.3333333  0.0000000  )
        37           C   tau(  37) = (  0.6000000  0.4000000  0.0000000  )
        38           C   tau(  38) = (  0.6666667  0.5333333  0.0000000  )
        39           C   tau(  39) = (  0.6000000  0.6000000  0.0000000  )
        40           C   tau(  40) = (  0.6666667  0.7333333  0.0000000  )
        41           C   tau(  41) = (  0.6000000  0.8000000  0.0000000  )
        42           C   tau(  42) = (  0.6666667  0.9333333  0.0000000  )
        43           C   tau(  43) = (  0.8000000  0.0000000  0.0000000  )
        44           C   tau(  44) = (  0.8666667  0.1333333  0.0000000  )
        45           C   tau(  45) = (  0.8000000  0.2000000  0.0000000  )
        46           C   tau(  46) = (  0.8666667  0.3333333  0.0000000  )
        47           C   tau(  47) = (  0.8000000  0.4000000  0.0000000  )
        48           C   tau(  48) = (  0.8666667  0.5333333  0.0000000  )
        49           C   tau(  49) = (  0.8000000  0.6000000  0.0000000  )
        50           C   tau(  50) = (  0.8666667  0.7333333  0.0000000  )
        51           C   tau(  51) = (  0.8000000  0.8000000  0.0000000  )
        52           C   tau(  52) = (  0.8666667  0.9333333  0.0000000  )

     number of k points=     1  Marzari-Vanderbilt smearing, width (Ry)=  0.0010
                       cart. coord. in units 2pi/alat
        k(    1) = (   0.0000000   0.0000000   0.0000000), wk =   1.0000000

                       cryst. coord.
        k(    1) = (   0.0000000   0.0000000   0.0000000), wk =   1.0000000

     Dense  grid:  1626001 G-vectors     FFT dimensions: ( 180, 180, 135)

     Smooth grid:   702581 G-vectors     FFT dimensions: ( 125, 125, 108)

     Dynamical RAM for                 wfc:      28.14 MB

     Dynamical RAM for     wfc (w. buffer):      84.42 MB

     Dynamical RAM for           str. fact:      12.41 MB

     Dynamical RAM for           local pot:       0.00 MB

     Dynamical RAM for          nlocal pot:      92.46 MB

     Dynamical RAM for                qrad:      19.73 MB

     Dynamical RAM for          rho,v,vnew:      58.92 MB

     Dynamical RAM for               rhoin:      19.64 MB

     Dynamical RAM for            rho*nmix:     132.32 MB

     Dynamical RAM for           G-vectors:      16.40 MB

     Dynamical RAM for          h,s,v(r/c):      11.63 MB

     Dynamical RAM for          <psi|beta>:       0.80 MB

     Dynamical RAM for                 psi:     112.56 MB

     Dynamical RAM for                hpsi:     112.56 MB

     Dynamical RAM for                spsi:     112.56 MB

     Dynamical RAM for      wfcinit/wfcrot:      93.45 MB

     Dynamical RAM for           addusdens:     975.89 MB

     Estimated static dynamical RAM per process >     486.96 MB

     Estimated max dynamical RAM per process >       1.43 GB

     Estimated total dynamical RAM >       8.57 GB
     Generating pointlists ...
     new r_m :   0.0252 (alat units)  0.5862 (a.u.) for type    1
     new r_m :   0.0476 (alat units)  1.1095 (a.u.) for type    2
     new r_m :   0.0476 (alat units)  1.1095 (a.u.) for type    3

     Check: negative core charge=   -0.000002

     Initial potential from superposition of free atoms

     starting charge  208.80532, renormalised to  209.00000

     negative rho (up, down):  6.275E-05 1.100E-02


---------------------------------------------------------------------------------
Carrying out rVV10 run using the following parameters:
Nqs =      20    Nr_points =    1024   r_max =   100.000
b_value =  6.30000    beta =  0.00901
     q_mesh =  0.00010000  0.00030000  0.00058939  0.00100810
               0.00161396  0.00249058  0.00375900  0.00559430
               0.00824984  0.01209221  0.01765183  0.02569619
               0.03733578  0.05417739  0.07854596  0.11380545
               0.16482331  0.23864234  0.34545298  0.50000000

Gradients computed in Reciprocal space

---------------------------------------------------------------------------------


     Starting wfcs are  207 randomized atomic wfcs

     total cpu time spent up to now is       78.1 secs

     Self-consistent Calculation

     iteration #  1     ecut=    70.00 Ry     beta= 0.70
     Davidson diagonalization with overlap
     ethr =  1.00E-02,  avg # of iterations =  4.0

     negative rho (up, down):  1.530E-04 1.146E-02

     total cpu time spent up to now is      203.5 secs

     total energy              =    -727.95687904 Ry
     Harris-Foulkes estimate   =    -734.85901625 Ry
     estimated scf accuracy    <      13.59824898 Ry

     total magnetization       =     6.96 Bohr mag/cell
     absolute magnetization    =     7.35 Bohr mag/cell

     iteration #  2     ecut=    70.00 Ry     beta= 0.70
     Davidson diagonalization with overlap
     ethr =  6.51E-03,  avg # of iterations =  3.5

     negative rho (up, down):  1.725E-04 1.014E-02

     total cpu time spent up to now is      322.6 secs

     total energy              =    -729.72325818 Ry
     Harris-Foulkes estimate   =    -743.65836770 Ry
     estimated scf accuracy    <      34.69067070 Ry

     total magnetization       =     3.04 Bohr mag/cell
     absolute magnetization    =     3.32 Bohr mag/cell

     iteration #  3     ecut=    70.00 Ry     beta= 0.70
     Davidson diagonalization with overlap
     ethr =  6.51E-03,  avg # of iterations =  5.0

     negative rho (up, down):  2.081E-04 8.373E-03

     total cpu time spent up to now is      425.5 secs

     total energy              =    -732.56971605 Ry
     Harris-Foulkes estimate   =    -735.73790589 Ry
     estimated scf accuracy    <       8.32187016 Ry

     total magnetization       =     1.00 Bohr mag/cell
     absolute magnetization    =     1.62 Bohr mag/cell

     iteration #  4     ecut=    70.00 Ry     beta= 0.70
     Davidson diagonalization with overlap
     ethr =  3.98E-03,  avg # of iterations =  3.5

     negative rho (up, down):  2.592E-04 7.031E-03

     total cpu time spent up to now is      529.1 secs

     total energy              =    -733.69610348 Ry
     Harris-Foulkes estimate   =    -735.21939966 Ry
     estimated scf accuracy    <       6.47545656 Ry

     total magnetization       =     3.00 Bohr mag/cell
     absolute magnetization    =     3.15 Bohr mag/cell

     iteration #  5     ecut=    70.00 Ry     beta= 0.70
     Davidson diagonalization with overlap
     ethr =  3.10E-03,  avg # of iterations =  3.5

     negative rho (up, down):  2.971E-04 1.018E-02

     total cpu time spent up to now is      621.3 secs

     total energy              =    -734.40216265 Ry
     Harris-Foulkes estimate   =    -734.97878817 Ry
     estimated scf accuracy    <       2.70783468 Ry

     total magnetization       =     1.00 Bohr mag/cell
     absolute magnetization    =     1.44 Bohr mag/cell

     iteration #  6     ecut=    70.00 Ry     beta= 0.70
     Davidson diagonalization with overlap
     ethr =  1.30E-03,  avg # of iterations =  2.5

     negative rho (up, down):  3.726E-04 1.498E-02

     total cpu time spent up to now is      714.5 secs

     total energy              =    -734.68335064 Ry
     Harris-Foulkes estimate   =    -734.78666599 Ry
     estimated scf accuracy    <       0.27436443 Ry

     total magnetization       =     1.00 Bohr mag/cell
     absolute magnetization    =     1.33 Bohr mag/cell

     iteration #  7     ecut=    70.00 Ry     beta= 0.70
     Davidson diagonalization with overlap
     ethr =  1.31E-04,  avg # of iterations =  7.0

     negative rho (up, down):  5.109E-04 9.177E-03

     total cpu time spent up to now is      825.9 secs

     total energy              =    -734.72661207 Ry
     Harris-Foulkes estimate   =    -734.79669418 Ry
     estimated scf accuracy    <       0.25765077 Ry

     total magnetization       =     1.00 Bohr mag/cell
     absolute magnetization    =     1.24 Bohr mag/cell

     iteration #  8     ecut=    70.00 Ry     beta= 0.70
     Davidson diagonalization with overlap
     ethr =  1.23E-04,  avg # of iterations =  3.0

     negative rho (up, down):  5.721E-04 4.513E-03

     total cpu time spent up to now is      918.2 secs

     total energy              =    -734.75179741 Ry
     Harris-Foulkes estimate   =    -734.76359652 Ry
     estimated scf accuracy    <       0.04726487 Ry

     total magnetization       =     1.00 Bohr mag/cell
     absolute magnetization    =     1.21 Bohr mag/cell

     iteration #  9     ecut=    70.00 Ry     beta= 0.70
     Davidson diagonalization with overlap
     ethr =  2.26E-05,  avg # of iterations =  7.0

     negative rho (up, down):  6.094E-04 3.103E-03

     total cpu time spent up to now is     1018.6 secs

     total energy              =    -734.75774161 Ry
     Harris-Foulkes estimate   =    -734.76006837 Ry
     estimated scf accuracy    <       0.03539097 Ry

     total magnetization       =     1.00 Bohr mag/cell
     absolute magnetization    =     1.18 Bohr mag/cell

     iteration # 10     ecut=    70.00 Ry     beta= 0.70
     Davidson diagonalization with overlap
     ethr =  1.69E-05,  avg # of iterations =  1.0

     negative rho (up, down):  6.110E-04 2.920E-03

     total cpu time spent up to now is     1109.1 secs

     total energy              =    -734.75785652 Ry
     Harris-Foulkes estimate   =    -734.75968230 Ry
     estimated scf accuracy    <       0.01846592 Ry

     total magnetization       =     1.00 Bohr mag/cell
     absolute magnetization    =     1.15 Bohr mag/cell

     iteration # 11     ecut=    70.00 Ry     beta= 0.70
     Davidson diagonalization with overlap
     ethr =  8.84E-06,  avg # of iterations =  1.0

     negative rho (up, down):  6.372E-04 3.013E-03

     total cpu time spent up to now is     1199.7 secs

     total energy              =    -734.75866199 Ry
     Harris-Foulkes estimate   =    -734.76008297 Ry
     estimated scf accuracy    <       0.02267338 Ry

     total magnetization       =     1.00 Bohr mag/cell
     absolute magnetization    =     1.15 Bohr mag/cell

     iteration # 12     ecut=    70.00 Ry     beta= 0.70
     Davidson diagonalization with overlap
     ethr =  8.84E-06,  avg # of iterations =  1.0

     negative rho (up, down):  6.418E-04 2.376E-03

     total cpu time spent up to now is     1290.2 secs

     total energy              =    -734.75933204 Ry
     Harris-Foulkes estimate   =    -734.75945294 Ry
     estimated scf accuracy    <       0.00051205 Ry

     total magnetization       =     1.00 Bohr mag/cell
     absolute magnetization    =     1.12 Bohr mag/cell

     iteration # 13     ecut=    70.00 Ry     beta= 0.70
     Davidson diagonalization with overlap
     ethr =  2.45E-07,  avg # of iterations =  3.0

     negative rho (up, down):  6.349E-04 1.801E-03

     total cpu time spent up to now is     1395.8 secs

     total energy              =    -734.75947100 Ry
     Harris-Foulkes estimate   =    -734.75948265 Ry
     estimated scf accuracy    <       0.00016225 Ry

     total magnetization       =     1.00 Bohr mag/cell
     absolute magnetization    =     1.10 Bohr mag/cell

     iteration # 14     ecut=    70.00 Ry     beta= 0.70
     Davidson diagonalization with overlap
     ethr =  7.76E-08,  avg # of iterations =  2.5

     negative rho (up, down):  6.299E-04 1.623E-03

     total cpu time spent up to now is     1491.8 secs

     total energy              =    -734.75950348 Ry
     Harris-Foulkes estimate   =    -734.75950407 Ry
     estimated scf accuracy    <       0.00029213 Ry

     total magnetization       =     1.00 Bohr mag/cell
     absolute magnetization    =     1.09 Bohr mag/cell

     iteration # 15     ecut=    70.00 Ry     beta= 0.70
     Davidson diagonalization with overlap
     ethr =  7.76E-08,  avg # of iterations =  1.5

     negative rho (up, down):  6.296E-04 1.632E-03

     total cpu time spent up to now is     1582.6 secs

     total energy              =    -734.75951062 Ry
     Harris-Foulkes estimate   =    -734.75951512 Ry
     estimated scf accuracy    <       0.00017398 Ry

     total magnetization       =     1.00 Bohr mag/cell
     absolute magnetization    =     1.08 Bohr mag/cell

     iteration # 16     ecut=    70.00 Ry     beta= 0.70
     Davidson diagonalization with overlap
     ethr =  7.76E-08,  avg # of iterations =  1.0

     negative rho (up, down):  6.274E-04 1.638E-03

     total cpu time spent up to now is     1673.0 secs

     total energy              =    -734.75951345 Ry
     Harris-Foulkes estimate   =    -734.75951434 Ry
     estimated scf accuracy    <       0.00004372 Ry

     total magnetization       =     1.00 Bohr mag/cell
     absolute magnetization    =     1.08 Bohr mag/cell

     iteration # 17     ecut=    70.00 Ry     beta= 0.70
     Davidson diagonalization with overlap
     ethr =  2.09E-08,  avg # of iterations =  2.0

     negative rho (up, down):  6.270E-04 1.636E-03

     total cpu time spent up to now is     1764.4 secs

     total energy              =    -734.75951563 Ry
     Harris-Foulkes estimate   =    -734.75951710 Ry
     estimated scf accuracy    <       0.00001788 Ry

     total magnetization       =     1.00 Bohr mag/cell
     absolute magnetization    =     1.07 Bohr mag/cell

     iteration # 18     ecut=    70.00 Ry     beta= 0.70
     Davidson diagonalization with overlap
     ethr =  8.56E-09,  avg # of iterations =  2.0

     negative rho (up, down):  6.262E-04 1.644E-03

     total cpu time spent up to now is     1855.1 secs

     total energy              =    -734.75951795 Ry
     Harris-Foulkes estimate   =    -734.75951746 Ry
     estimated scf accuracy    <       0.00003782 Ry

     total magnetization       =     1.00 Bohr mag/cell
     absolute magnetization    =     1.07 Bohr mag/cell

     iteration # 19     ecut=    70.00 Ry     beta= 0.70
     Davidson diagonalization with overlap
     ethr =  8.56E-09,  avg # of iterations =  1.5

     negative rho (up, down):  6.259E-04 1.645E-03

     total cpu time spent up to now is     1945.6 secs

     total energy              =    -734.75951795 Ry
     Harris-Foulkes estimate   =    -734.75951867 Ry
     estimated scf accuracy    <       0.00004201 Ry

     total magnetization       =     1.00 Bohr mag/cell
     absolute magnetization    =     1.07 Bohr mag/cell

     iteration # 20     ecut=    70.00 Ry     beta= 0.70
     Davidson diagonalization with overlap
     ethr =  8.56E-09,  avg # of iterations =  1.0

     negative rho (up, down):  6.253E-04 1.657E-03

     total cpu time spent up to now is     2035.9 secs

     total energy              =    -734.75951660 Ry
     Harris-Foulkes estimate   =    -734.75951842 Ry
     estimated scf accuracy    <       0.00002111 Ry

     total magnetization       =     1.00 Bohr mag/cell
     absolute magnetization    =     1.07 Bohr mag/cell

     iteration # 21     ecut=    70.00 Ry     beta= 0.70
     Davidson diagonalization with overlap
     ethr =  8.56E-09,  avg # of iterations =  2.5

     negative rho (up, down):  6.258E-04 1.642E-03

     total cpu time spent up to now is     2129.9 secs

     total energy              =    -734.75951732 Ry
     Harris-Foulkes estimate   =    -734.75951916 Ry
     estimated scf accuracy    <       0.00002167 Ry

     total magnetization       =     1.00 Bohr mag/cell
     absolute magnetization    =     1.06 Bohr mag/cell

     iteration # 22     ecut=    70.00 Ry     beta= 0.70
     Davidson diagonalization with overlap
     ethr =  8.56E-09,  avg # of iterations =  2.0

     negative rho (up, down):  6.258E-04 1.644E-03

     total cpu time spent up to now is     2220.8 secs

     total energy              =    -734.75951860 Ry
     Harris-Foulkes estimate   =    -734.75951870 Ry
     estimated scf accuracy    <       0.00001282 Ry

     total magnetization       =     1.00 Bohr mag/cell
     absolute magnetization    =     1.06 Bohr mag/cell

     iteration # 23     ecut=    70.00 Ry     beta= 0.70
     Davidson diagonalization with overlap
     ethr =  6.13E-09,  avg # of iterations =  1.0

     negative rho (up, down):  6.258E-04 1.636E-03

     total cpu time spent up to now is     2311.1 secs

     total energy              =    -734.75951804 Ry
     Harris-Foulkes estimate   =    -734.75951876 Ry
     estimated scf accuracy    <       0.00000934 Ry

     total magnetization       =     1.00 Bohr mag/cell
     absolute magnetization    =     1.06 Bohr mag/cell

     iteration # 24     ecut=    70.00 Ry     beta= 0.70
     Davidson diagonalization with overlap
     ethr =  4.47E-09,  avg # of iterations =  2.0

     negative rho (up, down):  6.261E-04 1.633E-03

     Magnetic moment per site:
     atom:    1    charge:    0.2112    magn:    0.0000    constr:    0.0000
     atom:    2    charge:    0.2118    magn:   -0.0000    constr:    0.0000
     atom:    3    charge:    1.7158    magn:    0.0016    constr:    0.0000
     atom:    4    charge:    1.7153    magn:    0.0018    constr:    0.0000
     atom:    5    charge:    1.7169    magn:    0.0000    constr:    0.0000
     atom:    6    charge:    1.7146    magn:   -0.0001    constr:    0.0000
     atom:    7    charge:    1.7169    magn:    0.0000    constr:    0.0000
     atom:    8    charge:    1.7153    magn:    0.0018    constr:    0.0000
     atom:    9    charge:    1.7158    magn:    0.0017    constr:    0.0000
     atom:   10    charge:    1.7170    magn:   -0.0009    constr:    0.0000
     atom:   11    charge:    1.7159    magn:    0.0005    constr:    0.0000
     atom:   12    charge:    1.7170    magn:   -0.0009    constr:    0.0000
     atom:   13    charge:    1.7160    magn:    0.0005    constr:    0.0000
     atom:   14    charge:    1.7168    magn:   -0.0009    constr:    0.0000
     atom:   15    charge:    1.7130    magn:    0.0072    constr:    0.0000
     atom:   16    charge:    1.7110    magn:    0.0139    constr:    0.0000
     atom:   17    charge:    1.7213    magn:    0.0028    constr:    0.0000
     atom:   18    charge:    1.7110    magn:    0.0139    constr:    0.0000
     atom:   19    charge:    1.7130    magn:    0.0073    constr:    0.0000
     atom:   20    charge:    1.7169    magn:   -0.0010    constr:    0.0000
     atom:   21    charge:    1.7160    magn:    0.0005    constr:    0.0000
     atom:   22    charge:    1.7170    magn:   -0.0009    constr:    0.0000
     atom:   23    charge:    1.7157    magn:    0.0015    constr:    0.0000
     atom:   24    charge:    1.7152    magn:    0.0016    constr:    0.0000
     atom:   25    charge:    1.7129    magn:    0.0069    constr:    0.0000
     atom:   26    charge:    1.7107    magn:    0.0128    constr:    0.0000
     atom:   27    charge:    1.8168    magn:    0.0770    constr:    0.0000
     atom:   28    charge:    7.0285    magn:    0.1546    constr:    0.0000
     atom:   29    charge:    1.8170    magn:    0.0784    constr:    0.0000
     atom:   30    charge:    1.7106    magn:    0.0126    constr:    0.0000
     atom:   31    charge:    1.7129    magn:    0.0070    constr:    0.0000
     atom:   32    charge:    1.7153    magn:    0.0016    constr:    0.0000
     atom:   33    charge:    1.7169    magn:    0.0001    constr:    0.0000
     atom:   34    charge:    1.7152    magn:   -0.0000    constr:    0.0000
     atom:   35    charge:    1.7169    magn:    0.0001    constr:    0.0000
     atom:   36    charge:    1.7146    magn:   -0.0001    constr:    0.0000
     atom:   37    charge:    1.7213    magn:    0.0031    constr:    0.0000
     atom:   38    charge:    1.7108    magn:    0.0130    constr:    0.0000
     atom:   39    charge:    1.8189    magn:    0.0831    constr:    0.0000
     atom:   40    charge:    1.7106    magn:    0.0128    constr:    0.0000
     atom:   41    charge:    1.7214    magn:    0.0032    constr:    0.0000
     atom:   42    charge:    1.7146    magn:   -0.0001    constr:    0.0000
     atom:   43    charge:    1.7169    magn:    0.0001    constr:    0.0000
     atom:   44    charge:    1.7153    magn:   -0.0000    constr:    0.0000
     atom:   45    charge:    1.7210    magn:   -0.0007    constr:    0.0000
     atom:   46    charge:    1.7152    magn:   -0.0000    constr:    0.0000
     atom:   47    charge:    1.7169    magn:    0.0001    constr:    0.0000
     atom:   48    charge:    1.7153    magn:    0.0018    constr:    0.0000
     atom:   49    charge:    1.7130    magn:    0.0076    constr:    0.0000
     atom:   50    charge:    1.7168    magn:   -0.0010    constr:    0.0000
     atom:   51    charge:    1.7130    magn:    0.0075    constr:    0.0000
     atom:   52    charge:    1.7153    magn:    0.0018    constr:    0.0000

     total cpu time spent up to now is     2403.0 secs

     End of self-consistent calculation

 ------ SPIN UP ------------


          k = 0.0000 0.0000 0.0000 ( 87777 PWs)   bands (ev):

   -19.8509 -19.0100 -19.0075 -18.9136 -18.9125 -18.8512 -18.7768 -17.1799
   -17.1789 -17.1414 -17.0989 -17.0971 -16.8197 -16.3393 -16.3377 -16.1933
   -16.1922 -16.1703 -15.7802 -14.4373 -14.4350 -14.1397 -14.0438 -14.0433
   -13.5876 -13.1767 -13.1765 -13.0897 -12.9483 -12.9473 -12.6425 -12.3282
   -12.3279 -11.7244 -11.6190 -11.6187 -11.1979 -10.9498 -10.9485  -9.5351
    -9.3744  -9.3739  -9.2525  -9.2430  -9.2427  -9.2336  -9.1336  -9.1287
    -9.0716  -9.0709  -8.9744  -8.7278  -8.7271  -7.9812  -7.9065  -7.8518
    -7.6746  -7.6735  -7.5443  -7.5440  -7.0512  -6.8725  -6.8509  -6.8488
    -6.8280  -6.7884  -6.7258  -6.7234  -6.6291  -6.6281  -6.5837  -6.5773
    -6.5765  -6.5314  -6.4100  -6.4084  -6.3922  -5.6233  -5.6227  -5.0386
    -4.9935  -4.9664  -4.8957  -4.8955  -4.7711  -4.7346  -4.7342  -4.5511
    -4.5483  -4.4685  -3.8615  -3.8605  -3.8282  -3.8277  -3.7915  -3.6507
    -3.6477  -3.4074  -1.8926  -1.8353  -1.8350  -1.7458  -1.7427  -1.2330
    -0.8541  -0.8533   0.9017   0.9380   0.9391   1.0822   1.0840   1.4849
     2.4913   2.7826   2.7848   2.8291   2.9159   2.9189   3.3841   3.6066
     3.6125   3.7279   3.7318   3.7497   3.8966   4.2648

     occupation numbers 
     1.0000   1.0000   1.0000   1.0000   1.0000   1.0000   1.0000   1.0000
     1.0000   1.0000   1.0000   1.0000   1.0000   1.0000   1.0000   1.0000
     1.0000   1.0000   1.0000   1.0000   1.0000   1.0000   1.0000   1.0000
     1.0000   1.0000   1.0000   1.0000   1.0000   1.0000   1.0000   1.0000
     1.0000   1.0000   1.0000   1.0000   1.0000   1.0000   1.0000   1.0000
     1.0000   1.0000   1.0000   1.0000   1.0000   1.0000   1.0000   1.0000
     1.0000   1.0000   1.0000   1.0000   1.0000   1.0000   1.0000   1.0000
     1.0000   1.0000   1.0000   1.0000   1.0000   1.0000   1.0000   1.0000
     1.0000   1.0000   1.0000   1.0000   1.0000   1.0000   1.0000   1.0000
     1.0000   1.0000   1.0000   1.0000   1.0000   1.0000   1.0000   1.0000
     1.0000   1.0000   1.0000   1.0000   1.0000   1.0000   1.0000   1.0000
     1.0000   1.0000   1.0000   1.0000   1.0000   1.0000   1.0000   1.0000
     1.0000   1.0000   1.0000   1.0000   1.0000   1.0000   1.0000   1.0000
     0.5236   0.4764   0.0000   0.0000   0.0000   0.0000   0.0000   0.0000
     0.0000   0.0000   0.0000   0.0000   0.0000   0.0000   0.0000   0.0000
     0.0000   0.0000   0.0000   0.0000   0.0000   0.0000

 ------ SPIN DOWN ----------


          k = 0.0000 0.0000 0.0000 ( 87777 PWs)   bands (ev):

   -19.8257 -18.9779 -18.9745 -18.9068 -18.9056 -18.8480 -18.7015 -17.1399
   -17.1393 -17.1254 -17.0776 -17.0749 -16.7862 -16.3021 -16.3002 -16.1721
   -16.1701 -16.1634 -15.7047 -14.3466 -14.3454 -14.1154 -14.0358 -14.0352
   -13.5451 -13.1512 -13.1510 -13.0767 -12.9122 -12.9100 -12.5778 -12.2176
   -12.2159 -11.7047 -11.5850 -11.5836 -11.0927 -10.8199 -10.8188  -9.4942
    -9.3550  -9.3542  -9.2448  -9.2341  -9.2339  -9.2211  -9.0149  -9.0147
    -8.9619  -8.9575  -8.8498  -8.6870  -8.6850  -7.9697  -7.8823  -7.8299
    -7.6256  -7.6248  -7.5269  -7.5261  -7.0163  -6.8499  -6.8497  -6.8332
    -6.7880  -6.7871  -6.7127  -6.7092  -6.6071  -6.6062  -6.5760  -6.5733
    -6.5725  -6.5251  -6.3802  -6.3679  -6.3646  -5.5961  -5.5947  -5.0195
    -4.9565  -4.8758  -4.8755  -4.7844  -4.7660  -4.7334  -4.7329  -4.5415
    -4.5385  -4.4524  -3.8574  -3.8565  -3.8025  -3.8023  -3.7923  -3.6324
    -3.6294  -3.3689  -1.8887  -1.8336  -1.8332  -1.7235  -1.7207  -1.1962
    -0.4618  -0.4433   0.9049   0.9411   0.9424   1.1059   1.1069   1.4969
     2.4917   2.7847   2.7870   2.8301   2.9433   2.9458   3.3928   3.6079
     3.6145   3.7272   3.7310   3.7488   3.9029   4.2651

     occupation numbers 
     1.0000   1.0000   1.0000   1.0000   1.0000   1.0000   1.0000   1.0000
     1.0000   1.0000   1.0000   1.0000   1.0000   1.0000   1.0000   1.0000
     1.0000   1.0000   1.0000   1.0000   1.0000   1.0000   1.0000   1.0000
     1.0000   1.0000   1.0000   1.0000   1.0000   1.0000   1.0000   1.0000
     1.0000   1.0000   1.0000   1.0000   1.0000   1.0000   1.0000   1.0000
     1.0000   1.0000   1.0000   1.0000   1.0000   1.0000   1.0000   1.0000
     1.0000   1.0000   1.0000   1.0000   1.0000   1.0000   1.0000   1.0000
     1.0000   1.0000   1.0000   1.0000   1.0000   1.0000   1.0000   1.0000
     1.0000   1.0000   1.0000   1.0000   1.0000   1.0000   1.0000   1.0000
     1.0000   1.0000   1.0000   1.0000   1.0000   1.0000   1.0000   1.0000
     1.0000   1.0000   1.0000   1.0000   1.0000   1.0000   1.0000   1.0000
     1.0000   1.0000   1.0000   1.0000   1.0000   1.0000   1.0000   1.0000
     1.0000   1.0000   1.0000   1.0000   1.0000   1.0000   1.0000   1.0000
     0.0000   0.0000   0.0000   0.0000   0.0000   0.0000   0.0000   0.0000
     0.0000   0.0000   0.0000   0.0000   0.0000   0.0000   0.0000   0.0000
     0.0000   0.0000   0.0000   0.0000   0.0000   0.0000

     the Fermi energy is    -0.8518 ev

!    total energy              =    -734.75951832 Ry
     Harris-Foulkes estimate   =    -734.75951874 Ry
     estimated scf accuracy    <       0.00000080 Ry

     The total energy is the sum of the following terms:

     one-electron contribution =   -2493.21901725 Ry
     hartree contribution      =    1302.26941412 Ry
     xc contribution           =    -275.93362971 Ry
     ewald contribution        =     732.12404194 Ry
     smearing contrib. (-TS)   =      -0.00032743 Ry

     total magnetization       =     1.00 Bohr mag/cell
     absolute magnetization    =     1.06 Bohr mag/cell

     convergence has been achieved in  24 iterations

     Writing output data file cobre-baricentro-2.6.save/

     init_run     :     75.81s CPU     77.11s WALL (       1 calls)
     electrons    :   2281.14s CPU   2325.05s WALL (       1 calls)

     Called by init_run:
     wfcinit      :     40.53s CPU     40.79s WALL (       1 calls)
     wfcinit:atom :      0.06s CPU      0.08s WALL (       2 calls)
     wfcinit:wfcr :     40.14s CPU     40.32s WALL (       2 calls)
     potinit      :     14.40s CPU     14.78s WALL (       1 calls)
     hinit0       :     12.49s CPU     12.55s WALL (       1 calls)

     Called by electrons:
     c_bands      :   1406.65s CPU   1414.49s WALL (      24 calls)
     sum_band     :    507.11s CPU    522.47s WALL (      24 calls)
     v_of_rho     :    177.57s CPU    185.59s WALL (      25 calls)
     v_h          :      1.84s CPU      1.88s WALL (      25 calls)
     v_xc         :    175.73s CPU    183.71s WALL (      25 calls)
     newd         :    188.38s CPU    201.64s WALL (      25 calls)
     mix_rho      :     10.26s CPU     10.44s WALL (      24 calls)

     Called by c_bands:
     init_us_2    :      4.40s CPU      4.43s WALL (      98 calls)
     cegterg      :   1395.78s CPU   1403.58s WALL (      48 calls)

     Called by sum_band:
     sum_band:bec :      0.04s CPU      0.04s WALL (      48 calls)
     addusdens    :    315.74s CPU    329.92s WALL (      24 calls)

     Called by *egterg:
     h_psi        :    738.48s CPU    744.01s WALL (     178 calls)
     s_psi        :    251.19s CPU    251.32s WALL (     178 calls)
     g_psi        :      0.77s CPU      0.77s WALL (     128 calls)
     cdiaghg      :     10.52s CPU     10.52s WALL (     176 calls)
     cegterg:over :    172.66s CPU    172.74s WALL (     128 calls)
     cegterg:upda :    100.27s CPU    100.87s WALL (     128 calls)
     cegterg:last :     77.29s CPU     77.31s WALL (      48 calls)

     Called by h_psi:
     h_psi:pot    :    737.50s CPU    742.16s WALL (     178 calls)
     h_psi:calbec :    250.23s CPU    250.35s WALL (     178 calls)
     vloc_psi     :    235.88s CPU    240.32s WALL (     178 calls)
     add_vuspsi   :    251.39s CPU    251.49s WALL (     178 calls)

     General routines
     calbec       :    361.03s CPU    361.21s WALL (     226 calls)
     fft          :    113.58s CPU    116.80s WALL (    1869 calls)
     ffts         :      1.80s CPU      1.86s WALL (      98 calls)
     fftw         :    252.76s CPU    257.76s WALL (   33410 calls)
     interpolate  :      4.12s CPU      4.23s WALL (      50 calls)

     Parallel routines
     fft_scatt_xy :     61.16s CPU     62.08s WALL (   35377 calls)
     fft_scatt_yz :    135.33s CPU    141.38s WALL (   35377 calls)

     PWSCF        :  39m18.17s CPU  40m 3.70s WALL


   This run was terminated on:   4:41:17   6Sep2022            

=------------------------------------------------------------------------------=
   JOB DONE.
=------------------------------------------------------------------------------=
