
     Program PWSCF v.6.4.1 starts on 18Mar2023 at 11: 9:33 

     This program is part of the open-source Quantum ESPRESSO suite
     for quantum simulation of materials; please cite
         "P. Giannozzi et al., J. Phys.:Condens. Matter 21 395502 (2009);
         "P. Giannozzi et al., J. Phys.:Condens. Matter 29 465901 (2017);
          URL http://www.quantum-espresso.org", 
     in publications or presentations arising from this work. More details at
     http://www.quantum-espresso.org/quote

     Parallel version (MPI), running on     6 processors

     MPI processes distributed on     1 nodes
     R & G space division:  proc/nbgrp/npool/nimage =       6
     Reading input from manganeso-sustitucion.in

     Current dimensions of program PWSCF are:
     Max number of different atomic species (ntypx) = 10
     Max number of k-points (npk) =  40000
     Max angular momentum in pseudopotentials (lmaxx) =  3

     IMPORTANT: XC functional enforced from input :
     Exchange-correlation      = RVV10 ( 1  4 13  4 3 0)
     Any further DFT definition will be discarded
     Please, verify this is what you really want

               file Mn.pbe-spn-rrkjus_psl.0.3.1.UPF: wavefunction(s)  3D renormalized

     Subspace diagonalization in iterative solution of the eigenvalue problem:
     a serial algorithm will be used


     Parallelization info
     --------------------
     sticks:   dense  smooth     PW     G-vecs:    dense   smooth      PW
     Min        3051    1746    432               270999   117096   14629
     Max        3053    1747    437               271001   117099   14630
     Sum       18313   10477   2611              1626001   702581   87777



     bravais-lattice index     =            4
     lattice parameter (alat)  =      23.2937  a.u.
     unit-cell volume          =    8879.8548 (a.u.)^3
     number of atoms/cell      =           50
     number of atomic types    =            2
     number of electrons       =       211.00
     number of Kohn-Sham states=          127
     kinetic-energy cutoff     =      70.0000  Ry
     charge density cutoff     =     490.0000  Ry
     convergence threshold     =      1.0E-10
     mixing beta               =       0.7000
     number of iterations used =            8  plain     mixing
     Exchange-correlation      = RVV10 ( 1  4 13  4 3 0)
     nstep                     =           50


     celldm(1)=  23.293684  celldm(2)=   0.000000  celldm(3)=   0.811261
     celldm(4)=   0.000000  celldm(5)=   0.000000  celldm(6)=   0.000000

     crystal axes: (cart. coord. in units of alat)
               a(1) = (   1.000000   0.000000   0.000000 )  
               a(2) = (  -0.500000   0.866025   0.000000 )  
               a(3) = (   0.000000   0.000000   0.811261 )  

     reciprocal axes: (cart. coord. in units 2 pi/alat)
               b(1) = (  1.000000  0.577350 -0.000000 )  
               b(2) = (  0.000000  1.154701  0.000000 )  
               b(3) = (  0.000000 -0.000000  1.232649 )  


     PseudoPot. # 1 for C  read from file:
     /home/cristian/Escritorio/Proyecto_Grafeno/pseudopotenciales/C.pbe-n-rrkjus_psl.1.0.0.UPF
     MD5 check sum: 1fdd950c42eb37d8afe3dd2f8d12311e
     Pseudo is Ultrasoft + core correction, Zval =  4.0
     Generated using "atomic" code by A. Dal Corso v.6.3MaX
     Using radial grid of 1073 points,  4 beta functions with: 
                l(1) =   0
                l(2) =   0
                l(3) =   1
                l(4) =   1
     Q(r) pseudized with 0 coefficients 


     PseudoPot. # 2 for Mn read from file:
     /home/cristian/Escritorio/Proyecto_Grafeno/pseudopotenciales/Mn.pbe-spn-rrkjus_psl.0.3.1.UPF
     MD5 check sum: e1cac159bdd2ba70c18e85765a5d4279
     Pseudo is Ultrasoft + core correction, Zval = 15.0
     Generated using "atomic" code by A. Dal Corso v.6.2.2
     Using radial grid of 1187 points,  6 beta functions with: 
                l(1) =   0
                l(2) =   0
                l(3) =   1
                l(4) =   1
                l(5) =   2
                l(6) =   2
     Q(r) pseudized with 0 coefficients 


     vdW kernel table read from file rVV10_kernel_table
     MD5 check sum: b8e2538accc0c0b3206b45ba4daaba6c

     atomic species   valence    mass     pseudopotential
        C              4.00    12.01070     C ( 1.00)
        Mn            15.00    54.93804     Mn( 1.00)

     Starting magnetic structure 
     atomic species   magnetization
        C            0.000
        Mn           0.300

      4 Sym. Ops. (no inversion) found


                                    s                        frac. trans.

      isym =  1     identity                                     

 cryst.   s( 1) = (     1          0          0      )
                  (     0          1          0      )
                  (     0          0          1      )

 cart.    s( 1) = (  1.0000000  0.0000000  0.0000000 )
                  (  0.0000000  1.0000000  0.0000000 )
                  (  0.0000000  0.0000000  1.0000000 )


      isym =  2     180 deg rotation - cryst. axis [1,-1,0]      

 cryst.   s( 2) = (     0         -1          0      )
                  (    -1          0          0      )
                  (     0          0         -1      )

 cart.    s( 2) = (  0.5000000 -0.8660254  0.0000000 )
                  ( -0.8660254 -0.5000000  0.0000000 )
                  (  0.0000000  0.0000000 -1.0000000 )


      isym =  3     inv. 180 deg rotation - cart. axis [0,0,1]   

 cryst.   s( 3) = (     1          0          0      )
                  (     0          1          0      )
                  (     0          0         -1      )

 cart.    s( 3) = (  1.0000000  0.0000000  0.0000000 )
                  (  0.0000000  1.0000000  0.0000000 )
                  (  0.0000000  0.0000000 -1.0000000 )


      isym =  4     inv. 180 deg rotation - cryst. axis [1,1,0]  

 cryst.   s( 4) = (     0         -1          0      )
                  (    -1          0          0      )
                  (     0          0          1      )

 cart.    s( 4) = (  0.5000000 -0.8660254  0.0000000 )
                  ( -0.8660254 -0.5000000  0.0000000 )
                  (  0.0000000  0.0000000  1.0000000 )


     point group C_2v (mm2) 
     there are  4 classes
     the character table:

       E     C2    s_v   s_v' 
A_1    1.00  1.00  1.00  1.00
A_2    1.00  1.00 -1.00 -1.00
B_1    1.00 -1.00  1.00 -1.00
B_2    1.00 -1.00 -1.00  1.00

     the symmetry operations in each class and the name of the first element:

     E        1
          identity                                               
     C2       2
          180 deg rotation - cryst. axis [1,-1,0]                
     s_v      4
          inv. 180 deg rotation - cryst. axis [1,1,0]            
     s_v'     3
          inv. 180 deg rotation - cart. axis [0,0,1]             

   Cartesian axes

     site n.     atom                  positions (alat units)
         1           C   tau(   1) = (   0.0000000   0.0000000   0.0000000  )
         2           C   tau(   2) = (   0.0000000   0.1154701   0.0000000  )
         3           C   tau(   3) = (  -0.1000000   0.1732051   0.0000000  )
         4           C   tau(   4) = (  -0.1000000   0.2886751   0.0000000  )
         5           C   tau(   5) = (  -0.2000000   0.3464102   0.0000000  )
         6           C   tau(   6) = (  -0.2000000   0.4618802   0.0000000  )
         7           C   tau(   7) = (  -0.3000000   0.5196152   0.0000000  )
         8           C   tau(   8) = (  -0.3000000   0.6350853   0.0000000  )
         9           C   tau(   9) = (  -0.4000000   0.6928203   0.0000000  )
        10           C   tau(  10) = (  -0.4000000   0.8082904   0.0000000  )
        11           C   tau(  11) = (   0.2000000   0.0000000   0.0000000  )
        12           C   tau(  12) = (   0.2000000   0.1154701   0.0000000  )
        13           C   tau(  13) = (   0.1000000   0.1732051   0.0000000  )
        14           C   tau(  14) = (   0.1000000   0.2886751   0.0000000  )
        15           C   tau(  15) = (   0.0000000   0.3464102   0.0000000  )
        16           C   tau(  16) = (   0.0000000   0.4618802   0.0000000  )
        17           C   tau(  17) = (  -0.1000000   0.5196152   0.0000000  )
        18           C   tau(  18) = (  -0.1000000   0.6350853   0.0000000  )
        19           C   tau(  19) = (  -0.2000000   0.6928203   0.0000000  )
        20           C   tau(  20) = (  -0.2000000   0.8082904   0.0000000  )
        21           C   tau(  21) = (   0.4000000   0.0000000   0.0000000  )
        22           C   tau(  22) = (   0.4000000   0.1154701   0.0000000  )
        23           C   tau(  23) = (   0.3000000   0.1732051   0.0000000  )
        24           C   tau(  24) = (   0.3000000   0.2886751   0.0000000  )
        25           C   tau(  25) = (   0.2000000   0.3464102   0.0000000  )
        26           Mn  tau(  26) = (   0.2000000   0.4618802   0.0000000  )
        27           C   tau(  27) = (   0.1000000   0.5196152   0.0000000  )
        28           C   tau(  28) = (   0.1000000   0.6350853   0.0000000  )
        29           C   tau(  29) = (   0.0000000   0.6928203   0.0000000  )
        30           C   tau(  30) = (   0.0000000   0.8082904   0.0000000  )
        31           C   tau(  31) = (   0.6000000   0.0000000   0.0000000  )
        32           C   tau(  32) = (   0.6000000   0.1154701   0.0000000  )
        33           C   tau(  33) = (   0.5000000   0.1732051   0.0000000  )
        34           C   tau(  34) = (   0.5000000   0.2886751   0.0000000  )
        35           C   tau(  35) = (   0.4000000   0.3464102   0.0000000  )
        36           C   tau(  36) = (   0.4000000   0.4618802   0.0000000  )
        37           C   tau(  37) = (   0.3000000   0.5196152   0.0000000  )
        38           C   tau(  38) = (   0.3000000   0.6350853   0.0000000  )
        39           C   tau(  39) = (   0.2000000   0.6928203   0.0000000  )
        40           C   tau(  40) = (   0.2000000   0.8082904   0.0000000  )
        41           C   tau(  41) = (   0.8000000   0.0000000   0.0000000  )
        42           C   tau(  42) = (   0.8000000   0.1154701   0.0000000  )
        43           C   tau(  43) = (   0.7000000   0.1732051   0.0000000  )
        44           C   tau(  44) = (   0.7000000   0.2886751   0.0000000  )
        45           C   tau(  45) = (   0.6000000   0.3464102   0.0000000  )
        46           C   tau(  46) = (   0.6000000   0.4618802   0.0000000  )
        47           C   tau(  47) = (   0.5000000   0.5196152   0.0000000  )
        48           C   tau(  48) = (   0.5000000   0.6350853   0.0000000  )
        49           C   tau(  49) = (   0.4000000   0.6928203   0.0000000  )
        50           C   tau(  50) = (   0.4000000   0.8082904   0.0000000  )

   Crystallographic axes

     site n.     atom                  positions (cryst. coord.)
         1           C   tau(   1) = (  0.0000000  0.0000000  0.0000000  )
         2           C   tau(   2) = (  0.0666667  0.1333333  0.0000000  )
         3           C   tau(   3) = (  0.0000000  0.2000000  0.0000000  )
         4           C   tau(   4) = (  0.0666667  0.3333333  0.0000000  )
         5           C   tau(   5) = (  0.0000000  0.4000000  0.0000000  )
         6           C   tau(   6) = (  0.0666667  0.5333333  0.0000000  )
         7           C   tau(   7) = (  0.0000000  0.6000000  0.0000000  )
         8           C   tau(   8) = (  0.0666667  0.7333333  0.0000000  )
         9           C   tau(   9) = (  0.0000000  0.8000000  0.0000000  )
        10           C   tau(  10) = (  0.0666667  0.9333333  0.0000000  )
        11           C   tau(  11) = (  0.2000000  0.0000000  0.0000000  )
        12           C   tau(  12) = (  0.2666667  0.1333333  0.0000000  )
        13           C   tau(  13) = (  0.2000000  0.2000000  0.0000000  )
        14           C   tau(  14) = (  0.2666667  0.3333333  0.0000000  )
        15           C   tau(  15) = (  0.2000000  0.4000000  0.0000000  )
        16           C   tau(  16) = (  0.2666667  0.5333333  0.0000000  )
        17           C   tau(  17) = (  0.2000000  0.6000000  0.0000000  )
        18           C   tau(  18) = (  0.2666667  0.7333333  0.0000000  )
        19           C   tau(  19) = (  0.2000000  0.8000000  0.0000000  )
        20           C   tau(  20) = (  0.2666667  0.9333333  0.0000000  )
        21           C   tau(  21) = (  0.4000000  0.0000000  0.0000000  )
        22           C   tau(  22) = (  0.4666667  0.1333333  0.0000000  )
        23           C   tau(  23) = (  0.4000000  0.2000000  0.0000000  )
        24           C   tau(  24) = (  0.4666667  0.3333333  0.0000000  )
        25           C   tau(  25) = (  0.4000000  0.4000000  0.0000000  )
        26           Mn  tau(  26) = (  0.4666667  0.5333333  0.0000000  )
        27           C   tau(  27) = (  0.4000000  0.6000000  0.0000000  )
        28           C   tau(  28) = (  0.4666667  0.7333333  0.0000000  )
        29           C   tau(  29) = (  0.4000000  0.8000000  0.0000000  )
        30           C   tau(  30) = (  0.4666667  0.9333333  0.0000000  )
        31           C   tau(  31) = (  0.6000000  0.0000000  0.0000000  )
        32           C   tau(  32) = (  0.6666667  0.1333333  0.0000000  )
        33           C   tau(  33) = (  0.6000000  0.2000000  0.0000000  )
        34           C   tau(  34) = (  0.6666667  0.3333333  0.0000000  )
        35           C   tau(  35) = (  0.6000000  0.4000000  0.0000000  )
        36           C   tau(  36) = (  0.6666667  0.5333333  0.0000000  )
        37           C   tau(  37) = (  0.6000000  0.6000000  0.0000000  )
        38           C   tau(  38) = (  0.6666667  0.7333333  0.0000000  )
        39           C   tau(  39) = (  0.6000000  0.8000000  0.0000000  )
        40           C   tau(  40) = (  0.6666667  0.9333333  0.0000000  )
        41           C   tau(  41) = (  0.8000000  0.0000000  0.0000000  )
        42           C   tau(  42) = (  0.8666667  0.1333333  0.0000000  )
        43           C   tau(  43) = (  0.8000000  0.2000000  0.0000000  )
        44           C   tau(  44) = (  0.8666667  0.3333333  0.0000000  )
        45           C   tau(  45) = (  0.8000000  0.4000000  0.0000000  )
        46           C   tau(  46) = (  0.8666667  0.5333333  0.0000000  )
        47           C   tau(  47) = (  0.8000000  0.6000000  0.0000000  )
        48           C   tau(  48) = (  0.8666667  0.7333333  0.0000000  )
        49           C   tau(  49) = (  0.8000000  0.8000000  0.0000000  )
        50           C   tau(  50) = (  0.8666667  0.9333333  0.0000000  )

     number of k points=     1  Marzari-Vanderbilt smearing, width (Ry)=  0.0010
                       cart. coord. in units 2pi/alat
        k(    1) = (   0.0000000   0.0000000   0.0000000), wk =   1.0000000

                       cryst. coord.
        k(    1) = (   0.0000000   0.0000000   0.0000000), wk =   1.0000000

     Dense  grid:  1626001 G-vectors     FFT dimensions: ( 180, 180, 135)

     Smooth grid:   702581 G-vectors     FFT dimensions: ( 125, 125, 108)

     Dynamical RAM for                 wfc:      28.36 MB

     Dynamical RAM for     wfc (w. buffer):      85.09 MB

     Dynamical RAM for           str. fact:       8.27 MB

     Dynamical RAM for           local pot:       0.00 MB

     Dynamical RAM for          nlocal pot:      91.57 MB

     Dynamical RAM for                qrad:      13.15 MB

     Dynamical RAM for          rho,v,vnew:      58.92 MB

     Dynamical RAM for               rhoin:      19.64 MB

     Dynamical RAM for            rho*nmix:     132.32 MB

     Dynamical RAM for           G-vectors:      16.40 MB

     Dynamical RAM for          h,s,v(r/c):      11.81 MB

     Dynamical RAM for          <psi|beta>:       0.79 MB

     Dynamical RAM for                 psi:     113.46 MB

     Dynamical RAM for                hpsi:     113.46 MB

     Dynamical RAM for                spsi:     113.46 MB

     Dynamical RAM for      wfcinit/wfcrot:      92.99 MB

     Dynamical RAM for           addusdens:     975.89 MB

     Dynamical RAM for          addusforce:    1385.66 MB

     Estimated static dynamical RAM per process >     471.89 MB

     Estimated max dynamical RAM per process >       1.81 GB

     Estimated total dynamical RAM >      10.88 GB
     Generating pointlists ...
     new r_m :   0.0476 (alat units)  1.1095 (a.u.) for type    1
     new r_m :   0.0476 (alat units)  1.1095 (a.u.) for type    2

     Check: negative core charge=   -0.000002

     Initial potential from superposition of free atoms

     starting charge  210.99746, renormalised to  211.00000

     negative rho (up, down):  1.019E-04 5.072E-03


---------------------------------------------------------------------------------
Carrying out rVV10 run using the following parameters:
Nqs =      20    Nr_points =    1024   r_max =   100.000
b_value =  6.30000    beta =  0.00901
     q_mesh =  0.00010000  0.00030000  0.00058939  0.00100810
               0.00161396  0.00249058  0.00375900  0.00559430
               0.00824984  0.01209221  0.01765183  0.02569619
               0.03733578  0.05417739  0.07854596  0.11380545
               0.16482331  0.23864234  0.34545298  0.50000000

Gradients computed in Reciprocal space

---------------------------------------------------------------------------------


     Starting wfcs are  206 randomized atomic wfcs

     total cpu time spent up to now is       78.5 secs

     Self-consistent Calculation

     iteration #  1     ecut=    70.00 Ry     beta= 0.70
     Davidson diagonalization with overlap
     ethr =  1.00E-02,  avg # of iterations =  2.5

     negative rho (up, down):  3.344E-04 6.895E-03

     total cpu time spent up to now is      225.2 secs

     total energy              =    -822.22279700 Ry
     Harris-Foulkes estimate   =    -825.90654438 Ry
     estimated scf accuracy    <       6.21672533 Ry

     total magnetization       =     3.00 Bohr mag/cell
     absolute magnetization    =     3.45 Bohr mag/cell

     iteration #  2     ecut=    70.00 Ry     beta= 0.70
     Davidson diagonalization with overlap
     ethr =  2.95E-03,  avg # of iterations =  8.5

     negative rho (up, down):  4.350E-04 5.973E-03

     total cpu time spent up to now is      372.7 secs

     total energy              =    -820.37540604 Ry
     Harris-Foulkes estimate   =    -824.33092694 Ry
     estimated scf accuracy    <       7.90526054 Ry

     total magnetization       =     1.00 Bohr mag/cell
     absolute magnetization    =     1.46 Bohr mag/cell

     iteration #  3     ecut=    70.00 Ry     beta= 0.70
     Davidson diagonalization with overlap
     ethr =  2.95E-03,  avg # of iterations =  4.0

     negative rho (up, down):  6.118E-04 4.318E-03

     total cpu time spent up to now is      531.8 secs

     total energy              =    -820.03832670 Ry
     Harris-Foulkes estimate   =    -827.20431125 Ry
     estimated scf accuracy    <      40.80948253 Ry

     total magnetization       =     1.00 Bohr mag/cell
     absolute magnetization    =     1.16 Bohr mag/cell

     iteration #  4     ecut=    70.00 Ry     beta= 0.70
     Davidson diagonalization with overlap
     ethr =  2.95E-03,  avg # of iterations =  4.5

     negative rho (up, down):  6.108E-04 7.840E-03

     total cpu time spent up to now is      648.4 secs

     total energy              =    -823.45013667 Ry
     Harris-Foulkes estimate   =    -823.70565063 Ry
     estimated scf accuracy    <       0.64486727 Ry

     total magnetization       =     3.00 Bohr mag/cell
     absolute magnetization    =     3.25 Bohr mag/cell

     iteration #  5     ecut=    70.00 Ry     beta= 0.70
     Davidson diagonalization with overlap
     ethr =  3.06E-04,  avg # of iterations =  5.0

     negative rho (up, down):  6.327E-04 1.444E-02

     total cpu time spent up to now is      771.1 secs

     total energy              =    -823.56515304 Ry
     Harris-Foulkes estimate   =    -823.59995096 Ry
     estimated scf accuracy    <       0.10825812 Ry

     total magnetization       =     3.00 Bohr mag/cell
     absolute magnetization    =     3.38 Bohr mag/cell

     iteration #  6     ecut=    70.00 Ry     beta= 0.70
     Davidson diagonalization with overlap
     ethr =  5.13E-05,  avg # of iterations =  3.0

     negative rho (up, down):  6.823E-04 1.738E-02

     total cpu time spent up to now is      884.8 secs

     total energy              =    -823.58351631 Ry
     Harris-Foulkes estimate   =    -823.58882769 Ry
     estimated scf accuracy    <       0.02033073 Ry

     total magnetization       =     3.00 Bohr mag/cell
     absolute magnetization    =     3.55 Bohr mag/cell

     iteration #  7     ecut=    70.00 Ry     beta= 0.70
     Davidson diagonalization with overlap
     ethr =  9.64E-06,  avg # of iterations =  8.5

     negative rho (up, down):  6.975E-04 1.840E-02

     total cpu time spent up to now is     1010.0 secs

     total energy              =    -823.58525230 Ry
     Harris-Foulkes estimate   =    -823.58995077 Ry
     estimated scf accuracy    <       0.01436963 Ry

     total magnetization       =     3.00 Bohr mag/cell
     absolute magnetization    =     3.76 Bohr mag/cell

     iteration #  8     ecut=    70.00 Ry     beta= 0.70
     Davidson diagonalization with overlap
     ethr =  6.81E-06,  avg # of iterations =  7.0

     negative rho (up, down):  7.120E-04 1.853E-02

     total cpu time spent up to now is     1131.9 secs

     total energy              =    -823.58812390 Ry
     Harris-Foulkes estimate   =    -823.58885236 Ry
     estimated scf accuracy    <       0.00309310 Ry

     total magnetization       =     3.00 Bohr mag/cell
     absolute magnetization    =     3.86 Bohr mag/cell

     iteration #  9     ecut=    70.00 Ry     beta= 0.70
     Davidson diagonalization with overlap
     ethr =  1.47E-06,  avg # of iterations =  3.0

     negative rho (up, down):  7.175E-04 1.879E-02

     total cpu time spent up to now is     1244.6 secs

     total energy              =    -823.58886150 Ry
     Harris-Foulkes estimate   =    -823.58881391 Ry
     estimated scf accuracy    <       0.00029075 Ry

     total magnetization       =     3.00 Bohr mag/cell
     absolute magnetization    =     3.97 Bohr mag/cell

     iteration # 10     ecut=    70.00 Ry     beta= 0.70
     Davidson diagonalization with overlap
     ethr =  1.38E-07,  avg # of iterations =  3.0

     negative rho (up, down):  7.214E-04 1.880E-02

     total cpu time spent up to now is     1374.3 secs

     total energy              =    -823.58902685 Ry
     Harris-Foulkes estimate   =    -823.58896339 Ry
     estimated scf accuracy    <       0.00007671 Ry

     total magnetization       =     3.00 Bohr mag/cell
     absolute magnetization    =     4.06 Bohr mag/cell

     iteration # 11     ecut=    70.00 Ry     beta= 0.70
     Davidson diagonalization with overlap
     ethr =  3.64E-08,  avg # of iterations =  3.0

     negative rho (up, down):  7.227E-04 1.878E-02

     total cpu time spent up to now is     1507.4 secs

     total energy              =    -823.58908892 Ry
     Harris-Foulkes estimate   =    -823.58906887 Ry
     estimated scf accuracy    <       0.00003492 Ry

     total magnetization       =     3.00 Bohr mag/cell
     absolute magnetization    =     4.15 Bohr mag/cell

     iteration # 12     ecut=    70.00 Ry     beta= 0.70
     Davidson diagonalization with overlap
     ethr =  1.66E-08,  avg # of iterations =  3.0

     negative rho (up, down):  7.230E-04 1.872E-02

     total cpu time spent up to now is     1632.4 secs

     total energy              =    -823.58911983 Ry
     Harris-Foulkes estimate   =    -823.58910843 Ry
     estimated scf accuracy    <       0.00002494 Ry

     total magnetization       =     3.00 Bohr mag/cell
     absolute magnetization    =     4.20 Bohr mag/cell

     iteration # 13     ecut=    70.00 Ry     beta= 0.70
     Davidson diagonalization with overlap
     ethr =  1.18E-08,  avg # of iterations =  3.0

     negative rho (up, down):  7.231E-04 1.872E-02

     total cpu time spent up to now is     1766.5 secs

     total energy              =    -823.58913977 Ry
     Harris-Foulkes estimate   =    -823.58913705 Ry
     estimated scf accuracy    <       0.00000318 Ry

     total magnetization       =     3.00 Bohr mag/cell
     absolute magnetization    =     4.26 Bohr mag/cell

     iteration # 14     ecut=    70.00 Ry     beta= 0.70
     Davidson diagonalization with overlap
     ethr =  1.51E-09,  avg # of iterations =  3.0

     negative rho (up, down):  7.227E-04 1.874E-02

     total cpu time spent up to now is     1908.3 secs

     total energy              =    -823.58914603 Ry
     Harris-Foulkes estimate   =    -823.58914605 Ry
     estimated scf accuracy    <       0.00000290 Ry

     total magnetization       =     3.00 Bohr mag/cell
     absolute magnetization    =     4.30 Bohr mag/cell

     iteration # 15     ecut=    70.00 Ry     beta= 0.70
     Davidson diagonalization with overlap
     ethr =  1.37E-09,  avg # of iterations =  3.0

     negative rho (up, down):  7.226E-04 1.875E-02

     total cpu time spent up to now is     2023.0 secs

     total energy              =    -823.58914703 Ry
     Harris-Foulkes estimate   =    -823.58914716 Ry
     estimated scf accuracy    <       0.00000147 Ry

     total magnetization       =     3.00 Bohr mag/cell
     absolute magnetization    =     4.31 Bohr mag/cell

     iteration # 16     ecut=    70.00 Ry     beta= 0.70
     Davidson diagonalization with overlap
     ethr =  6.96E-10,  avg # of iterations =  3.0

     negative rho (up, down):  7.224E-04 1.875E-02

     total cpu time spent up to now is     2140.1 secs

     total energy              =    -823.58914758 Ry
     Harris-Foulkes estimate   =    -823.58914752 Ry
     estimated scf accuracy    <       0.00000016 Ry

     total magnetization       =     3.00 Bohr mag/cell
     absolute magnetization    =     4.32 Bohr mag/cell

     iteration # 17     ecut=    70.00 Ry     beta= 0.70
     Davidson diagonalization with overlap
     ethr =  7.39E-11,  avg # of iterations =  3.5

     negative rho (up, down):  7.224E-04 1.876E-02

     total cpu time spent up to now is     2280.6 secs

     total energy              =    -823.58914766 Ry
     Harris-Foulkes estimate   =    -823.58914770 Ry
     estimated scf accuracy    <       0.00000021 Ry

     total magnetization       =     3.00 Bohr mag/cell
     absolute magnetization    =     4.32 Bohr mag/cell

     iteration # 18     ecut=    70.00 Ry     beta= 0.70
     Davidson diagonalization with overlap
     ethr =  7.39E-11,  avg # of iterations =  3.0

     negative rho (up, down):  7.224E-04 1.878E-02

     total cpu time spent up to now is     2397.8 secs

     total energy              =    -823.58914774 Ry
     Harris-Foulkes estimate   =    -823.58914772 Ry
     estimated scf accuracy    <       0.00000003 Ry

     total magnetization       =     3.00 Bohr mag/cell
     absolute magnetization    =     4.33 Bohr mag/cell

     iteration # 19     ecut=    70.00 Ry     beta= 0.70
     Davidson diagonalization with overlap
     ethr =  1.47E-11,  avg # of iterations =  3.0

     negative rho (up, down):  7.224E-04 1.877E-02

     total cpu time spent up to now is     2530.8 secs

     total energy              =    -823.58914775 Ry
     Harris-Foulkes estimate   =    -823.58914775 Ry
     estimated scf accuracy    <          6.9E-09 Ry

     total magnetization       =     3.00 Bohr mag/cell
     absolute magnetization    =     4.33 Bohr mag/cell

     iteration # 20     ecut=    70.00 Ry     beta= 0.70
     Davidson diagonalization with overlap
     ethr =  3.29E-12,  avg # of iterations =  3.0

     negative rho (up, down):  7.224E-04 1.877E-02

     total cpu time spent up to now is     2665.8 secs

     total energy              =    -823.58914776 Ry
     Harris-Foulkes estimate   =    -823.58914776 Ry
     estimated scf accuracy    <          2.2E-09 Ry

     total magnetization       =     3.00 Bohr mag/cell
     absolute magnetization    =     4.33 Bohr mag/cell

     iteration # 21     ecut=    70.00 Ry     beta= 0.70
     Davidson diagonalization with overlap
     ethr =  1.03E-12,  avg # of iterations =  3.5

     negative rho (up, down):  7.224E-04 1.878E-02

     total cpu time spent up to now is     2797.4 secs

     total energy              =    -823.58914776 Ry
     Harris-Foulkes estimate   =    -823.58914776 Ry
     estimated scf accuracy    <          9.1E-10 Ry

     total magnetization       =     3.00 Bohr mag/cell
     absolute magnetization    =     4.33 Bohr mag/cell

     iteration # 22     ecut=    70.00 Ry     beta= 0.70
     Davidson diagonalization with overlap
     ethr =  4.33E-13,  avg # of iterations =  3.5

     negative rho (up, down):  7.224E-04 1.878E-02

     total cpu time spent up to now is     2904.4 secs

     total energy              =    -823.58914776 Ry
     Harris-Foulkes estimate   =    -823.58914776 Ry
     estimated scf accuracy    <          4.6E-10 Ry

     total magnetization       =     3.00 Bohr mag/cell
     absolute magnetization    =     4.33 Bohr mag/cell

     iteration # 23     ecut=    70.00 Ry     beta= 0.70
     Davidson diagonalization with overlap
     ethr =  2.16E-13,  avg # of iterations =  3.5

     negative rho (up, down):  7.224E-04 1.878E-02

     total cpu time spent up to now is     3007.2 secs

     total energy              =    -823.58914776 Ry
     Harris-Foulkes estimate   =    -823.58914776 Ry
     estimated scf accuracy    <          2.8E-10 Ry

     total magnetization       =     3.00 Bohr mag/cell
     absolute magnetization    =     4.33 Bohr mag/cell

     iteration # 24     ecut=    70.00 Ry     beta= 0.70
     Davidson diagonalization with overlap
     ethr =  1.35E-13,  avg # of iterations =  3.0

     negative rho (up, down):  7.224E-04 1.878E-02

     Magnetic moment per site:
     atom:    1    charge:    1.7170    magn:   -0.0130    constr:    0.0000
     atom:    2    charge:    1.7156    magn:    0.0182    constr:    0.0000
     atom:    3    charge:    1.7177    magn:   -0.0099    constr:    0.0000
     atom:    4    charge:    1.7142    magn:    0.0064    constr:    0.0000
     atom:    5    charge:    1.7177    magn:   -0.0099    constr:    0.0000
     atom:    6    charge:    1.7156    magn:    0.0182    constr:    0.0000
     atom:    7    charge:    1.7170    magn:   -0.0130    constr:    0.0000
     atom:    8    charge:    1.7155    magn:    0.0577    constr:    0.0000
     atom:    9    charge:    1.7175    magn:   -0.0181    constr:    0.0000
     atom:   10    charge:    1.7155    magn:    0.0577    constr:    0.0000
     atom:   11    charge:    1.7175    magn:   -0.0181    constr:    0.0000
     atom:   12    charge:    1.7159    magn:    0.0462    constr:    0.0000
     atom:   13    charge:    1.7144    magn:   -0.0149    constr:    0.0000
     atom:   14    charge:    1.7124    magn:    0.0617    constr:    0.0000
     atom:   15    charge:    1.7236    magn:   -0.0141    constr:    0.0000
     atom:   16    charge:    1.7124    magn:    0.0617    constr:    0.0000
     atom:   17    charge:    1.7144    magn:   -0.0149    constr:    0.0000
     atom:   18    charge:    1.7159    magn:    0.0462    constr:    0.0000
     atom:   19    charge:    1.7175    magn:   -0.0181    constr:    0.0000
     atom:   20    charge:    1.7155    magn:    0.0577    constr:    0.0000
     atom:   21    charge:    1.7170    magn:   -0.0130    constr:    0.0000
     atom:   22    charge:    1.7156    magn:    0.0182    constr:    0.0000
     atom:   23    charge:    1.7144    magn:   -0.0149    constr:    0.0000
     atom:   24    charge:    1.7124    magn:    0.0617    constr:    0.0000
     atom:   25    charge:    1.8739    magn:   -0.0300    constr:    0.0000
     atom:   26    charge:   10.0210    magn:    0.7880    constr:    0.0000
     atom:   27    charge:    1.8739    magn:   -0.0300    constr:    0.0000
     atom:   28    charge:    1.7124    magn:    0.0617    constr:    0.0000
     atom:   29    charge:    1.7144    magn:   -0.0149    constr:    0.0000
     atom:   30    charge:    1.7156    magn:    0.0182    constr:    0.0000
     atom:   31    charge:    1.7177    magn:   -0.0099    constr:    0.0000
     atom:   32    charge:    1.7142    magn:    0.0128    constr:    0.0000
     atom:   33    charge:    1.7177    magn:   -0.0099    constr:    0.0000
     atom:   34    charge:    1.7142    magn:    0.0064    constr:    0.0000
     atom:   35    charge:    1.7236    magn:   -0.0141    constr:    0.0000
     atom:   36    charge:    1.7124    magn:    0.0617    constr:    0.0000
     atom:   37    charge:    1.8739    magn:   -0.0300    constr:    0.0000
     atom:   38    charge:    1.7124    magn:    0.0617    constr:    0.0000
     atom:   39    charge:    1.7236    magn:   -0.0141    constr:    0.0000
     atom:   40    charge:    1.7142    magn:    0.0064    constr:    0.0000
     atom:   41    charge:    1.7177    magn:   -0.0099    constr:    0.0000
     atom:   42    charge:    1.7142    magn:    0.0128    constr:    0.0000
     atom:   43    charge:    1.7233    magn:   -0.0071    constr:    0.0000
     atom:   44    charge:    1.7142    magn:    0.0128    constr:    0.0000
     atom:   45    charge:    1.7177    magn:   -0.0099    constr:    0.0000
     atom:   46    charge:    1.7156    magn:    0.0182    constr:    0.0000
     atom:   47    charge:    1.7144    magn:   -0.0149    constr:    0.0000
     atom:   48    charge:    1.7159    magn:    0.0462    constr:    0.0000
     atom:   49    charge:    1.7144    magn:   -0.0149    constr:    0.0000
     atom:   50    charge:    1.7156    magn:    0.0182    constr:    0.0000

     total cpu time spent up to now is     3106.2 secs

     End of self-consistent calculation

 ------ SPIN UP ------------


          k = 0.0000 0.0000 0.0000 ( 87777 PWs)   bands (ev):

   -80.7495 -50.2528 -50.2528 -49.1707 -19.8058 -18.9702 -18.9702 -18.8784
   -18.8580 -18.8580 -18.5146 -17.1074 -17.1074 -17.1019 -17.0227 -17.0227
   -16.7112 -16.2625 -16.2625 -16.1541 -16.0929 -16.0929 -15.3923 -14.1524
   -14.1524 -14.0859 -14.0200 -14.0200 -13.3534 -13.0939 -13.0939 -13.0665
   -12.7642 -12.7642 -12.3471 -11.8719 -11.8719 -11.6876 -11.4121 -11.4121
   -10.4991  -9.7045  -9.7045  -9.4666  -9.3478  -9.3478  -9.2538  -9.2264
    -9.2264  -9.2120  -8.7229  -8.7229  -8.1958  -8.1958  -8.0901  -7.9694
    -7.8610  -7.4554  -7.4554  -7.2231  -7.2231  -7.2220  -6.9481  -6.9481
    -6.8661  -6.8546  -6.8546  -6.7426  -6.5911  -6.5911  -6.5654  -6.5601
    -6.5502  -6.5502  -6.5044  -5.6723  -5.6723  -5.5529  -5.5529  -5.3494
    -5.3494  -5.0656  -5.0109  -4.9111  -4.7784  -4.7580  -4.7580  -4.4365
    -4.2591  -4.2591  -4.2480  -4.2480  -3.9177  -3.9177  -3.8208  -3.6968
    -3.6968  -3.1790  -2.7857  -2.7857  -1.9283  -1.8317  -1.8317  -1.4991
    -1.1461  -1.1461  -0.8827   0.8744   0.9361   0.9361   1.5374   1.5374
     1.5491   2.4519   2.7294   2.7294   2.8268   3.0070   3.0070   3.4451
     3.4451   3.4514   3.6961   3.7047   3.7053   3.7224   3.8464

     occupation numbers 
     1.0000   1.0000   1.0000   1.0000   1.0000   1.0000   1.0000   1.0000
     1.0000   1.0000   1.0000   1.0000   1.0000   1.0000   1.0000   1.0000
     1.0000   1.0000   1.0000   1.0000   1.0000   1.0000   1.0000   1.0000
     1.0000   1.0000   1.0000   1.0000   1.0000   1.0000   1.0000   1.0000
     1.0000   1.0000   1.0000   1.0000   1.0000   1.0000   1.0000   1.0000
     1.0000   1.0000   1.0000   1.0000   1.0000   1.0000   1.0000   1.0000
     1.0000   1.0000   1.0000   1.0000   1.0000   1.0000   1.0000   1.0000
     1.0000   1.0000   1.0000   1.0000   1.0000   1.0000   1.0000   1.0000
     1.0000   1.0000   1.0000   1.0000   1.0000   1.0000   1.0000   1.0000
     1.0000   1.0000   1.0000   1.0000   1.0000   1.0000   1.0000   1.0000
     1.0000   1.0000   1.0000   1.0000   1.0000   1.0000   1.0000   1.0000
     1.0000   1.0000   1.0000   1.0000   1.0000   1.0000   1.0000   1.0000
     1.0000   1.0000   1.0000   1.0000   1.0000   1.0000   1.0000   1.0000
     1.0000   1.0000   1.0000   0.0000   0.0000   0.0000   0.0000   0.0000
     0.0000   0.0000   0.0000   0.0000   0.0000   0.0000   0.0000   0.0000
     0.0000   0.0000   0.0000   0.0000   0.0000   0.0000   0.0000

 ------ SPIN DOWN ----------


          k = 0.0000 0.0000 0.0000 ( 87777 PWs)   bands (ev):

   -79.4073 -49.1806 -49.1806 -47.4024 -19.7641 -18.9220 -18.9220 -18.8410
   -18.8313 -18.8313 -18.4494 -17.0726 -17.0700 -17.0700 -16.9667 -16.9667
   -16.6815 -16.2125 -16.2125 -16.1230 -16.0491 -16.0491 -15.3612 -14.0789
   -14.0789 -14.0175 -14.0098 -14.0098 -13.3604 -13.0674 -13.0674 -13.0340
   -12.7451 -12.7451 -12.3099 -11.8298 -11.8298 -11.6625 -11.3879 -11.3879
   -10.4613  -9.6364  -9.6364  -9.4357  -9.3129  -9.3129  -9.2378  -9.2019
    -9.2019  -9.1945  -8.7070  -8.7070  -8.1459  -8.1459  -8.0588  -7.8725
    -7.8429  -7.4393  -7.4393  -7.1655  -7.0277  -7.0277  -6.8863  -6.8863
    -6.7977  -6.7977  -6.7685  -6.7266  -6.5718  -6.5718  -6.5488  -6.5372
    -6.5372  -6.4872  -6.4148  -5.5146  -5.5146  -5.3837  -5.3837  -5.2722
    -5.2722  -4.9973  -4.8998  -4.7136  -4.7037  -4.6666  -4.6666  -4.3593
    -4.1288  -4.1288  -4.0409  -4.0409  -3.7820  -3.7820  -3.7331  -3.6780
    -3.6780  -3.1061  -2.5263  -2.5263  -1.8066  -1.8066  -1.7591  -0.8479
    -0.5461  -0.5461  -0.0994   0.9786   0.9786   1.0308   1.7138   1.7165
     1.7165   2.4933   2.8666   2.8666   2.8960   3.3033   3.3033   3.6212
     3.6320   3.6320   3.7223   3.7223   3.7273   3.7455   3.7455

     occupation numbers 
     1.0000   1.0000   1.0000   1.0000   1.0000   1.0000   1.0000   1.0000
     1.0000   1.0000   1.0000   1.0000   1.0000   1.0000   1.0000   1.0000
     1.0000   1.0000   1.0000   1.0000   1.0000   1.0000   1.0000   1.0000
     1.0000   1.0000   1.0000   1.0000   1.0000   1.0000   1.0000   1.0000
     1.0000   1.0000   1.0000   1.0000   1.0000   1.0000   1.0000   1.0000
     1.0000   1.0000   1.0000   1.0000   1.0000   1.0000   1.0000   1.0000
     1.0000   1.0000   1.0000   1.0000   1.0000   1.0000   1.0000   1.0000
     1.0000   1.0000   1.0000   1.0000   1.0000   1.0000   1.0000   1.0000
     1.0000   1.0000   1.0000   1.0000   1.0000   1.0000   1.0000   1.0000
     1.0000   1.0000   1.0000   1.0000   1.0000   1.0000   1.0000   1.0000
     1.0000   1.0000   1.0000   1.0000   1.0000   1.0000   1.0000   1.0000
     1.0000   1.0000   1.0000   1.0000   1.0000   1.0000   1.0000   1.0000
     1.0000   1.0000   1.0000   1.0000   1.0000   1.0000   1.0000   1.0000
     0.0000   0.0000   0.0000   0.0000   0.0000   0.0000   0.0000   0.0000
     0.0000   0.0000   0.0000   0.0000   0.0000   0.0000   0.0000   0.0000
     0.0000   0.0000   0.0000   0.0000   0.0000   0.0000   0.0000

     the Fermi energy is    -0.7557 ev

!    total energy              =    -823.58914776 Ry
     Harris-Foulkes estimate   =    -823.58914776 Ry
     estimated scf accuracy    <          3.9E-11 Ry

     The total energy is the sum of the following terms:

     one-electron contribution =   -2731.35238472 Ry
     hartree contribution      =    1409.87009555 Ry
     xc contribution           =    -258.24608124 Ry
     ewald contribution        =     756.13922265 Ry
     smearing contrib. (-TS)   =       0.00000000 Ry

     total magnetization       =     3.00 Bohr mag/cell
     absolute magnetization    =     4.33 Bohr mag/cell

     convergence has been achieved in  24 iterations

     negative rho (up, down):  7.224E-04 1.878E-02

     Forces acting on atoms (cartesian axes, Ry/au):

     atom    1 type  1   force =    -0.00047284    0.00027299    0.00000000
     atom    2 type  1   force =    -0.00890378   -0.00081191    0.00000000
     atom    3 type  1   force =    -0.00130594   -0.00407100    0.00000000
     atom    4 type  1   force =     0.00645078    0.00372418    0.00000000
     atom    5 type  1   force =    -0.00417847    0.00090434    0.00000000
     atom    6 type  1   force =    -0.00515492   -0.00730502    0.00000000
     atom    7 type  1   force =     0.00000001   -0.00054620    0.00000000
     atom    8 type  1   force =     0.00000013   -0.00340936    0.00000000
     atom    9 type  1   force =    -0.01084796   -0.00626320    0.00000000
     atom   10 type  1   force =    -0.00295257    0.00170467    0.00000000
     atom   11 type  1   force =     0.00000011    0.01252621    0.00000000
     atom   12 type  1   force =     0.00000009   -0.01775149    0.00000000
     atom   13 type  1   force =    -0.00096539    0.01779472    0.00000000
     atom   14 type  1   force =    -0.04891020   -0.03090728    0.00000000
     atom   15 type  1   force =    -0.02242787   -0.01294900    0.00000000
     atom   16 type  1   force =    -0.05122151   -0.02690398    0.00000000
     atom   17 type  1   force =     0.01492804   -0.00973344    0.00000000
     atom   18 type  1   force =    -0.01537311    0.00887567    0.00000000
     atom   19 type  1   force =     0.01084806   -0.00626313    0.00000000
     atom   20 type  1   force =     0.00295266    0.00170456    0.00000000
     atom   21 type  1   force =     0.00047303    0.00027309    0.00000000
     atom   22 type  1   force =     0.00890388   -0.00081190    0.00000000
     atom   23 type  1   force =     0.00096565    0.01779467    0.00000000
     atom   24 type  1   force =     0.04891031   -0.03090727    0.00000000
     atom   25 type  1   force =     0.00000031   -0.76080013    0.00000000
     atom   26 type  2   force =    -0.00000433    0.00000250    0.00000000
     atom   27 type  1   force =    -0.65887203    0.38039994    0.00000000
     atom   28 type  1   force =    -0.00231122    0.05781112    0.00000000
     atom   29 type  1   force =     0.01589343   -0.00806134    0.00000000
     atom   30 type  1   force =     0.00374887    0.00811680    0.00000000
     atom   31 type  1   force =    -0.00287241    0.00316649    0.00000000
     atom   32 type  1   force =     0.00345351    0.00199380    0.00000000
     atom   33 type  1   force =     0.00130608   -0.00407091    0.00000000
     atom   34 type  1   force =    -0.00645064    0.00372428    0.00000000
     atom   35 type  1   force =     0.02242797   -0.01294880    0.00000000
     atom   36 type  1   force =     0.05122163   -0.02690394    0.00000000
     atom   37 type  1   force =     0.65887239    0.38039979   -0.00000000
     atom   38 type  1   force =     0.00231138    0.05781112    0.00000000
     atom   39 type  1   force =     0.00000023    0.02589761    0.00000000
     atom   40 type  1   force =     0.00000016   -0.00744863    0.00000000
     atom   41 type  1   force =     0.00287262    0.00316647    0.00000000
     atom   42 type  1   force =    -0.00345329    0.00199376    0.00000000
     atom   43 type  1   force =     0.00000011   -0.00000006    0.00000000
     atom   44 type  1   force =     0.00000007   -0.00398772    0.00000000
     atom   45 type  1   force =     0.00417855    0.00090435    0.00000000
     atom   46 type  1   force =     0.00515507   -0.00730503    0.00000000
     atom   47 type  1   force =    -0.01492781   -0.00973362    0.00000000
     atom   48 type  1   force =     0.01537329    0.00887567    0.00000000
     atom   49 type  1   force =    -0.01589338   -0.00806131    0.00000000
     atom   50 type  1   force =    -0.00374875    0.00811686   -0.00000000
     The non-local contrib.  to forces
     atom    1 type  1   force =     0.01139050   -0.00657631    0.00000000
     atom    2 type  1   force =     0.01369373    0.00033936    0.00000000
     atom    3 type  1   force =     0.01093772   -0.00198966    0.00000000
     atom    4 type  1   force =     0.00004247    0.00002440   -0.00000000
     atom    5 type  1   force =     0.00374570    0.01046718    0.00000000
     atom    6 type  1   force =     0.00714074    0.01168955    0.00000000
     atom    7 type  1   force =    -0.00000008    0.01315262   -0.00000000
     atom    8 type  1   force =     0.00000011    0.00601634    0.00000000
     atom    9 type  1   force =    -0.00364639   -0.00210541    0.00000000
     atom   10 type  1   force =     0.00521026   -0.00300815    0.00000000
     atom   11 type  1   force =     0.00000014    0.00421057    0.00000000
     atom   12 type  1   force =     0.00000007   -0.00575337   -0.00000000
     atom   13 type  1   force =     0.01692364    0.01674887    0.00000000
     atom   14 type  1   force =     0.03278366    0.01919385    0.00000000
     atom   15 type  1   force =    -0.00766405   -0.00442501    0.00000000
     atom   16 type  1   force =     0.03301407    0.01879438   -0.00000000
     atom   17 type  1   force =     0.02296663    0.00628194    0.00000000
     atom   18 type  1   force =    -0.00498280    0.00287682    0.00000000
     atom   19 type  1   force =     0.00364640   -0.00210525    0.00000000
     atom   20 type  1   force =    -0.00521025   -0.00300827   -0.00000000
     atom   21 type  1   force =    -0.01139054   -0.00657624    0.00000000
     atom   22 type  1   force =    -0.01369369    0.00033937    0.00000000
     atom   23 type  1   force =    -0.01692342    0.01674890    0.00000000
     atom   24 type  1   force =    -0.03278341    0.01919377    0.00000000
     atom   25 type  1   force =     0.00000026   -0.60856991    0.00000000
     atom   26 type  2   force =    -0.00000353    0.00000204    0.00000000
     atom   27 type  1   force =    -0.52703637    0.30428459    0.00000000
     atom   28 type  1   force =     0.00023062   -0.03798821    0.00000000
     atom   29 type  1   force =     0.00604300   -0.02303066    0.00000000
     atom   30 type  1   force =    -0.00655307   -0.01202884    0.00000000
     atom   31 type  1   force =    -0.00719199   -0.00847746    0.00000000
     atom   32 type  1   force =    -0.01589929   -0.00917936   -0.00000000
     atom   33 type  1   force =    -0.01093780   -0.00198950    0.00000000
     atom   34 type  1   force =    -0.00004268    0.00002464    0.00000000
     atom   35 type  1   force =     0.00766386   -0.00442473    0.00000000
     atom   36 type  1   force =    -0.03301400    0.01879438   -0.00000000
     atom   37 type  1   force =     0.52703714    0.30428473    0.00000000
     atom   38 type  1   force =    -0.00023053   -0.03798840    0.00000000
     atom   39 type  1   force =     0.00000015    0.00884977    0.00000000
     atom   40 type  1   force =     0.00000010   -0.00004898    0.00000000
     atom   41 type  1   force =     0.00719196   -0.00847752    0.00000000
     atom   42 type  1   force =     0.01589938   -0.00917951    0.00000000
     atom   43 type  1   force =     0.00000002   -0.00000001    0.00000000
     atom   44 type  1   force =    -0.00000009    0.01835887    0.00000000
     atom   45 type  1   force =    -0.00374594    0.01046717    0.00000000
     atom   46 type  1   force =    -0.00714074    0.01168940    0.00000000
     atom   47 type  1   force =    -0.02296668    0.00628166    0.00000000
     atom   48 type  1   force =     0.00498260    0.00287663    0.00000000
     atom   49 type  1   force =    -0.00604313   -0.02303074    0.00000000
     atom   50 type  1   force =     0.00655297   -0.01202880   -0.00000000
     The ionic contribution  to forces
     atom    1 type  1   force =     0.05741908   -0.03315092   -0.00000000
     atom    2 type  1   force =    -0.29621902   -0.51306639   -0.00000000
     atom    3 type  1   force =    -0.40548020   -0.33896946   -0.00000000
     atom    4 type  1   force =    -0.90636563   -0.52329044   -0.00000000
     atom    5 type  1   force =    -0.49629627   -0.18167141   -0.00000000
     atom    6 type  1   force =    -0.59243803   -0.00000000   -0.00000000
     atom    7 type  1   force =    -0.00000000    0.06630184   -0.00000000
     atom    8 type  1   force =    -0.00000000    0.12197144   -0.00000000
     atom    9 type  1   force =     0.29720677    0.17159241   -0.00000000
     atom   10 type  1   force =     0.10563037   -0.06098572   -0.00000000
     atom   11 type  1   force =    -0.00000000   -0.34318482   -0.00000000
     atom   12 type  1   force =    -0.00000000   -1.04658089   -0.00000000
     atom   13 type  1   force =    -0.47247620   -1.38518420   -0.00000000
     atom   14 type  1   force =    -1.94577703   -3.37018469   -0.00000000
     atom   15 type  1   force =    -2.46908166   -1.42552496   -0.00000000
     atom   16 type  1   force =    -3.89155407   -0.00000000   -0.00000000
     atom   17 type  1   force =    -1.43584281    0.28341571   -0.00000000
     atom   18 type  1   force =    -0.90636563    0.52329044   -0.00000000
     atom   19 type  1   force =    -0.29720677    0.17159241   -0.00000000
     atom   20 type  1   force =    -0.10563037   -0.06098572   -0.00000000
     atom   21 type  1   force =    -0.05741908   -0.03315092   -0.00000000
     atom   22 type  1   force =     0.29621902   -0.51306639   -0.00000000
     atom   23 type  1   force =     0.47247620   -1.38518420   -0.00000000
     atom   24 type  1   force =     1.94577703   -3.37018469   -0.00000000
     atom   25 type  1   force =     0.00000000  -12.07495890   -0.00000000
     atom   26 type  2   force =    -0.00000000   -0.00000001   -0.00000000
     atom   27 type  1   force =   -10.45722116    6.03747945   -0.00000000
     atom   28 type  1   force =    -1.94577703    3.37018468   -0.00000000
     atom   29 type  1   force =    -0.96336661    1.10176850   -0.00000000
     atom   30 type  1   force =    -0.29621902    0.51306639   -0.00000000
     atom   31 type  1   force =    -0.09081607    0.52064089   -0.00000000
     atom   32 type  1   force =     0.10563037    0.06098572   -0.00000000
     atom   33 type  1   force =     0.40548020   -0.33896946   -0.00000000
     atom   34 type  1   force =     0.90636563   -0.52329044   -0.00000000
     atom   35 type  1   force =     2.46908166   -1.42552496   -0.00000000
     atom   36 type  1   force =     3.89155407   -0.00000000   -0.00000000
     atom   37 type  1   force =    10.45722116    6.03747945   -0.00000000
     atom   38 type  1   force =     1.94577703    3.37018468   -0.00000000
     atom   39 type  1   force =    -0.00000000    2.85104992   -0.00000000
     atom   40 type  1   force =    -0.00000000    1.04658088   -0.00000000
     atom   41 type  1   force =     0.09081607    0.52064089   -0.00000000
     atom   42 type  1   force =    -0.10563037    0.06098572   -0.00000000
     atom   43 type  1   force =     0.00000000    0.00000000   -0.00000000
     atom   44 type  1   force =     0.00000000   -0.12197144   -0.00000000
     atom   45 type  1   force =     0.49629627   -0.18167141   -0.00000000
     atom   46 type  1   force =     0.59243803   -0.00000000   -0.00000000
     atom   47 type  1   force =     1.43584281    0.28341571   -0.00000000
     atom   48 type  1   force =     0.90636563    0.52329044   -0.00000000
     atom   49 type  1   force =     0.96336661    1.10176850   -0.00000000
     atom   50 type  1   force =     0.29621902    0.51306639   -0.00000000
     The local contribution  to forces
     atom    1 type  1   force =    -0.06909811    0.03989381    0.00000000
     atom    2 type  1   force =     0.27389432    0.51191213    0.00000000
     atom    3 type  1   force =     0.39343872    0.33685601    0.00000000
     atom    4 type  1   force =     0.91279067    0.52699937    0.00000000
     atom    5 type  1   force =     0.48844518    0.17229938    0.00000000
     atom    6 type  1   force =     0.58027574   -0.01875669   -0.00000000
     atom    7 type  1   force =    -0.00000059   -0.07978772    0.00000000
     atom    8 type  1   force =    -0.00000033   -0.13127953    0.00000000
     atom    9 type  1   force =    -0.30447215   -0.17578682    0.00000000
     atom   10 type  1   force =    -0.11369176    0.06563996    0.00000000
     atom   11 type  1   force =    -0.00000022    0.35157403    0.00000000
     atom   12 type  1   force =     0.00000017    1.03450430    0.00000000
     atom   13 type  1   force =     0.45487448    1.38653178    0.00000000
     atom   14 type  1   force =     1.86479237    3.32042680    0.00000000
     atom   15 type  1   force =     2.45417966    1.41692028    0.00000000
     atom   16 type  1   force =     3.80796979   -0.04525712   -0.00000000
     atom   17 type  1   force =     1.42820829   -0.29933296    0.00000000
     atom   18 type  1   force =     0.89590636   -0.51725178    0.00000000
     atom   19 type  1   force =     0.30447158   -0.17578675    0.00000000
     atom   20 type  1   force =     0.11369124    0.06564005    0.00000000
     atom   21 type  1   force =     0.06909790    0.03989437    0.00000000
     atom   22 type  1   force =    -0.27389462    0.51191325    0.00000000
     atom   23 type  1   force =    -0.45487400    1.38653278    0.00000000
     atom   24 type  1   force =    -1.86479111    3.32042809    0.00000000
     atom   25 type  1   force =     0.00000174   11.90849173    0.00000000
     atom   26 type  2   force =     0.00000916   -0.00000541    0.00000000
     atom   27 type  1   force =    10.31305681   -5.95424613    0.00000000
     atom   28 type  1   force =     1.94317870   -3.27517002    0.00000000
     atom   29 type  1   force =     0.97333409   -1.08719818    0.00000000
     atom   30 type  1   force =     0.30638163   -0.49315519    0.00000000
     atom   31 type  1   force =     0.09500695   -0.50915563    0.00000000
     atom   32 type  1   force =    -0.08655414   -0.04997144    0.00000000
     atom   33 type  1   force =    -0.39343918    0.33685709    0.00000000
     atom   34 type  1   force =    -0.91279150    0.52700042    0.00000000
     atom   35 type  1   force =    -2.45417991    1.41692143    0.00000000
     atom   36 type  1   force =    -3.80797063   -0.04525757    0.00000000
     atom   37 type  1   force =   -10.31305549   -5.95424737    0.00000000
     atom   38 type  1   force =    -1.94317777   -3.27517097    0.00000000
     atom   39 type  1   force =     0.00000087   -2.83384207    0.00000000
     atom   40 type  1   force =     0.00000049   -1.05399960    0.00000000
     atom   41 type  1   force =    -0.09500650   -0.50915593    0.00000000
     atom   42 type  1   force =     0.08655400   -0.04997198    0.00000000
     atom   43 type  1   force =    -0.00000011    0.00000006   -0.00000000
     atom   44 type  1   force =    -0.00000053    0.09994380    0.00000000
     atom   45 type  1   force =    -0.48844639    0.17229978    0.00000000
     atom   46 type  1   force =    -0.58027719   -0.01875693    0.00000000
     atom   47 type  1   force =    -1.42820961   -0.29933395    0.00000000
     atom   48 type  1   force =    -0.89590692   -0.51725230    0.00000000
     atom   49 type  1   force =    -0.97333450   -1.08719875    0.00000000
     atom   50 type  1   force =    -0.30638175   -0.49315551    0.00000000
     The core correction contribution to forces
     atom    1 type  1   force =    -0.00018506    0.00010685   -0.00000000
     atom    2 type  1   force =    -0.00027258    0.00000375    0.00000000
     atom    3 type  1   force =    -0.00020022    0.00003311   -0.00000000
     atom    4 type  1   force =    -0.00001458   -0.00000842   -0.00000000
     atom    5 type  1   force =    -0.00007143   -0.00018995   -0.00000000
     atom    6 type  1   force =    -0.00013304   -0.00023795    0.00000000
     atom    7 type  1   force =    -0.00000000   -0.00021370   -0.00000000
     atom    8 type  1   force =    -0.00000001   -0.00011943    0.00000000
     atom    9 type  1   force =     0.00006188    0.00003574   -0.00000000
     atom   10 type  1   force =    -0.00010344    0.00005972    0.00000000
     atom   11 type  1   force =    -0.00000001   -0.00007146   -0.00000000
     atom   12 type  1   force =    -0.00000000    0.00008107    0.00000000
     atom   13 type  1   force =    -0.00028689   -0.00030000    0.00000000
     atom   14 type  1   force =    -0.00070803   -0.00034104    0.00000000
     atom   15 type  1   force =     0.00013985    0.00008074    0.00000000
     atom   16 type  1   force =    -0.00064935   -0.00044265    0.00000000
     atom   17 type  1   force =    -0.00040326   -0.00009846    0.00000000
     atom   18 type  1   force =     0.00007020   -0.00004053   -0.00000000
     atom   19 type  1   force =    -0.00006188    0.00003573   -0.00000000
     atom   20 type  1   force =     0.00010343    0.00005973    0.00000000
     atom   21 type  1   force =     0.00018507    0.00010685   -0.00000000
     atom   22 type  1   force =     0.00027258    0.00000376    0.00000000
     atom   23 type  1   force =     0.00028689   -0.00029999    0.00000000
     atom   24 type  1   force =     0.00070804   -0.00034105   -0.00000000
     atom   25 type  1   force =    -0.00000001    0.01423943    0.00000000
     atom   26 type  2   force =     0.00000004   -0.00000003    0.00000000
     atom   27 type  1   force =     0.01233173   -0.00711972    0.00000000
     atom   28 type  1   force =     0.00005867    0.00078368    0.00000000
     atom   29 type  1   force =    -0.00011636    0.00039846    0.00000000
     atom   30 type  1   force =     0.00013955    0.00023419    0.00000000
     atom   31 type  1   force =     0.00012879    0.00015683   -0.00000000
     atom   32 type  1   force =     0.00027538    0.00015900   -0.00000000
     atom   33 type  1   force =     0.00020022    0.00003311   -0.00000000
     atom   34 type  1   force =     0.00001456   -0.00000841    0.00000000
     atom   35 type  1   force =    -0.00013983    0.00008073    0.00000000
     atom   36 type  1   force =     0.00064937   -0.00044265   -0.00000000
     atom   37 type  1   force =    -0.01233171   -0.00711971    0.00000000
     atom   38 type  1   force =    -0.00005867    0.00078370    0.00000000
     atom   39 type  1   force =     0.00000000   -0.00016148    0.00000000
     atom   40 type  1   force =     0.00000000    0.00001683   -0.00000000
     atom   41 type  1   force =    -0.00012878    0.00015684   -0.00000000
     atom   42 type  1   force =    -0.00027538    0.00015899   -0.00000000
     atom   43 type  1   force =    -0.00000000    0.00000000   -0.00000000
     atom   44 type  1   force =    -0.00000001   -0.00031798   -0.00000000
     atom   45 type  1   force =     0.00007143   -0.00018995   -0.00000000
     atom   46 type  1   force =     0.00013304   -0.00023794    0.00000000
     atom   47 type  1   force =     0.00040325   -0.00009846    0.00000000
     atom   48 type  1   force =    -0.00007021   -0.00004054    0.00000000
     atom   49 type  1   force =     0.00011636    0.00039846    0.00000000
     atom   50 type  1   force =    -0.00013954    0.00023419    0.00000000
     The Hubbard contrib.    to forces
     atom    1 type  1   force =     0.00000000    0.00000000    0.00000000
     atom    2 type  1   force =     0.00000000    0.00000000    0.00000000
     atom    3 type  1   force =     0.00000000    0.00000000    0.00000000
     atom    4 type  1   force =     0.00000000    0.00000000    0.00000000
     atom    5 type  1   force =     0.00000000    0.00000000    0.00000000
     atom    6 type  1   force =     0.00000000    0.00000000    0.00000000
     atom    7 type  1   force =     0.00000000    0.00000000    0.00000000
     atom    8 type  1   force =     0.00000000    0.00000000    0.00000000
     atom    9 type  1   force =     0.00000000    0.00000000    0.00000000
     atom   10 type  1   force =     0.00000000    0.00000000    0.00000000
     atom   11 type  1   force =     0.00000000    0.00000000    0.00000000
     atom   12 type  1   force =     0.00000000    0.00000000    0.00000000
     atom   13 type  1   force =     0.00000000    0.00000000    0.00000000
     atom   14 type  1   force =     0.00000000    0.00000000    0.00000000
     atom   15 type  1   force =     0.00000000    0.00000000    0.00000000
     atom   16 type  1   force =     0.00000000    0.00000000    0.00000000
     atom   17 type  1   force =     0.00000000    0.00000000    0.00000000
     atom   18 type  1   force =     0.00000000    0.00000000    0.00000000
     atom   19 type  1   force =     0.00000000    0.00000000    0.00000000
     atom   20 type  1   force =     0.00000000    0.00000000    0.00000000
     atom   21 type  1   force =     0.00000000    0.00000000    0.00000000
     atom   22 type  1   force =     0.00000000    0.00000000    0.00000000
     atom   23 type  1   force =     0.00000000    0.00000000    0.00000000
     atom   24 type  1   force =     0.00000000    0.00000000    0.00000000
     atom   25 type  1   force =     0.00000000    0.00000000    0.00000000
     atom   26 type  2   force =     0.00000000    0.00000000    0.00000000
     atom   27 type  1   force =     0.00000000    0.00000000    0.00000000
     atom   28 type  1   force =     0.00000000    0.00000000    0.00000000
     atom   29 type  1   force =     0.00000000    0.00000000    0.00000000
     atom   30 type  1   force =     0.00000000    0.00000000    0.00000000
     atom   31 type  1   force =     0.00000000    0.00000000    0.00000000
     atom   32 type  1   force =     0.00000000    0.00000000    0.00000000
     atom   33 type  1   force =     0.00000000    0.00000000    0.00000000
     atom   34 type  1   force =     0.00000000    0.00000000    0.00000000
     atom   35 type  1   force =     0.00000000    0.00000000    0.00000000
     atom   36 type  1   force =     0.00000000    0.00000000    0.00000000
     atom   37 type  1   force =     0.00000000    0.00000000    0.00000000
     atom   38 type  1   force =     0.00000000    0.00000000    0.00000000
     atom   39 type  1   force =     0.00000000    0.00000000    0.00000000
     atom   40 type  1   force =     0.00000000    0.00000000    0.00000000
     atom   41 type  1   force =     0.00000000    0.00000000    0.00000000
     atom   42 type  1   force =     0.00000000    0.00000000    0.00000000
     atom   43 type  1   force =     0.00000000    0.00000000    0.00000000
     atom   44 type  1   force =     0.00000000    0.00000000    0.00000000
     atom   45 type  1   force =     0.00000000    0.00000000    0.00000000
     atom   46 type  1   force =     0.00000000    0.00000000    0.00000000
     atom   47 type  1   force =     0.00000000    0.00000000    0.00000000
     atom   48 type  1   force =     0.00000000    0.00000000    0.00000000
     atom   49 type  1   force =     0.00000000    0.00000000    0.00000000
     atom   50 type  1   force =     0.00000000    0.00000000    0.00000000
     The SCF correction term to forces
     atom    1 type  1   force =     0.00000066   -0.00000038   -0.00000000
     atom    2 type  1   force =    -0.00000033   -0.00000072   -0.00000000
     atom    3 type  1   force =    -0.00000206   -0.00000094   -0.00000000
     atom    4 type  1   force =    -0.00000224   -0.00000068   -0.00000000
     atom    5 type  1   force =    -0.00000175   -0.00000080   -0.00000000
     atom    6 type  1   force =    -0.00000042    0.00000012   -0.00000000
     atom    7 type  1   force =     0.00000060    0.00000081   -0.00000000
     atom    8 type  1   force =     0.00000027    0.00000187   -0.00000000
     atom    9 type  1   force =     0.00000184    0.00000093   -0.00000000
     atom   10 type  1   force =     0.00000190   -0.00000110   -0.00000000
     atom   11 type  1   force =     0.00000012   -0.00000205   -0.00000000
     atom   12 type  1   force =    -0.00000024   -0.00000257   -0.00000000
     atom   13 type  1   force =    -0.00000050   -0.00000167   -0.00000000
     atom   14 type  1   force =    -0.00000126   -0.00000214   -0.00000000
     atom   15 type  1   force =    -0.00000176    0.00000000   -0.00000000
     atom   16 type  1   force =    -0.00000204    0.00000146   -0.00000000
     atom   17 type  1   force =    -0.00000091    0.00000038   -0.00000000
     atom   18 type  1   force =    -0.00000133    0.00000077   -0.00000000
     atom   19 type  1   force =    -0.00000135    0.00000078   -0.00000000
     atom   20 type  1   force =    -0.00000149   -0.00000117   -0.00000000
     atom   21 type  1   force =    -0.00000040   -0.00000092   -0.00000000
     atom   22 type  1   force =     0.00000050   -0.00000184   -0.00000000
     atom   23 type  1   force =    -0.00000012   -0.00000276   -0.00000000
     atom   24 type  1   force =    -0.00000032   -0.00000334   -0.00000000
     atom   25 type  1   force =    -0.00000177   -0.00000242   -0.00000000
     atom   26 type  2   force =    -0.00001015    0.00000586   -0.00000000
     atom   27 type  1   force =    -0.00000313    0.00000181   -0.00000000
     atom   28 type  1   force =    -0.00000228    0.00000104   -0.00000000
     atom   29 type  1   force =    -0.00000079    0.00000059   -0.00000000
     atom   30 type  1   force =    -0.00000032    0.00000030   -0.00000000
     atom   31 type  1   force =    -0.00000018    0.00000191   -0.00000000
     atom   32 type  1   force =     0.00000110   -0.00000007   -0.00000000
     atom   33 type  1   force =     0.00000257   -0.00000209   -0.00000000
     atom   34 type  1   force =     0.00000326   -0.00000188   -0.00000000
     atom   35 type  1   force =     0.00000211   -0.00000122   -0.00000000
     atom   36 type  1   force =     0.00000273    0.00000195   -0.00000000
     atom   37 type  1   force =     0.00000121    0.00000275   -0.00000000
     atom   38 type  1   force =     0.00000123    0.00000216   -0.00000000
     atom   39 type  1   force =    -0.00000088    0.00000152   -0.00000000
     atom   40 type  1   force =    -0.00000053    0.00000228   -0.00000000
     atom   41 type  1   force =    -0.00000022    0.00000225   -0.00000000
     atom   42 type  1   force =    -0.00000101    0.00000058   -0.00000000
     atom   43 type  1   force =     0.00000011   -0.00000006   -0.00000000
     atom   44 type  1   force =     0.00000061   -0.00000092   -0.00000000
     atom   45 type  1   force =     0.00000310   -0.00000118   -0.00000000
     atom   46 type  1   force =     0.00000184    0.00000049   -0.00000000
     atom   47 type  1   force =     0.00000233    0.00000148   -0.00000000
     atom   48 type  1   force =     0.00000210    0.00000149   -0.00000000
     atom   49 type  1   force =     0.00000120    0.00000127   -0.00000000
     atom   50 type  1   force =     0.00000046    0.00000064   -0.00000000

     Total force =     1.327670     Total SCF correction =     0.000019

     BFGS Geometry Optimization

     number of scf cycles    =   1
     number of bfgs steps    =   0

     energy   new            =    -823.5891477606 Ry

     new trust radius        =       0.5000000000 bohr
     new conv_thr            =            1.0E-10 Ry


ATOMIC_POSITIONS (angstrom)
C       -0.000164442   0.000094941   0.000000000
C       -0.003096528   1.423057725   0.000000000
C       -1.233102850   2.133594335   0.000000000
C       -1.230405242   3.559645405   0.000000000
C       -2.466750524   4.270334773   0.000000000
C       -2.467090113   5.690819840   0.000000000
C       -3.697946020   6.404840443   0.000000000
C       -3.697945979   7.827184793   0.000000000
C       -4.934367369   8.537862337   0.000000000
C       -4.931621537   9.963973465   0.000000000
C        2.465297388   0.004356324   0.000000000
C        2.465297382   1.417166532   0.000000000
C        1.232312936   2.141198725   0.000000000
C        1.215638842   3.547601389   0.000000000
C       -0.007799893   4.265516905   0.000000000
C       -0.017813651   5.684003776   0.000000000
C       -1.227457050   6.401645334   0.000000000
C       -1.237995084   7.831457239   0.000000000
C       -2.461524648   8.537862362   0.000000000
C       -2.464270485   9.963973429   0.000000000
C        4.930759209   0.000094974   0.000000000
C        4.933691263   1.423057728   0.000000000
C        3.698281857   2.141198707   0.000000000
C        3.714955896   3.547601393   0.000000000
C        2.465297458   4.005431662   0.000000000
Mn       2.465295845   5.693361224   0.000000000
C        1.003508294   6.537324660   0.000000000
C        1.231844885   7.848475852   0.000000000
C        0.005527365   8.537236986   0.000000000
C        0.001303769   9.966203457   0.000000000
C        7.394893092   0.001101232   0.000000000
C        7.397093099   1.424033486   0.000000000
C        6.163697601   2.133594366   0.000000000
C        6.160999994   3.559645439   0.000000000
C        4.938394628   4.265516975   0.000000000
C        4.948408394   5.684003789   0.000000000
C        3.927086532   6.537324607  -0.000000000
C        3.698749871   7.848475851   0.000000000
C        2.465297429   8.549047118   0.000000000
C        2.465297405   9.960790159   0.000000000
C        9.862188429   0.001101226   0.000000000
C        9.859988425   1.424033472   0.000000000
C        8.628540764   2.135010111   0.000000000
C        8.628540750   3.556963385   0.000000000
C        7.397345253   4.270334778   0.000000000
C        7.397684863   5.690819834   0.000000000
C        6.158051829   6.401645274   0.000000000
C        6.168589848   7.831457239   0.000000000
C        4.925067353   8.537236995   0.000000000
C        4.929290971   9.966203475  -0.000000000



     Writing output data file vacancia-vanadio.save/
     NEW-OLD atomic charge density approx. for the potential

     Check: negative core charge=   -0.000002

     negative rho (up, down):  6.969E-04 9.178E-03

     total cpu time spent up to now is     3188.3 secs

     Self-consistent Calculation

     iteration #  1     ecut=    70.00 Ry     beta= 0.70
     Davidson diagonalization with overlap
     ethr =  1.00E-06,  avg # of iterations = 11.5

     negative rho (up, down):  6.125E-04 3.578E-02

     total cpu time spent up to now is     3439.4 secs

     total energy              =    -822.69164432 Ry
     Harris-Foulkes estimate   =    -824.21405260 Ry
     estimated scf accuracy    <       1.79913227 Ry

     total magnetization       =     3.00 Bohr mag/cell
     absolute magnetization    =     4.24 Bohr mag/cell

     iteration #  2     ecut=    70.00 Ry     beta= 0.70
     Davidson diagonalization with overlap
     ethr =  8.53E-04,  avg # of iterations =  4.0

     negative rho (up, down):  6.560E-04 3.308E-02

     total cpu time spent up to now is     3574.5 secs

     total energy              =    -821.09118996 Ry
     Harris-Foulkes estimate   =    -830.17493958 Ry
     estimated scf accuracy    <      45.77388504 Ry

     total magnetization       =     1.00 Bohr mag/cell
     absolute magnetization    =     1.40 Bohr mag/cell

     iteration #  3     ecut=    70.00 Ry     beta= 0.70
     Davidson diagonalization with overlap
     ethr =  8.53E-04,  avg # of iterations =  6.0

     negative rho (up, down):  6.550E-04 3.120E-02

     total cpu time spent up to now is     3686.6 secs

     total energy              =    -823.72560998 Ry
     Harris-Foulkes estimate   =    -824.35341457 Ry
     estimated scf accuracy    <       3.33409297 Ry

     total magnetization       =     1.00 Bohr mag/cell
     absolute magnetization    =     2.26 Bohr mag/cell

     iteration #  4     ecut=    70.00 Ry     beta= 0.70
     Davidson diagonalization with overlap
     ethr =  8.53E-04,  avg # of iterations =  3.0

     negative rho (up, down):  6.613E-04 2.746E-02

     total cpu time spent up to now is     3778.0 secs

     total energy              =    -824.00412579 Ry
     Harris-Foulkes estimate   =    -824.04566125 Ry
     estimated scf accuracy    <       0.11223695 Ry

     total magnetization       =     3.00 Bohr mag/cell
     absolute magnetization    =     4.12 Bohr mag/cell

     iteration #  5     ecut=    70.00 Ry     beta= 0.70
     Davidson diagonalization with overlap
     ethr =  5.32E-05,  avg # of iterations =  6.0

     negative rho (up, down):  6.850E-04 2.341E-02

     total cpu time spent up to now is     3890.8 secs

     total energy              =    -824.03042553 Ry
     Harris-Foulkes estimate   =    -824.03466339 Ry
     estimated scf accuracy    <       0.03027336 Ry

     total magnetization       =     3.16 Bohr mag/cell
     absolute magnetization    =     4.15 Bohr mag/cell

     iteration #  6     ecut=    70.00 Ry     beta= 0.70
     Davidson diagonalization with overlap
     ethr =  1.43E-05,  avg # of iterations =  6.5

     negative rho (up, down):  7.164E-04 1.947E-02

     total cpu time spent up to now is     3991.9 secs

     total energy              =    -824.03684967 Ry
     Harris-Foulkes estimate   =    -824.03629638 Ry
     estimated scf accuracy    <       0.01095469 Ry

     total magnetization       =     3.00 Bohr mag/cell
     absolute magnetization    =     4.19 Bohr mag/cell

     iteration #  7     ecut=    70.00 Ry     beta= 0.70
     Davidson diagonalization with overlap
     ethr =  5.19E-06,  avg # of iterations =  5.5

     negative rho (up, down):  7.575E-04 1.510E-02

     total cpu time spent up to now is     4087.5 secs

     total energy              =    -824.03929100 Ry
     Harris-Foulkes estimate   =    -824.03862055 Ry
     estimated scf accuracy    <       0.00320066 Ry

     total magnetization       =     3.00 Bohr mag/cell
     absolute magnetization    =     4.24 Bohr mag/cell

     iteration #  8     ecut=    70.00 Ry     beta= 0.70
     Davidson diagonalization with overlap
     ethr =  1.52E-06,  avg # of iterations =  3.0

     negative rho (up, down):  7.606E-04 1.478E-02

     total cpu time spent up to now is     4193.8 secs

     total energy              =    -824.04023829 Ry
     Harris-Foulkes estimate   =    -824.04057050 Ry
     estimated scf accuracy    <       0.00116179 Ry

     total magnetization       =     3.00 Bohr mag/cell
     absolute magnetization    =     4.29 Bohr mag/cell

     iteration #  9     ecut=    70.00 Ry     beta= 0.70
     Davidson diagonalization with overlap
     ethr =  5.51E-07,  avg # of iterations =  3.0

     negative rho (up, down):  7.580E-04 1.498E-02

     total cpu time spent up to now is     4297.2 secs

     total energy              =    -824.04046790 Ry
     Harris-Foulkes estimate   =    -824.04053926 Ry
     estimated scf accuracy    <       0.00024169 Ry

     total magnetization       =     3.00 Bohr mag/cell
     absolute magnetization    =     4.29 Bohr mag/cell

     iteration # 10     ecut=    70.00 Ry     beta= 0.70
     Davidson diagonalization with overlap
     ethr =  1.15E-07,  avg # of iterations =  3.0

     negative rho (up, down):  7.582E-04 1.493E-02

     total cpu time spent up to now is     4399.4 secs

     total energy              =    -824.04051590 Ry
     Harris-Foulkes estimate   =    -824.04056219 Ry
     estimated scf accuracy    <       0.00020253 Ry

     total magnetization       =     3.00 Bohr mag/cell
     absolute magnetization    =     4.28 Bohr mag/cell

     iteration # 11     ecut=    70.00 Ry     beta= 0.70
     Davidson diagonalization with overlap
     ethr =  9.60E-08,  avg # of iterations =  3.0

     negative rho (up, down):  7.578E-04 1.492E-02

     total cpu time spent up to now is     4491.6 secs

     total energy              =    -824.04055602 Ry
     Harris-Foulkes estimate   =    -824.04055525 Ry
     estimated scf accuracy    <       0.00002203 Ry

     total magnetization       =     3.00 Bohr mag/cell
     absolute magnetization    =     4.28 Bohr mag/cell

     iteration # 12     ecut=    70.00 Ry     beta= 0.70
     Davidson diagonalization with overlap
     ethr =  1.04E-08,  avg # of iterations =  3.0

     negative rho (up, down):  7.572E-04 1.498E-02

     total cpu time spent up to now is     4599.3 secs

     total energy              =    -824.04056406 Ry
     Harris-Foulkes estimate   =    -824.04056539 Ry
     estimated scf accuracy    <       0.00000960 Ry

     total magnetization       =     3.00 Bohr mag/cell
     absolute magnetization    =     4.27 Bohr mag/cell

     iteration # 13     ecut=    70.00 Ry     beta= 0.70
     Davidson diagonalization with overlap
     ethr =  4.55E-09,  avg # of iterations =  3.0

     negative rho (up, down):  7.572E-04 1.498E-02

     total cpu time spent up to now is     4693.9 secs

     total energy              =    -824.04056649 Ry
     Harris-Foulkes estimate   =    -824.04056697 Ry
     estimated scf accuracy    <       0.00000418 Ry

     total magnetization       =     3.00 Bohr mag/cell
     absolute magnetization    =     4.27 Bohr mag/cell

     iteration # 14     ecut=    70.00 Ry     beta= 0.70
     Davidson diagonalization with overlap
     ethr =  1.98E-09,  avg # of iterations =  2.5

     negative rho (up, down):  7.571E-04 1.500E-02

     total cpu time spent up to now is     4789.0 secs

     total energy              =    -824.04056762 Ry
     Harris-Foulkes estimate   =    -824.04056749 Ry
     estimated scf accuracy    <       0.00000049 Ry

     total magnetization       =     3.00 Bohr mag/cell
     absolute magnetization    =     4.26 Bohr mag/cell

     iteration # 15     ecut=    70.00 Ry     beta= 0.70
     Davidson diagonalization with overlap
     ethr =  2.33E-10,  avg # of iterations =  3.0

     negative rho (up, down):  7.571E-04 1.500E-02

     total cpu time spent up to now is     4901.3 secs

     total energy              =    -824.04056789 Ry
     Harris-Foulkes estimate   =    -824.04056780 Ry
     estimated scf accuracy    <       0.00000010 Ry

     total magnetization       =     3.00 Bohr mag/cell
     absolute magnetization    =     4.26 Bohr mag/cell

     iteration # 16     ecut=    70.00 Ry     beta= 0.70
     Davidson diagonalization with overlap
     ethr =  4.55E-11,  avg # of iterations =  3.5

     negative rho (up, down):  7.571E-04 1.500E-02

     total cpu time spent up to now is     5023.8 secs

     total energy              =    -824.04056801 Ry
     Harris-Foulkes estimate   =    -824.04056798 Ry
     estimated scf accuracy    <       0.00000007 Ry

     total magnetization       =     3.00 Bohr mag/cell
     absolute magnetization    =     4.26 Bohr mag/cell

     iteration # 17     ecut=    70.00 Ry     beta= 0.70
     Davidson diagonalization with overlap
     ethr =  3.19E-11,  avg # of iterations =  3.0

     negative rho (up, down):  7.571E-04 1.500E-02

     total cpu time spent up to now is     5137.2 secs

     total energy              =    -824.04056806 Ry
     Harris-Foulkes estimate   =    -824.04056805 Ry
     estimated scf accuracy    <       0.00000001 Ry

     total magnetization       =     3.00 Bohr mag/cell
     absolute magnetization    =     4.25 Bohr mag/cell

     iteration # 18     ecut=    70.00 Ry     beta= 0.70
     Davidson diagonalization with overlap
     ethr =  5.10E-12,  avg # of iterations =  3.0

     negative rho (up, down):  7.571E-04 1.500E-02

     total cpu time spent up to now is     5258.0 secs

     total energy              =    -824.04056808 Ry
     Harris-Foulkes estimate   =    -824.04056807 Ry
     estimated scf accuracy    <          7.4E-09 Ry

     total magnetization       =     3.00 Bohr mag/cell
     absolute magnetization    =     4.25 Bohr mag/cell

     iteration # 19     ecut=    70.00 Ry     beta= 0.70
     Davidson diagonalization with overlap
     ethr =  3.51E-12,  avg # of iterations =  3.0

     negative rho (up, down):  7.571E-04 1.499E-02

     total cpu time spent up to now is     5378.4 secs

     total energy              =    -824.04056808 Ry
     Harris-Foulkes estimate   =    -824.04056808 Ry
     estimated scf accuracy    <          2.7E-09 Ry

     total magnetization       =     3.00 Bohr mag/cell
     absolute magnetization    =     4.25 Bohr mag/cell

     iteration # 20     ecut=    70.00 Ry     beta= 0.70
[...]
     atom   18 type  1   force =     0.50005978   -0.28870965   -0.00000000
     atom   19 type  1   force =     0.32524844   -0.18778227   -0.00000000
     atom   20 type  1   force =     0.05572813    0.03217496   -0.00000000
     atom   21 type  1   force =     0.22824689    0.13177868   -0.00000000
     atom   22 type  1   force =    -0.43605722    0.25315907   -0.00000000
     atom   23 type  1   force =    -0.18144121    1.23457402   -0.00000000
     atom   24 type  1   force =    -1.98920711    1.80376381   -0.00000000
     atom   25 type  1   force =    -0.00000180    6.24072465   -0.00000000
     atom   26 type  2   force =     0.00000387   -0.00000236   -0.00000000
     atom   27 type  1   force =     5.40462301   -3.12036055    0.00000000
     atom   28 type  1   force =     0.56749979   -2.62458776   -0.00000000
     atom   29 type  1   force =     0.97845367   -0.77442072    0.00000000
     atom   30 type  1   force =     0.00121428   -0.50421744   -0.00000000
     atom   31 type  1   force =    -0.00652940   -0.28585345   -0.00000000
     atom   32 type  1   force =    -0.12021694   -0.06940852   -0.00000000
     atom   33 type  1   force =    -0.25082194    0.13727344    0.00000000
     atom   34 type  1   force =    -0.81061408    0.46800825   -0.00000000
     atom   35 type  1   force =    -1.33164473    0.76882544   -0.00000000
     atom   36 type  1   force =    -2.55670884    0.82082198   -0.00000000
     atom   37 type  1   force =    -5.40462698   -3.12036077   -0.00000000
     atom   38 type  1   force =    -0.56750227   -2.62458644   -0.00000000
     atom   39 type  1   force =    -0.00000085   -1.53765049   -0.00000000
     atom   40 type  1   force =    -0.00000016   -0.93601818   -0.00000000
     atom   41 type  1   force =     0.00652893   -0.28585383   -0.00000000
     atom   42 type  1   force =     0.12021821   -0.06940802   -0.00000000
     atom   43 type  1   force =    -0.00000061    0.00000035    0.00000000
     atom   44 type  1   force =     0.00000107    0.13881519   -0.00000000
     atom   45 type  1   force =    -0.24429326    0.14858145   -0.00000000
     atom   46 type  1   force =    -0.43727080    0.25105710   -0.00000000
     atom   47 type  1   force =    -1.15989307   -0.46015431   -0.00000000
     atom   48 type  1   force =    -0.50006083   -0.28870973   -0.00000000
     atom   49 type  1   force =    -0.97845218   -0.77442005    0.00000000
     atom   50 type  1   force =    -0.00121443   -0.50421675   -0.00000000
     The core correction contribution to forces
     atom    1 type  1   force =    -0.00052770    0.00030467    0.00000000
     atom    2 type  1   force =     0.00017754   -0.00035217    0.00000000
     atom    3 type  1   force =    -0.00061316   -0.00023588    0.00000000
     atom    4 type  1   force =     0.00046514    0.00026855   -0.00000000
     atom    5 type  1   force =    -0.00051086   -0.00041307    0.00000000
     atom    6 type  1   force =    -0.00021622    0.00032984   -0.00000000
     atom    7 type  1   force =    -0.00000001   -0.00060935    0.00000000
     atom    8 type  1   force =    -0.00000000    0.00010295   -0.00000000
     atom    9 type  1   force =    -0.00023770   -0.00013724    0.00000000
     atom   10 type  1   force =     0.00008916   -0.00005147   -0.00000000
     atom   11 type  1   force =     0.00000000    0.00027448    0.00000000
     atom   12 type  1   force =    -0.00000000   -0.00076169    0.00000000
     atom   13 type  1   force =    -0.00102885    0.00005589   -0.00000000
     atom   14 type  1   force =    -0.00032050   -0.00129549   -0.00000000
     atom   15 type  1   force =    -0.00143918   -0.00083091    0.00000000
     atom   16 type  1   force =    -0.00128217    0.00037018    0.00000000
     atom   17 type  1   force =    -0.00046603   -0.00091896   -0.00000000
     atom   18 type  1   force =    -0.00065964    0.00038085    0.00000000
     atom   19 type  1   force =     0.00023771   -0.00013724    0.00000000
     atom   20 type  1   force =    -0.00008916   -0.00005147   -0.00000000
     atom   21 type  1   force =     0.00052771    0.00030468    0.00000000
     atom   22 type  1   force =    -0.00017754   -0.00035217    0.00000000
     atom   23 type  1   force =     0.00102885    0.00005589    0.00000000
     atom   24 type  1   force =     0.00032050   -0.00129548   -0.00000000
     atom   25 type  1   force =     0.00000000    0.00328457    0.00000000
     atom   26 type  2   force =     0.00000001   -0.00000001    0.00000000
     atom   27 type  1   force =     0.00284450   -0.00164228    0.00000000
     atom   28 type  1   force =    -0.00096167    0.00092530   -0.00000000
     atom   29 type  1   force =     0.00056283    0.00086307   -0.00000000
     atom   30 type  1   force =    -0.00039376    0.00002234    0.00000000
     atom   31 type  1   force =     0.00010230    0.00064895   -0.00000000
     atom   32 type  1   force =     0.00040942    0.00023638    0.00000000
     atom   33 type  1   force =     0.00061315   -0.00023588    0.00000000
     atom   34 type  1   force =    -0.00046513    0.00026855    0.00000000
     atom   35 type  1   force =     0.00143918   -0.00083091   -0.00000000
     atom   36 type  1   force =     0.00128217    0.00037018    0.00000000
     atom   37 type  1   force =    -0.00284452   -0.00164229    0.00000000
     atom   38 type  1   force =     0.00096168    0.00092530   -0.00000000
     atom   39 type  1   force =     0.00000000    0.00166183    0.00000000
     atom   40 type  1   force =     0.00000000   -0.00053710   -0.00000000
     atom   41 type  1   force =    -0.00010230    0.00064895    0.00000000
     atom   42 type  1   force =    -0.00040942    0.00023638    0.00000000
     atom   43 type  1   force =    -0.00000001    0.00000001   -0.00000000
     atom   44 type  1   force =     0.00000000   -0.00047276   -0.00000000
     atom   45 type  1   force =     0.00051085   -0.00041307    0.00000000
     atom   46 type  1   force =     0.00021622    0.00032984    0.00000000
     atom   47 type  1   force =     0.00046603   -0.00091896    0.00000000
     atom   48 type  1   force =     0.00065964    0.00038085    0.00000000
     atom   49 type  1   force =    -0.00056283    0.00086307    0.00000000
     atom   50 type  1   force =     0.00039376    0.00002233    0.00000000
     The Hubbard contrib.    to forces
     atom    1 type  1   force =     0.00000000    0.00000000    0.00000000
     atom    2 type  1   force =     0.00000000    0.00000000    0.00000000
     atom    3 type  1   force =     0.00000000    0.00000000    0.00000000
     atom    4 type  1   force =     0.00000000    0.00000000    0.00000000
     atom    5 type  1   force =     0.00000000    0.00000000    0.00000000
     atom    6 type  1   force =     0.00000000    0.00000000    0.00000000
     atom    7 type  1   force =     0.00000000    0.00000000    0.00000000
     atom    8 type  1   force =     0.00000000    0.00000000    0.00000000
     atom    9 type  1   force =     0.00000000    0.00000000    0.00000000
     atom   10 type  1   force =     0.00000000    0.00000000    0.00000000
     atom   11 type  1   force =     0.00000000    0.00000000    0.00000000
     atom   12 type  1   force =     0.00000000    0.00000000    0.00000000
     atom   13 type  1   force =     0.00000000    0.00000000    0.00000000
     atom   14 type  1   force =     0.00000000    0.00000000    0.00000000
     atom   15 type  1   force =     0.00000000    0.00000000    0.00000000
     atom   16 type  1   force =     0.00000000    0.00000000    0.00000000
     atom   17 type  1   force =     0.00000000    0.00000000    0.00000000
     atom   18 type  1   force =     0.00000000    0.00000000    0.00000000
     atom   19 type  1   force =     0.00000000    0.00000000    0.00000000
     atom   20 type  1   force =     0.00000000    0.00000000    0.00000000
     atom   21 type  1   force =     0.00000000    0.00000000    0.00000000
     atom   22 type  1   force =     0.00000000    0.00000000    0.00000000
     atom   23 type  1   force =     0.00000000    0.00000000    0.00000000
     atom   24 type  1   force =     0.00000000    0.00000000    0.00000000
     atom   25 type  1   force =     0.00000000    0.00000000    0.00000000
     atom   26 type  2   force =     0.00000000    0.00000000    0.00000000
     atom   27 type  1   force =     0.00000000    0.00000000    0.00000000
     atom   28 type  1   force =     0.00000000    0.00000000    0.00000000
     atom   29 type  1   force =     0.00000000    0.00000000    0.00000000
     atom   30 type  1   force =     0.00000000    0.00000000    0.00000000
     atom   31 type  1   force =     0.00000000    0.00000000    0.00000000
     atom   32 type  1   force =     0.00000000    0.00000000    0.00000000
     atom   33 type  1   force =     0.00000000    0.00000000    0.00000000
     atom   34 type  1   force =     0.00000000    0.00000000    0.00000000
     atom   35 type  1   force =     0.00000000    0.00000000    0.00000000
     atom   36 type  1   force =     0.00000000    0.00000000    0.00000000
     atom   37 type  1   force =     0.00000000    0.00000000    0.00000000
     atom   38 type  1   force =     0.00000000    0.00000000    0.00000000
     atom   39 type  1   force =     0.00000000    0.00000000    0.00000000
     atom   40 type  1   force =     0.00000000    0.00000000    0.00000000
     atom   41 type  1   force =     0.00000000    0.00000000    0.00000000
     atom   42 type  1   force =     0.00000000    0.00000000    0.00000000
     atom   43 type  1   force =     0.00000000    0.00000000    0.00000000
     atom   44 type  1   force =     0.00000000    0.00000000    0.00000000
     atom   45 type  1   force =     0.00000000    0.00000000    0.00000000
     atom   46 type  1   force =     0.00000000    0.00000000    0.00000000
     atom   47 type  1   force =     0.00000000    0.00000000    0.00000000
     atom   48 type  1   force =     0.00000000    0.00000000    0.00000000
     atom   49 type  1   force =     0.00000000    0.00000000    0.00000000
     atom   50 type  1   force =     0.00000000    0.00000000    0.00000000
     The SCF correction term to forces
     atom    1 type  1   force =    -0.00000006    0.00000003    0.00000000
     atom    2 type  1   force =     0.00000006    0.00000007    0.00000000
     atom    3 type  1   force =     0.00000012   -0.00000001    0.00000000
     atom    4 type  1   force =     0.00000018    0.00000007    0.00000000
     atom    5 type  1   force =     0.00000000    0.00000007   -0.00000000
     atom    6 type  1   force =    -0.00000001   -0.00000004    0.00000000
     atom    7 type  1   force =    -0.00000008   -0.00000010   -0.00000000
     atom    8 type  1   force =    -0.00000005   -0.00000006    0.00000000
     atom    9 type  1   force =    -0.00000013   -0.00000008    0.00000000
     atom   10 type  1   force =    -0.00000006    0.00000004    0.00000000
     atom   11 type  1   force =    -0.00000000    0.00000015    0.00000000
     atom   12 type  1   force =     0.00000003    0.00000021    0.00000000
     atom   13 type  1   force =     0.00000010    0.00000023    0.00000000
     atom   14 type  1   force =     0.00000023    0.00000031   -0.00000000
     atom   15 type  1   force =     0.00000037    0.00000011   -0.00000000
     atom   16 type  1   force =     0.00000036   -0.00000014    0.00000000
     atom   17 type  1   force =     0.00000015   -0.00000008    0.00000000
     atom   18 type  1   force =     0.00000006   -0.00000003    0.00000000
     atom   19 type  1   force =     0.00000005   -0.00000003    0.00000000
     atom   20 type  1   force =     0.00000003    0.00000007    0.00000000
     atom   21 type  1   force =     0.00000005    0.00000012    0.00000000
     atom   22 type  1   force =    -0.00000004    0.00000016    0.00000000
     atom   23 type  1   force =    -0.00000003    0.00000031    0.00000000
     atom   24 type  1   force =    -0.00000011    0.00000039    0.00000000
     atom   25 type  1   force =     0.00000013    0.00000053   -0.00000000
     atom   26 type  2   force =     0.00000079   -0.00000046    0.00000000
     atom   27 type  1   force =     0.00000055   -0.00000032   -0.00000000
     atom   28 type  1   force =     0.00000030   -0.00000024    0.00000000
     atom   29 type  1   force =     0.00000015   -0.00000008    0.00000000
     atom   30 type  1   force =     0.00000003    0.00000003    0.00000000
     atom   31 type  1   force =    -0.00000006   -0.00000004    0.00000000
     atom   32 type  1   force =    -0.00000008    0.00000004    0.00000000
     atom   33 type  1   force =    -0.00000016    0.00000009    0.00000000
     atom   34 type  1   force =    -0.00000026    0.00000015    0.00000000
     atom   35 type  1   force =    -0.00000035    0.00000020    0.00000000
     atom   36 type  1   force =    -0.00000039   -0.00000011    0.00000000
     atom   37 type  1   force =    -0.00000039   -0.00000037   -0.00000000
     atom   38 type  1   force =    -0.00000015   -0.00000036    0.00000000
     atom   39 type  1   force =     0.00000009   -0.00000038   -0.00000000
     atom   40 type  1   force =     0.00000003   -0.00000019    0.00000000
     atom   41 type  1   force =     0.00000007   -0.00000010    0.00000000
     atom   42 type  1   force =     0.00000003   -0.00000002    0.00000000
     atom   43 type  1   force =    -0.00000004    0.00000002    0.00000000
     atom   44 type  1   force =    -0.00000007    0.00000005    0.00000000
     atom   45 type  1   force =    -0.00000015    0.00000009   -0.00000000
     atom   46 type  1   force =    -0.00000016   -0.00000004    0.00000000
     atom   47 type  1   force =    -0.00000028   -0.00000013   -0.00000000
     atom   48 type  1   force =    -0.00000017   -0.00000013    0.00000000
     atom   49 type  1   force =    -0.00000015   -0.00000020    0.00000000
     atom   50 type  1   force =    -0.00000003   -0.00000008    0.00000000

     Total force =     0.001804     Total SCF correction =     0.000002

     bfgs converged in   9 scf cycles and   8 bfgs steps
     (criteria: energy <  1.0E-04 Ry, force <  1.0E-03 Ry/Bohr)

     End of BFGS Geometry Optimization

     Final energy   =    -824.1214471674 Ry
Begin final coordinates

ATOMIC_POSITIONS (angstrom)
C        0.003625847  -0.002093383   0.000000000
C       -0.021165336   1.401051654  -0.000000000
C       -1.243654806   2.125475069   0.000000000
C       -1.247398877   3.549834034  -0.000000000
C       -2.479057972   4.265255904   0.000000000
C       -2.495182531   5.686174548   0.000000000
C       -3.697946203   6.409216877   0.000000000
C       -3.697945987   7.830337149   0.000000000
C       -4.920149556   8.546070921   0.000000000
C       -4.928891312   9.962397170   0.000000000
C        2.465297452  -0.012060955  -0.000000000
C        2.465297456   1.394694674  -0.000000000
C        1.207429751   2.077257501  -0.000000000
C        1.183095671   3.477756409  -0.000000000
C       -0.030615807   4.252344204   0.000000000
C       -0.094573082   5.690742984  -0.000000000
C       -1.295273663   6.412066352  -0.000000000
C       -1.257456454   7.842693266   0.000000000
C       -2.475742473   8.546071026   0.000000000
C       -2.467000509   9.962397258  -0.000000000
C        4.926969015  -0.002093085   0.000000000
C        4.951760242   1.401051849  -0.000000000
C        3.723165132   2.077257663   0.000000000
C        3.747499072   3.477756622  -0.000000000
C        2.465297362   3.997446496   0.000000000
Mn       2.465296910   5.693360609   0.000000000
C        0.996591914   6.541317834   0.000000000
C        1.187628844   7.911581865   0.000000000
C       -0.037405808   8.590757386  -0.000000000
C       -0.008719499   9.992854851   0.000000000
C        7.393137797   0.014299229  -0.000000000
C        7.403275401   1.427602752  -0.000000000
C        6.174249729   2.125475217   0.000000000
C        6.177993733   3.549834099   0.000000000
C        4.961210560   4.252344191   0.000000000
C        5.025167328   5.690742957   0.000000000
C        3.934001840   6.541317273  -0.000000000
C        3.742965813   7.911581555   0.000000000
C        2.465297365   8.575392629  -0.000000000
C        2.465297484   9.980412764  -0.000000000
C        9.863943942   0.014299121  -0.000000000
C        9.853806357   1.427602691   0.000000000
C        8.628540836   2.135010069   0.000000000
C        8.628540826   3.549824721   0.000000000
C        7.409652707   4.265255942   0.000000000
C        7.425777003   5.686174578   0.000000000
C        6.225868034   6.412066247  -0.000000000
C        6.188051086   7.842693104   0.000000000
C        4.968000485   8.590757077  -0.000000000
C        4.939314382   9.992854557   0.000000000
End final coordinates



     Writing output data file vacancia-vanadio.save/

     init_run     :     74.08s CPU     77.35s WALL (       1 calls)
     electrons    :  18110.03s CPU  18414.64s WALL (       9 calls)
     update_pot   :    147.53s CPU    150.93s WALL (       8 calls)
     forces       :    489.64s CPU    500.63s WALL (       9 calls)

     Called by init_run:
     wfcinit      :     47.44s CPU     47.73s WALL (       1 calls)
     wfcinit:atom :      0.05s CPU      0.11s WALL (       2 calls)
     wfcinit:wfcr :     46.99s CPU     47.19s WALL (       2 calls)
     potinit      :     11.10s CPU     12.64s WALL (       1 calls)
     hinit0       :      5.98s CPU      6.10s WALL (       1 calls)

     Called by electrons:
     c_bands      :  12298.55s CPU  12370.91s WALL (     165 calls)
     sum_band     :   3376.39s CPU   3473.74s WALL (     165 calls)
     v_of_rho     :   1245.05s CPU   1301.98s WALL (     171 calls)
     v_h          :     12.93s CPU     13.36s WALL (     171 calls)
     v_xc         :   1295.84s CPU   1355.81s WALL (     180 calls)
     newd         :   1211.69s CPU   1297.00s WALL (     171 calls)
     mix_rho      :     68.24s CPU     69.42s WALL (     165 calls)

     Called by c_bands:
     init_us_2    :     30.73s CPU     30.79s WALL (     680 calls)
     cegterg      :  12213.54s CPU  12285.51s WALL (     330 calls)

     Called by sum_band:
     sum_band:bec :      0.27s CPU      0.28s WALL (     330 calls)
     addusdens    :   2054.32s CPU   2143.34s WALL (     165 calls)

     Called by *egterg:
     h_psi        :   6118.26s CPU   6166.26s WALL (    1422 calls)
     s_psi        :   2034.79s CPU   2036.46s WALL (    1422 calls)
     g_psi        :      7.48s CPU      7.51s WALL (    1090 calls)
     cdiaghg      :    113.91s CPU    114.01s WALL (    1398 calls)
     cegterg:over :   1677.57s CPU   1679.15s WALL (    1090 calls)
     cegterg:upda :   1089.41s CPU   1096.08s WALL (    1090 calls)
     cegterg:last :    666.57s CPU    666.99s WALL (     338 calls)

     Called by h_psi:
     h_psi:pot    :   6110.89s CPU   6151.01s WALL (    1422 calls)
     h_psi:calbec :   2038.40s CPU   2040.00s WALL (    1422 calls)
     vloc_psi     :   2037.20s CPU   2074.32s WALL (    1422 calls)
     add_vuspsi   :   2035.27s CPU   2036.69s WALL (    1422 calls)

     General routines
     calbec       :   2984.65s CPU   2987.02s WALL (    1824 calls)
     fft          :    730.62s CPU    754.32s WALL (   13406 calls)
     ffts         :     12.01s CPU     12.48s WALL (     672 calls)
     fftw         :   2122.03s CPU   2160.83s WALL (  260970 calls)
     interpolate  :     28.60s CPU     29.38s WALL (     342 calls)

     Parallel routines
     fft_scatt_xy :    509.84s CPU    516.87s WALL (  275048 calls)
     fft_scatt_yz :    952.03s CPU    996.80s WALL (  275048 calls)

     PWSCF        :      5h14m CPU      5h20m WALL


   This run was terminated on:  16:29:42  18Mar2023            

=------------------------------------------------------------------------------=
   JOB DONE.
=------------------------------------------------------------------------------=
