
     Program PWSCF v.6.4.1 starts on 20Jul2022 at 14:42:23 

     This program is part of the open-source Quantum ESPRESSO suite
     for quantum simulation of materials; please cite
         "P. Giannozzi et al., J. Phys.:Condens. Matter 21 395502 (2009);
         "P. Giannozzi et al., J. Phys.:Condens. Matter 29 465901 (2017);
          URL http://www.quantum-espresso.org", 
     in publications or presentations arising from this work. More details at
     http://www.quantum-espresso.org/quote

     Parallel version (MPI), running on     6 processors

     MPI processes distributed on     1 nodes
     R & G space division:  proc/nbgrp/npool/nimage =       6
     Reading input from distance-2.6.in

     Current dimensions of program PWSCF are:
     Max number of different atomic species (ntypx) = 10
     Max number of k-points (npk) =  40000
     Max angular momentum in pseudopotentials (lmaxx) =  3

     IMPORTANT: XC functional enforced from input :
     Exchange-correlation      = RVV10 ( 1  4 13  4 3 0)
     Any further DFT definition will be discarded
     Please, verify this is what you really want

               file H.pbe-rrkjus.UPF: wavefunction(s)  1S renormalized
               file Cr.pbe-spn-rrkjus_psl.1.0.0.UPF: wavefunction(s)  3P renormalized

     Subspace diagonalization in iterative solution of the eigenvalue problem:
     a serial algorithm will be used


     Parallelization info
     --------------------
     sticks:   dense  smooth     PW     G-vecs:    dense   smooth      PW
     Min        3051    1746    432               270999   117096   14629
     Max        3053    1747    437               271001   117099   14630
     Sum       18313   10477   2611              1626001   702581   87777



     bravais-lattice index     =            4
     lattice parameter (alat)  =      23.2937  a.u.
     unit-cell volume          =    8879.8548 (a.u.)^3
     number of atoms/cell      =           52
     number of atomic types    =            3
     number of electrons       =       212.00
     number of Kohn-Sham states=          127
     kinetic-energy cutoff     =      70.0000  Ry
     charge density cutoff     =     490.0000  Ry
     convergence threshold     =      1.0E-06
     mixing beta               =       0.7000
     number of iterations used =            8  plain     mixing
     Exchange-correlation      = RVV10 ( 1  4 13  4 3 0)

     celldm(1)=  23.293684  celldm(2)=   0.000000  celldm(3)=   0.811261
     celldm(4)=   0.000000  celldm(5)=   0.000000  celldm(6)=   0.000000

     crystal axes: (cart. coord. in units of alat)
               a(1) = (   1.000000   0.000000   0.000000 )  
               a(2) = (  -0.500000   0.866025   0.000000 )  
               a(3) = (   0.000000   0.000000   0.811261 )  

     reciprocal axes: (cart. coord. in units 2 pi/alat)
               b(1) = (  1.000000  0.577350 -0.000000 )  
               b(2) = (  0.000000  1.154701  0.000000 )  
               b(3) = (  0.000000 -0.000000  1.232649 )  


     PseudoPot. # 1 for H  read from file:
     /home/cristian/Escritorio/Proyecto_Grafeno/pseudopotenciales/H.pbe-rrkjus.UPF
     MD5 check sum: 7cc9d459525c9a0585f487a71c3c9563
     Pseudo is Ultrasoft, Zval =  1.0
     Generated by new atomic code, or converted to UPF format
     Using radial grid of 1061 points,  2 beta functions with: 
                l(1) =   0
                l(2) =   0
     Q(r) pseudized with 0 coefficients 


     PseudoPot. # 2 for C  read from file:
     /home/cristian/Escritorio/Proyecto_Grafeno/pseudopotenciales/C.pbe-n-rrkjus_psl.1.0.0.UPF
     MD5 check sum: 1fdd950c42eb37d8afe3dd2f8d12311e
     Pseudo is Ultrasoft + core correction, Zval =  4.0
     Generated using "atomic" code by A. Dal Corso v.6.3MaX
     Using radial grid of 1073 points,  4 beta functions with: 
                l(1) =   0
                l(2) =   0
                l(3) =   1
                l(4) =   1
     Q(r) pseudized with 0 coefficients 


     PseudoPot. # 3 for Cr read from file:
     /home/cristian/Escritorio/Proyecto_Grafeno/pseudopotenciales/Cr.pbe-spn-rrkjus_psl.1.0.0.UPF
     MD5 check sum: 793d051e4f89dd1e3290b85340a92c0a
     Pseudo is Ultrasoft + core correction, Zval = 14.0
     Generated using "atomic" code by A. Dal Corso v.6.2.2
     Using radial grid of 1183 points,  6 beta functions with: 
                l(1) =   0
                l(2) =   0
                l(3) =   1
                l(4) =   1
                l(5) =   2
                l(6) =   2
     Q(r) pseudized with 0 coefficients 


     vdW kernel table read from file rVV10_kernel_table
     MD5 check sum: b8e2538accc0c0b3206b45ba4daaba6c

     atomic species   valence    mass     pseudopotential
        H              1.00     1.00794     H ( 1.00)
        C              4.00    12.01070     C ( 1.00)
        Cr            14.00    51.99610     Cr( 1.00)

      2 Sym. Ops. (no inversion) found


                                    s                        frac. trans.

      isym =  1     identity                                     

 cryst.   s( 1) = (     1          0          0      )
                  (     0          1          0      )
                  (     0          0          1      )

 cart.    s( 1) = (  1.0000000  0.0000000  0.0000000 )
                  (  0.0000000  1.0000000  0.0000000 )
                  (  0.0000000  0.0000000  1.0000000 )


      isym =  2     inv. 180 deg rotation - cryst. axis [1,1,0]  

 cryst.   s( 2) = (     0         -1          0      )
                  (    -1          0          0      )
                  (     0          0          1      )

 cart.    s( 2) = (  0.5000000 -0.8660254  0.0000000 )
                  ( -0.8660254 -0.5000000  0.0000000 )
                  (  0.0000000  0.0000000  1.0000000 )


     point group C_s (m)    
     there are  2 classes
     the character table:

       E     s    
A'     1.00  1.00
A''    1.00 -1.00

     the symmetry operations in each class and the name of the first element:

     E        1
          identity                                               
     s        2
          inv. 180 deg rotation - cryst. axis [1,1,0]            

   Cartesian axes

     site n.     atom                  positions (alat units)
         1           H   tau(   1) = (   0.2500000   0.4330127   0.2109279  )
         2           H   tau(   2) = (   0.2500000   0.4330127   0.2719406  )
         3           C   tau(   3) = (   0.0000000   0.0000000   0.0000000  )
         4           C   tau(   4) = (   0.0000000   0.1154701   0.0000000  )
         5           C   tau(   5) = (  -0.1000000   0.1732051   0.0000000  )
         6           C   tau(   6) = (  -0.1000000   0.2886751   0.0000000  )
         7           C   tau(   7) = (  -0.2000000   0.3464102   0.0000000  )
         8           C   tau(   8) = (  -0.2000000   0.4618802   0.0000000  )
         9           C   tau(   9) = (  -0.3000000   0.5196152   0.0000000  )
        10           C   tau(  10) = (  -0.3000000   0.6350853   0.0000000  )
        11           C   tau(  11) = (  -0.4000000   0.6928203   0.0000000  )
        12           C   tau(  12) = (  -0.4000000   0.8082904   0.0000000  )
        13           C   tau(  13) = (   0.2000000   0.0000000   0.0000000  )
        14           C   tau(  14) = (   0.2000000   0.1154701   0.0000000  )
        15           C   tau(  15) = (   0.1000000   0.1732051   0.0000000  )
        16           C   tau(  16) = (   0.1000000   0.2886751   0.0000000  )
        17           C   tau(  17) = (   0.0000000   0.3464102   0.0000000  )
        18           C   tau(  18) = (   0.0000000   0.4618802   0.0000000  )
        19           C   tau(  19) = (  -0.1000000   0.5196152   0.0000000  )
        20           C   tau(  20) = (  -0.1000000   0.6350853   0.0000000  )
        21           C   tau(  21) = (  -0.2000000   0.6928203   0.0000000  )
        22           C   tau(  22) = (  -0.2000000   0.8082904   0.0000000  )
        23           C   tau(  23) = (   0.4000000   0.0000000   0.0000000  )
        24           C   tau(  24) = (   0.4000000   0.1154701   0.0000000  )
        25           C   tau(  25) = (   0.3000000   0.1732051   0.0000000  )
        26           C   tau(  26) = (   0.3000000   0.2886751   0.0000000  )
        27           C   tau(  27) = (   0.2000000   0.3464102   0.0000000  )
        28           Cr  tau(  28) = (   0.2000000   0.4618802   0.0000000  )
        29           C   tau(  29) = (   0.1000000   0.5196152   0.0000000  )
        30           C   tau(  30) = (   0.1000000   0.6350853   0.0000000  )
        31           C   tau(  31) = (   0.0000000   0.6928203   0.0000000  )
        32           C   tau(  32) = (   0.0000000   0.8082904   0.0000000  )
        33           C   tau(  33) = (   0.6000000   0.0000000   0.0000000  )
        34           C   tau(  34) = (   0.6000000   0.1154701   0.0000000  )
        35           C   tau(  35) = (   0.5000000   0.1732051   0.0000000  )
        36           C   tau(  36) = (   0.5000000   0.2886751   0.0000000  )
        37           C   tau(  37) = (   0.4000000   0.3464102   0.0000000  )
        38           C   tau(  38) = (   0.4000000   0.4618802   0.0000000  )
        39           C   tau(  39) = (   0.3000000   0.5196152   0.0000000  )
        40           C   tau(  40) = (   0.3000000   0.6350853   0.0000000  )
        41           C   tau(  41) = (   0.2000000   0.6928203   0.0000000  )
        42           C   tau(  42) = (   0.2000000   0.8082904   0.0000000  )
        43           C   tau(  43) = (   0.8000000   0.0000000   0.0000000  )
        44           C   tau(  44) = (   0.8000000   0.1154701   0.0000000  )
        45           C   tau(  45) = (   0.7000000   0.1732051   0.0000000  )
        46           C   tau(  46) = (   0.7000000   0.2886751   0.0000000  )
        47           C   tau(  47) = (   0.6000000   0.3464102   0.0000000  )
        48           C   tau(  48) = (   0.6000000   0.4618802   0.0000000  )
        49           C   tau(  49) = (   0.5000000   0.5196152   0.0000000  )
        50           C   tau(  50) = (   0.5000000   0.6350853   0.0000000  )
        51           C   tau(  51) = (   0.4000000   0.6928203   0.0000000  )
        52           C   tau(  52) = (   0.4000000   0.8082904   0.0000000  )

   Crystallographic axes

     site n.     atom                  positions (cryst. coord.)
         1           H   tau(   1) = (  0.5000000  0.5000000  0.2600000  )
         2           H   tau(   2) = (  0.5000000  0.5000000  0.3352072  )
         3           C   tau(   3) = (  0.0000000  0.0000000  0.0000000  )
         4           C   tau(   4) = (  0.0666667  0.1333333  0.0000000  )
         5           C   tau(   5) = (  0.0000000  0.2000000  0.0000000  )
         6           C   tau(   6) = (  0.0666667  0.3333333  0.0000000  )
         7           C   tau(   7) = (  0.0000000  0.4000000  0.0000000  )
         8           C   tau(   8) = (  0.0666667  0.5333333  0.0000000  )
         9           C   tau(   9) = (  0.0000000  0.6000000  0.0000000  )
        10           C   tau(  10) = (  0.0666667  0.7333333  0.0000000  )
        11           C   tau(  11) = (  0.0000000  0.8000000  0.0000000  )
        12           C   tau(  12) = (  0.0666667  0.9333333  0.0000000  )
        13           C   tau(  13) = (  0.2000000  0.0000000  0.0000000  )
        14           C   tau(  14) = (  0.2666667  0.1333333  0.0000000  )
        15           C   tau(  15) = (  0.2000000  0.2000000  0.0000000  )
        16           C   tau(  16) = (  0.2666667  0.3333333  0.0000000  )
        17           C   tau(  17) = (  0.2000000  0.4000000  0.0000000  )
        18           C   tau(  18) = (  0.2666667  0.5333333  0.0000000  )
        19           C   tau(  19) = (  0.2000000  0.6000000  0.0000000  )
        20           C   tau(  20) = (  0.2666667  0.7333333  0.0000000  )
        21           C   tau(  21) = (  0.2000000  0.8000000  0.0000000  )
        22           C   tau(  22) = (  0.2666667  0.9333333  0.0000000  )
        23           C   tau(  23) = (  0.4000000  0.0000000  0.0000000  )
        24           C   tau(  24) = (  0.4666667  0.1333333  0.0000000  )
        25           C   tau(  25) = (  0.4000000  0.2000000  0.0000000  )
        26           C   tau(  26) = (  0.4666667  0.3333333  0.0000000  )
        27           C   tau(  27) = (  0.4000000  0.4000000  0.0000000  )
        28           Cr  tau(  28) = (  0.4666667  0.5333333  0.0000000  )
        29           C   tau(  29) = (  0.4000000  0.6000000  0.0000000  )
        30           C   tau(  30) = (  0.4666667  0.7333333  0.0000000  )
        31           C   tau(  31) = (  0.4000000  0.8000000  0.0000000  )
        32           C   tau(  32) = (  0.4666667  0.9333333  0.0000000  )
        33           C   tau(  33) = (  0.6000000  0.0000000  0.0000000  )
        34           C   tau(  34) = (  0.6666667  0.1333333  0.0000000  )
        35           C   tau(  35) = (  0.6000000  0.2000000  0.0000000  )
        36           C   tau(  36) = (  0.6666667  0.3333333  0.0000000  )
        37           C   tau(  37) = (  0.6000000  0.4000000  0.0000000  )
        38           C   tau(  38) = (  0.6666667  0.5333333  0.0000000  )
        39           C   tau(  39) = (  0.6000000  0.6000000  0.0000000  )
        40           C   tau(  40) = (  0.6666667  0.7333333  0.0000000  )
        41           C   tau(  41) = (  0.6000000  0.8000000  0.0000000  )
        42           C   tau(  42) = (  0.6666667  0.9333333  0.0000000  )
        43           C   tau(  43) = (  0.8000000  0.0000000  0.0000000  )
        44           C   tau(  44) = (  0.8666667  0.1333333  0.0000000  )
        45           C   tau(  45) = (  0.8000000  0.2000000  0.0000000  )
        46           C   tau(  46) = (  0.8666667  0.3333333  0.0000000  )
        47           C   tau(  47) = (  0.8000000  0.4000000  0.0000000  )
        48           C   tau(  48) = (  0.8666667  0.5333333  0.0000000  )
        49           C   tau(  49) = (  0.8000000  0.6000000  0.0000000  )
        50           C   tau(  50) = (  0.8666667  0.7333333  0.0000000  )
        51           C   tau(  51) = (  0.8000000  0.8000000  0.0000000  )
        52           C   tau(  52) = (  0.8666667  0.9333333  0.0000000  )

     number of k points=     1  Marzari-Vanderbilt smearing, width (Ry)=  0.0010
                       cart. coord. in units 2pi/alat
        k(    1) = (   0.0000000   0.0000000   0.0000000), wk =   2.0000000

                       cryst. coord.
        k(    1) = (   0.0000000   0.0000000   0.0000000), wk =   2.0000000

     Dense  grid:  1626001 G-vectors     FFT dimensions: ( 180, 180, 135)

     Smooth grid:   702581 G-vectors     FFT dimensions: ( 125, 125, 108)

     Dynamical RAM for                 wfc:      28.36 MB

     Dynamical RAM for     wfc (w. buffer):      28.36 MB

     Dynamical RAM for           str. fact:      12.41 MB

     Dynamical RAM for           local pot:       0.00 MB

     Dynamical RAM for          nlocal pot:      92.46 MB

     Dynamical RAM for                qrad:      19.73 MB

     Dynamical RAM for          rho,v,vnew:      29.46 MB

     Dynamical RAM for               rhoin:       9.82 MB

     Dynamical RAM for            rho*nmix:      66.16 MB

     Dynamical RAM for           G-vectors:      16.40 MB

     Dynamical RAM for          h,s,v(r/c):      11.81 MB

     Dynamical RAM for          <psi|beta>:       0.80 MB

     Dynamical RAM for                 psi:     113.46 MB

     Dynamical RAM for                hpsi:     113.46 MB

     Dynamical RAM for                spsi:     113.46 MB

     Dynamical RAM for      wfcinit/wfcrot:      93.90 MB

     Dynamical RAM for           addusdens:     971.75 MB

     Estimated static dynamical RAM per process >     319.78 MB

     Estimated max dynamical RAM per process >       1.26 GB

     Estimated total dynamical RAM >       7.57 GB

     Check: negative core charge=   -0.000002

     Initial potential from superposition of free atoms

     starting charge  211.80478, renormalised to  212.00000

     negative rho (up, down):  5.091E-04 0.000E+00


---------------------------------------------------------------------------------
Carrying out rVV10 run using the following parameters:
Nqs =      20    Nr_points =    1024   r_max =   100.000
b_value =  6.30000    beta =  0.00901
     q_mesh =  0.00010000  0.00030000  0.00058939  0.00100810
               0.00161396  0.00249058  0.00375900  0.00559430
               0.00824984  0.01209221  0.01765183  0.02569619
               0.03733578  0.05417739  0.07854596  0.11380545
               0.16482331  0.23864234  0.34545298  0.50000000

Gradients computed in Reciprocal space

---------------------------------------------------------------------------------


     Starting wfcs are  208 randomized atomic wfcs

     total cpu time spent up to now is       54.4 secs

     Self-consistent Calculation

     iteration #  1     ecut=    70.00 Ry     beta= 0.70
     Davidson diagonalization with overlap
     ethr =  1.00E-02,  avg # of iterations =  2.0

     negative rho (up, down):  8.778E-04 0.000E+00

     total cpu time spent up to now is      119.2 secs

     total energy              =    -783.58881409 Ry
     Harris-Foulkes estimate   =    -790.02146257 Ry
     estimated scf accuracy    <       9.26990376 Ry

     iteration #  2     ecut=    70.00 Ry     beta= 0.70
     Davidson diagonalization with overlap
     ethr =  4.37E-03,  avg # of iterations =  7.0

     negative rho (up, down):  9.740E-04 0.000E+00

     total cpu time spent up to now is      183.7 secs

     total energy              =    -777.06812985 Ry
     Harris-Foulkes estimate   =    -797.39153130 Ry
     estimated scf accuracy    <      75.87987000 Ry

     iteration #  3     ecut=    70.00 Ry     beta= 0.70
     Davidson diagonalization with overlap
     ethr =  4.37E-03,  avg # of iterations =  5.0

     negative rho (up, down):  1.125E-03 0.000E+00

     total cpu time spent up to now is      275.6 secs

     total energy              =    -785.64976615 Ry
     Harris-Foulkes estimate   =    -787.85907572 Ry
     estimated scf accuracy    <       9.51089618 Ry

     iteration #  4     ecut=    70.00 Ry     beta= 0.70
     Davidson diagonalization with overlap
     ethr =  4.37E-03,  avg # of iterations =  3.0

     negative rho (up, down):  1.520E-03 0.000E+00

     total cpu time spent up to now is      325.4 secs

     total energy              =    -786.73424306 Ry
     Harris-Foulkes estimate   =    -787.38417573 Ry
     estimated scf accuracy    <       2.15953794 Ry

     iteration #  5     ecut=    70.00 Ry     beta= 0.70
     Davidson diagonalization with overlap
     ethr =  1.02E-03,  avg # of iterations =  3.0

     negative rho (up, down):  1.801E-03 0.000E+00

     total cpu time spent up to now is      376.7 secs

     total energy              =    -786.92097117 Ry
     Harris-Foulkes estimate   =    -787.02077331 Ry
     estimated scf accuracy    <       0.39211965 Ry

     iteration #  6     ecut=    70.00 Ry     beta= 0.70
     Davidson diagonalization with overlap
     ethr =  1.85E-04,  avg # of iterations =  7.0

     negative rho (up, down):  1.887E-03 0.000E+00

     total cpu time spent up to now is      428.6 secs

     total energy              =    -786.93871370 Ry
     Harris-Foulkes estimate   =    -786.98929124 Ry
     estimated scf accuracy    <       0.24238539 Ry

     iteration #  7     ecut=    70.00 Ry     beta= 0.70
     Davidson diagonalization with overlap
     ethr =  1.14E-04,  avg # of iterations = 10.0

     negative rho (up, down):  2.103E-03 0.000E+00

     total cpu time spent up to now is      478.9 secs

     total energy              =    -786.93651219 Ry
     Harris-Foulkes estimate   =    -786.96413498 Ry
     estimated scf accuracy    <       0.12226504 Ry

     iteration #  8     ecut=    70.00 Ry     beta= 0.70
     Davidson diagonalization with overlap
     ethr =  5.77E-05,  avg # of iterations =  3.0

     negative rho (up, down):  2.551E-03 0.000E+00

     total cpu time spent up to now is      527.9 secs

     total energy              =    -786.94382009 Ry
     Harris-Foulkes estimate   =    -786.95559163 Ry
     estimated scf accuracy    <       0.07541355 Ry

     iteration #  9     ecut=    70.00 Ry     beta= 0.70
     Davidson diagonalization with overlap
     ethr =  3.56E-05,  avg # of iterations =  3.0

     negative rho (up, down):  2.787E-03 0.000E+00

     total cpu time spent up to now is      576.6 secs

     total energy              =    -786.94653797 Ry
     Harris-Foulkes estimate   =    -786.94936294 Ry
     estimated scf accuracy    <       0.01238494 Ry

     iteration # 10     ecut=    70.00 Ry     beta= 0.70
     Davidson diagonalization with overlap
     ethr =  5.84E-06,  avg # of iterations =  5.0

     negative rho (up, down):  2.733E-03 0.000E+00

     total cpu time spent up to now is      631.5 secs

     total energy              =    -786.94743379 Ry
     Harris-Foulkes estimate   =    -786.94940174 Ry
     estimated scf accuracy    <       0.02563142 Ry

     iteration # 11     ecut=    70.00 Ry     beta= 0.70
     Davidson diagonalization with overlap
     ethr =  5.84E-06,  avg # of iterations =  1.0

     negative rho (up, down):  2.712E-03 0.000E+00

     total cpu time spent up to now is      679.7 secs

     total energy              =    -786.94823898 Ry
     Harris-Foulkes estimate   =    -786.94884790 Ry
     estimated scf accuracy    <       0.01222618 Ry

     iteration # 12     ecut=    70.00 Ry     beta= 0.70
     Davidson diagonalization with overlap
     ethr =  5.77E-06,  avg # of iterations =  1.0

     negative rho (up, down):  2.748E-03 0.000E+00

     total cpu time spent up to now is      727.9 secs

     total energy              =    -786.94860404 Ry
     Harris-Foulkes estimate   =    -786.94870559 Ry
     estimated scf accuracy    <       0.00288731 Ry

     iteration # 13     ecut=    70.00 Ry     beta= 0.70
     Davidson diagonalization with overlap
     ethr =  1.36E-06,  avg # of iterations =  1.0

     negative rho (up, down):  2.741E-03 0.000E+00

     total cpu time spent up to now is      776.0 secs

     total energy              =    -786.94865146 Ry
     Harris-Foulkes estimate   =    -786.94867555 Ry
     estimated scf accuracy    <       0.00026966 Ry

     iteration # 14     ecut=    70.00 Ry     beta= 0.70
     Davidson diagonalization with overlap
     ethr =  1.27E-07,  avg # of iterations =  2.0

     negative rho (up, down):  2.757E-03 0.000E+00

     total cpu time spent up to now is      824.8 secs

     total energy              =    -786.94867824 Ry
     Harris-Foulkes estimate   =    -786.94867814 Ry
     estimated scf accuracy    <       0.00005131 Ry

     iteration # 15     ecut=    70.00 Ry     beta= 0.70
     Davidson diagonalization with overlap
     ethr =  2.42E-08,  avg # of iterations =  3.0

     negative rho (up, down):  2.763E-03 0.000E+00

     total cpu time spent up to now is      876.9 secs

     total energy              =    -786.94868906 Ry
     Harris-Foulkes estimate   =    -786.94869112 Ry
     estimated scf accuracy    <       0.00012800 Ry

     iteration # 16     ecut=    70.00 Ry     beta= 0.70
     Davidson diagonalization with overlap
     ethr =  2.42E-08,  avg # of iterations =  2.0

     negative rho (up, down):  2.764E-03 0.000E+00

     total cpu time spent up to now is      925.9 secs

     total energy              =    -786.94870036 Ry
     Harris-Foulkes estimate   =    -786.94869454 Ry
     estimated scf accuracy    <       0.00000608 Ry

     iteration # 17     ecut=    70.00 Ry     beta= 0.70
     Davidson diagonalization with overlap
     ethr =  2.87E-09,  avg # of iterations =  4.0

     negative rho (up, down):  2.766E-03 0.000E+00

     total cpu time spent up to now is      983.3 secs

     total energy              =    -786.94870765 Ry
     Harris-Foulkes estimate   =    -786.94870757 Ry
     estimated scf accuracy    <       0.00000782 Ry

     iteration # 18     ecut=    70.00 Ry     beta= 0.70
     Davidson diagonalization with overlap
     ethr =  2.87E-09,  avg # of iterations =  4.0

     negative rho (up, down):  2.769E-03 0.000E+00

     total cpu time spent up to now is     1040.2 secs

     total energy              =    -786.94871960 Ry
     Harris-Foulkes estimate   =    -786.94871917 Ry
     estimated scf accuracy    <       0.00000422 Ry

     iteration # 19     ecut=    70.00 Ry     beta= 0.70
     Davidson diagonalization with overlap
     ethr =  1.99E-09,  avg # of iterations =  3.0

     negative rho (up, down):  2.770E-03 0.000E+00

     total cpu time spent up to now is     1095.2 secs

     total energy              =    -786.94871974 Ry
     Harris-Foulkes estimate   =    -786.94872328 Ry
     estimated scf accuracy    <       0.00000152 Ry

     iteration # 20     ecut=    70.00 Ry     beta= 0.70
     Davidson diagonalization with overlap
     ethr =  7.17E-10,  avg # of iterations =  4.0

     negative rho (up, down):  2.772E-03 0.000E+00

     total cpu time spent up to now is     1158.1 secs

     total energy              =    -786.94872420 Ry
     Harris-Foulkes estimate   =    -786.94872834 Ry
     estimated scf accuracy    <       0.00000350 Ry

     iteration # 21     ecut=    70.00 Ry     beta= 0.70
     Davidson diagonalization with overlap
     ethr =  7.17E-10,  avg # of iterations =  4.0

     negative rho (up, down):  2.778E-03 0.000E+00

     total cpu time spent up to now is     1218.1 secs

     End of self-consistent calculation

          k = 0.0000 0.0000 0.0000 ( 87777 PWs)   bands (ev):

   -71.8282 -44.1243 -44.1236 -43.0089 -19.6265 -18.7874 -18.7874 -18.6955
   -18.6948 -18.6947 -18.3220 -16.9401 -16.9401 -16.9351 -16.8290 -16.8289
   -16.5284 -16.0868 -16.0864 -15.9871 -15.9053 -15.9052 -15.1918 -13.9494
   -13.9482 -13.9062 -13.8570 -13.8567 -13.1933 -12.9312 -12.9310 -12.9019
   -12.5767 -12.5763 -12.1387 -11.6912 -11.6908 -11.5268 -11.2203 -11.2200
   -10.2549  -9.4703  -9.4701  -9.3113  -9.1784  -9.1784  -9.0864  -9.0550
    -9.0549  -9.0438  -8.5280  -8.5279  -7.9837  -7.9832  -7.8863  -7.8042
    -7.6960  -7.3298  -7.2759  -7.2714  -7.0230  -6.9868  -6.9593  -6.6938
    -6.6938  -6.6810  -6.6796  -6.6523  -6.5870  -6.4246  -6.4238  -6.3963
    -6.3913  -6.3911  -6.3429  -6.3132  -5.3861  -5.3777  -5.3151  -5.3150
    -5.0507  -5.0505  -4.8487  -4.7547  -4.6003  -4.5773  -4.5769  -4.2541
    -4.2384  -4.0289  -4.0280  -3.7109  -3.7109  -3.6298  -3.5312  -3.5310
    -3.4623  -3.4617  -2.9860  -2.4247  -2.4242  -1.7112  -1.6679  -1.6676
    -0.7047  -0.5295  -0.5294  -0.4444   1.0735   1.0930   1.0949   1.7799
     1.8778   1.8787   2.4069   2.9314   2.9337   2.9945   3.3718   3.3887
     3.4750   3.6531   3.6615   3.7081   3.8024   3.8086   3.8626

     occupation numbers 
     1.0000   1.0000   1.0000   1.0000   1.0000   1.0000   1.0000   1.0000
     1.0000   1.0000   1.0000   1.0000   1.0000   1.0000   1.0000   1.0000
     1.0000   1.0000   1.0000   1.0000   1.0000   1.0000   1.0000   1.0000
     1.0000   1.0000   1.0000   1.0000   1.0000   1.0000   1.0000   1.0000
     1.0000   1.0000   1.0000   1.0000   1.0000   1.0000   1.0000   1.0000
     1.0000   1.0000   1.0000   1.0000   1.0000   1.0000   1.0000   1.0000
     1.0000   1.0000   1.0000   1.0000   1.0000   1.0000   1.0000   1.0000
     1.0000   1.0000   1.0000   1.0000   1.0000   1.0000   1.0000   1.0000
     1.0000   1.0000   1.0000   1.0000   1.0000   1.0000   1.0000   1.0000
     1.0000   1.0000   1.0000   1.0000   1.0000   1.0000   1.0000   1.0000
     1.0000   1.0000   1.0000   1.0000   1.0000   1.0000   1.0000   1.0000
     1.0000   1.0000   1.0000   1.0000   1.0000   1.0000   1.0000   1.0000
     1.0000   1.0000   1.0000   1.0000   1.0000   1.0000   1.0000   1.0000
     1.0000   0.5026   0.4974   0.0000   0.0000   0.0000   0.0000   0.0000
     0.0000   0.0000   0.0000   0.0000   0.0000   0.0000   0.0000   0.0000
     0.0000   0.0000   0.0000   0.0000   0.0000   0.0000   0.0000

     the Fermi energy is    -0.5276 ev

!    total energy              =    -786.94873006 Ry
     Harris-Foulkes estimate   =    -786.94873065 Ry
     estimated scf accuracy    <       0.00000020 Ry

     The total energy is the sum of the following terms:

     one-electron contribution =   -2649.93855878 Ry
     hartree contribution      =    1370.67741340 Ry
     xc contribution           =    -254.34172924 Ry
     ewald contribution        =     746.65480091 Ry
     smearing contrib. (-TS)   =      -0.00065635 Ry

     convergence has been achieved in  21 iterations

     Writing output data file gr-12-bridge2.save/

     init_run     :     52.05s CPU     53.28s WALL (       1 calls)
     electrons    :   1129.90s CPU   1163.84s WALL (       1 calls)

     Called by init_run:
     wfcinit      :     20.79s CPU     20.97s WALL (       1 calls)
     wfcinit:atom :      0.03s CPU      0.04s WALL (       1 calls)
     wfcinit:wfcr :     20.60s CPU     20.73s WALL (       1 calls)
     potinit      :     13.82s CPU     14.22s WALL (       1 calls)
     hinit0       :     12.59s CPU     12.63s WALL (       1 calls)

     Called by electrons:
     c_bands      :    702.73s CPU    707.10s WALL (      21 calls)
     sum_band     :    210.62s CPU    222.10s WALL (      21 calls)
     v_of_rho     :    132.89s CPU    140.73s WALL (      22 calls)
     v_h          :      1.52s CPU      1.56s WALL (      22 calls)
     v_xc         :    131.38s CPU    139.17s WALL (      22 calls)
     newd         :     87.61s CPU     98.61s WALL (      22 calls)
     mix_rho      :      4.05s CPU      4.14s WALL (      21 calls)

     Called by c_bands:
     init_us_2    :      1.85s CPU      1.89s WALL (      43 calls)
     cegterg      :    698.07s CPU    702.43s WALL (      21 calls)

     Called by sum_band:
     sum_band:bec :      0.02s CPU      0.02s WALL (      21 calls)
     addusdens    :    128.93s CPU    139.71s WALL (      21 calls)

     Called by *egterg:
     h_psi        :    362.84s CPU    365.79s WALL (      99 calls)
     s_psi        :    121.64s CPU    121.78s WALL (      99 calls)
     g_psi        :      0.39s CPU      0.39s WALL (      77 calls)
     cdiaghg      :      7.03s CPU      7.04s WALL (      98 calls)
     cegterg:over :     89.13s CPU     89.21s WALL (      77 calls)
     cegterg:upda :     56.51s CPU     56.89s WALL (      77 calls)
     cegterg:last :     41.72s CPU     41.75s WALL (      22 calls)

     Called by h_psi:
     h_psi:pot    :    362.43s CPU    364.89s WALL (      99 calls)
     h_psi:calbec :    122.56s CPU    122.69s WALL (      99 calls)
     vloc_psi     :    118.32s CPU    120.54s WALL (      99 calls)
     add_vuspsi   :    121.55s CPU    121.65s WALL (      99 calls)

     General routines
     calbec       :    172.02s CPU    172.23s WALL (     120 calls)
     fft          :     73.34s CPU     76.18s WALL (    1384 calls)
     ffts         :      0.80s CPU      0.82s WALL (      43 calls)
     fftw         :    124.60s CPU    127.05s WALL (   15897 calls)
     interpolate  :      1.82s CPU      1.88s WALL (      22 calls)

     Parallel routines
     fft_scatt_xy :     33.94s CPU     34.38s WALL (   17324 calls)
     fft_scatt_yz :     69.31s CPU     73.03s WALL (   17324 calls)

     PWSCF        :  19m43.12s CPU  20m18.55s WALL


   This run was terminated on:  15: 2:42  20Jul2022            

=------------------------------------------------------------------------------=
   JOB DONE.
=------------------------------------------------------------------------------=
