
     Program PWSCF v.6.4.1 starts on 20Jul2022 at 14: 1:46 

     This program is part of the open-source Quantum ESPRESSO suite
     for quantum simulation of materials; please cite
         "P. Giannozzi et al., J. Phys.:Condens. Matter 21 395502 (2009);
         "P. Giannozzi et al., J. Phys.:Condens. Matter 29 465901 (2017);
          URL http://www.quantum-espresso.org", 
     in publications or presentations arising from this work. More details at
     http://www.quantum-espresso.org/quote

     Parallel version (MPI), running on     6 processors

     MPI processes distributed on     1 nodes
     R & G space division:  proc/nbgrp/npool/nimage =       6
     Reading input from distance-3.0.in

     Current dimensions of program PWSCF are:
     Max number of different atomic species (ntypx) = 10
     Max number of k-points (npk) =  40000
     Max angular momentum in pseudopotentials (lmaxx) =  3

     IMPORTANT: XC functional enforced from input :
     Exchange-correlation      = RVV10 ( 1  4 13  4 3 0)
     Any further DFT definition will be discarded
     Please, verify this is what you really want

               file H.pbe-rrkjus.UPF: wavefunction(s)  1S renormalized
               file Cr.pbe-spn-rrkjus_psl.1.0.0.UPF: wavefunction(s)  3P renormalized

     Subspace diagonalization in iterative solution of the eigenvalue problem:
     a serial algorithm will be used


     Parallelization info
     --------------------
     sticks:   dense  smooth     PW     G-vecs:    dense   smooth      PW
     Min        3051    1746    432               270999   117096   14629
     Max        3053    1747    437               271001   117099   14630
     Sum       18313   10477   2611              1626001   702581   87777



     bravais-lattice index     =            4
     lattice parameter (alat)  =      23.2937  a.u.
     unit-cell volume          =    8879.8548 (a.u.)^3
     number of atoms/cell      =           52
     number of atomic types    =            3
     number of electrons       =       212.00
     number of Kohn-Sham states=          127
     kinetic-energy cutoff     =      70.0000  Ry
     charge density cutoff     =     490.0000  Ry
     convergence threshold     =      1.0E-06
     mixing beta               =       0.7000
     number of iterations used =            8  plain     mixing
     Exchange-correlation      = RVV10 ( 1  4 13  4 3 0)

     celldm(1)=  23.293684  celldm(2)=   0.000000  celldm(3)=   0.811261
     celldm(4)=   0.000000  celldm(5)=   0.000000  celldm(6)=   0.000000

     crystal axes: (cart. coord. in units of alat)
               a(1) = (   1.000000   0.000000   0.000000 )  
               a(2) = (  -0.500000   0.866025   0.000000 )  
               a(3) = (   0.000000   0.000000   0.811261 )  

     reciprocal axes: (cart. coord. in units 2 pi/alat)
               b(1) = (  1.000000  0.577350 -0.000000 )  
               b(2) = (  0.000000  1.154701  0.000000 )  
               b(3) = (  0.000000 -0.000000  1.232649 )  


     PseudoPot. # 1 for H  read from file:
     /home/cristian/Escritorio/Proyecto_Grafeno/pseudopotenciales/H.pbe-rrkjus.UPF
     MD5 check sum: 7cc9d459525c9a0585f487a71c3c9563
     Pseudo is Ultrasoft, Zval =  1.0
     Generated by new atomic code, or converted to UPF format
     Using radial grid of 1061 points,  2 beta functions with: 
                l(1) =   0
                l(2) =   0
     Q(r) pseudized with 0 coefficients 


     PseudoPot. # 2 for C  read from file:
     /home/cristian/Escritorio/Proyecto_Grafeno/pseudopotenciales/C.pbe-n-rrkjus_psl.1.0.0.UPF
     MD5 check sum: 1fdd950c42eb37d8afe3dd2f8d12311e
     Pseudo is Ultrasoft + core correction, Zval =  4.0
     Generated using "atomic" code by A. Dal Corso v.6.3MaX
     Using radial grid of 1073 points,  4 beta functions with: 
                l(1) =   0
                l(2) =   0
                l(3) =   1
                l(4) =   1
     Q(r) pseudized with 0 coefficients 


     PseudoPot. # 3 for Cr read from file:
     /home/cristian/Escritorio/Proyecto_Grafeno/pseudopotenciales/Cr.pbe-spn-rrkjus_psl.1.0.0.UPF
     MD5 check sum: 793d051e4f89dd1e3290b85340a92c0a
     Pseudo is Ultrasoft + core correction, Zval = 14.0
     Generated using "atomic" code by A. Dal Corso v.6.2.2
     Using radial grid of 1183 points,  6 beta functions with: 
                l(1) =   0
                l(2) =   0
                l(3) =   1
                l(4) =   1
                l(5) =   2
                l(6) =   2
     Q(r) pseudized with 0 coefficients 


     vdW kernel table read from file rVV10_kernel_table
     MD5 check sum: b8e2538accc0c0b3206b45ba4daaba6c

     atomic species   valence    mass     pseudopotential
        H              1.00     1.00794     H ( 1.00)
        C              4.00    12.01070     C ( 1.00)
        Cr            14.00    51.99610     Cr( 1.00)

      2 Sym. Ops. (no inversion) found


                                    s                        frac. trans.

      isym =  1     identity                                     

 cryst.   s( 1) = (     1          0          0      )
                  (     0          1          0      )
                  (     0          0          1      )

 cart.    s( 1) = (  1.0000000  0.0000000  0.0000000 )
                  (  0.0000000  1.0000000  0.0000000 )
                  (  0.0000000  0.0000000  1.0000000 )


      isym =  2     inv. 180 deg rotation - cryst. axis [1,1,0]  

 cryst.   s( 2) = (     0         -1          0      )
                  (    -1          0          0      )
                  (     0          0          1      )

 cart.    s( 2) = (  0.5000000 -0.8660254  0.0000000 )
                  ( -0.8660254 -0.5000000  0.0000000 )
                  (  0.0000000  0.0000000  1.0000000 )


     point group C_s (m)    
     there are  2 classes
     the character table:

       E     s    
A'     1.00  1.00
A''    1.00 -1.00

     the symmetry operations in each class and the name of the first element:

     E        1
          identity                                               
     s        2
          inv. 180 deg rotation - cryst. axis [1,1,0]            

   Cartesian axes

     site n.     atom                  positions (alat units)
         1           H   tau(   1) = (   0.2500000   0.4330127   0.2433783  )
         2           H   tau(   2) = (   0.2500000   0.4330127   0.3043910  )
         3           C   tau(   3) = (   0.0000000   0.0000000   0.0000000  )
         4           C   tau(   4) = (   0.0000000   0.1154701   0.0000000  )
         5           C   tau(   5) = (  -0.1000000   0.1732051   0.0000000  )
         6           C   tau(   6) = (  -0.1000000   0.2886751   0.0000000  )
         7           C   tau(   7) = (  -0.2000000   0.3464102   0.0000000  )
         8           C   tau(   8) = (  -0.2000000   0.4618802   0.0000000  )
         9           C   tau(   9) = (  -0.3000000   0.5196152   0.0000000  )
        10           C   tau(  10) = (  -0.3000000   0.6350853   0.0000000  )
        11           C   tau(  11) = (  -0.4000000   0.6928203   0.0000000  )
        12           C   tau(  12) = (  -0.4000000   0.8082904   0.0000000  )
        13           C   tau(  13) = (   0.2000000   0.0000000   0.0000000  )
        14           C   tau(  14) = (   0.2000000   0.1154701   0.0000000  )
        15           C   tau(  15) = (   0.1000000   0.1732051   0.0000000  )
        16           C   tau(  16) = (   0.1000000   0.2886751   0.0000000  )
        17           C   tau(  17) = (   0.0000000   0.3464102   0.0000000  )
        18           C   tau(  18) = (   0.0000000   0.4618802   0.0000000  )
        19           C   tau(  19) = (  -0.1000000   0.5196152   0.0000000  )
        20           C   tau(  20) = (  -0.1000000   0.6350853   0.0000000  )
        21           C   tau(  21) = (  -0.2000000   0.6928203   0.0000000  )
        22           C   tau(  22) = (  -0.2000000   0.8082904   0.0000000  )
        23           C   tau(  23) = (   0.4000000   0.0000000   0.0000000  )
        24           C   tau(  24) = (   0.4000000   0.1154701   0.0000000  )
        25           C   tau(  25) = (   0.3000000   0.1732051   0.0000000  )
        26           C   tau(  26) = (   0.3000000   0.2886751   0.0000000  )
        27           C   tau(  27) = (   0.2000000   0.3464102   0.0000000  )
        28           Cr  tau(  28) = (   0.2000000   0.4618802   0.0000000  )
        29           C   tau(  29) = (   0.1000000   0.5196152   0.0000000  )
        30           C   tau(  30) = (   0.1000000   0.6350853   0.0000000  )
        31           C   tau(  31) = (   0.0000000   0.6928203   0.0000000  )
        32           C   tau(  32) = (   0.0000000   0.8082904   0.0000000  )
        33           C   tau(  33) = (   0.6000000   0.0000000   0.0000000  )
        34           C   tau(  34) = (   0.6000000   0.1154701   0.0000000  )
        35           C   tau(  35) = (   0.5000000   0.1732051   0.0000000  )
        36           C   tau(  36) = (   0.5000000   0.2886751   0.0000000  )
        37           C   tau(  37) = (   0.4000000   0.3464102   0.0000000  )
        38           C   tau(  38) = (   0.4000000   0.4618802   0.0000000  )
        39           C   tau(  39) = (   0.3000000   0.5196152   0.0000000  )
        40           C   tau(  40) = (   0.3000000   0.6350853   0.0000000  )
        41           C   tau(  41) = (   0.2000000   0.6928203   0.0000000  )
        42           C   tau(  42) = (   0.2000000   0.8082904   0.0000000  )
        43           C   tau(  43) = (   0.8000000   0.0000000   0.0000000  )
        44           C   tau(  44) = (   0.8000000   0.1154701   0.0000000  )
        45           C   tau(  45) = (   0.7000000   0.1732051   0.0000000  )
        46           C   tau(  46) = (   0.7000000   0.2886751   0.0000000  )
        47           C   tau(  47) = (   0.6000000   0.3464102   0.0000000  )
        48           C   tau(  48) = (   0.6000000   0.4618802   0.0000000  )
        49           C   tau(  49) = (   0.5000000   0.5196152   0.0000000  )
        50           C   tau(  50) = (   0.5000000   0.6350853   0.0000000  )
        51           C   tau(  51) = (   0.4000000   0.6928203   0.0000000  )
        52           C   tau(  52) = (   0.4000000   0.8082904   0.0000000  )

   Crystallographic axes

     site n.     atom                  positions (cryst. coord.)
         1           H   tau(   1) = (  0.5000000  0.5000000  0.3000000  )
         2           H   tau(   2) = (  0.5000000  0.5000000  0.3752072  )
         3           C   tau(   3) = (  0.0000000  0.0000000  0.0000000  )
         4           C   tau(   4) = (  0.0666667  0.1333333  0.0000000  )
         5           C   tau(   5) = (  0.0000000  0.2000000  0.0000000  )
         6           C   tau(   6) = (  0.0666667  0.3333333  0.0000000  )
         7           C   tau(   7) = (  0.0000000  0.4000000  0.0000000  )
         8           C   tau(   8) = (  0.0666667  0.5333333  0.0000000  )
         9           C   tau(   9) = (  0.0000000  0.6000000  0.0000000  )
        10           C   tau(  10) = (  0.0666667  0.7333333  0.0000000  )
        11           C   tau(  11) = (  0.0000000  0.8000000  0.0000000  )
        12           C   tau(  12) = (  0.0666667  0.9333333  0.0000000  )
        13           C   tau(  13) = (  0.2000000  0.0000000  0.0000000  )
        14           C   tau(  14) = (  0.2666667  0.1333333  0.0000000  )
        15           C   tau(  15) = (  0.2000000  0.2000000  0.0000000  )
        16           C   tau(  16) = (  0.2666667  0.3333333  0.0000000  )
        17           C   tau(  17) = (  0.2000000  0.4000000  0.0000000  )
        18           C   tau(  18) = (  0.2666667  0.5333333  0.0000000  )
        19           C   tau(  19) = (  0.2000000  0.6000000  0.0000000  )
        20           C   tau(  20) = (  0.2666667  0.7333333  0.0000000  )
        21           C   tau(  21) = (  0.2000000  0.8000000  0.0000000  )
        22           C   tau(  22) = (  0.2666667  0.9333333  0.0000000  )
        23           C   tau(  23) = (  0.4000000  0.0000000  0.0000000  )
        24           C   tau(  24) = (  0.4666667  0.1333333  0.0000000  )
        25           C   tau(  25) = (  0.4000000  0.2000000  0.0000000  )
        26           C   tau(  26) = (  0.4666667  0.3333333  0.0000000  )
        27           C   tau(  27) = (  0.4000000  0.4000000  0.0000000  )
        28           Cr  tau(  28) = (  0.4666667  0.5333333  0.0000000  )
        29           C   tau(  29) = (  0.4000000  0.6000000  0.0000000  )
        30           C   tau(  30) = (  0.4666667  0.7333333  0.0000000  )
        31           C   tau(  31) = (  0.4000000  0.8000000  0.0000000  )
        32           C   tau(  32) = (  0.4666667  0.9333333  0.0000000  )
        33           C   tau(  33) = (  0.6000000  0.0000000  0.0000000  )
        34           C   tau(  34) = (  0.6666667  0.1333333  0.0000000  )
        35           C   tau(  35) = (  0.6000000  0.2000000  0.0000000  )
        36           C   tau(  36) = (  0.6666667  0.3333333  0.0000000  )
        37           C   tau(  37) = (  0.6000000  0.4000000  0.0000000  )
        38           C   tau(  38) = (  0.6666667  0.5333333  0.0000000  )
        39           C   tau(  39) = (  0.6000000  0.6000000  0.0000000  )
        40           C   tau(  40) = (  0.6666667  0.7333333  0.0000000  )
        41           C   tau(  41) = (  0.6000000  0.8000000  0.0000000  )
        42           C   tau(  42) = (  0.6666667  0.9333333  0.0000000  )
        43           C   tau(  43) = (  0.8000000  0.0000000  0.0000000  )
        44           C   tau(  44) = (  0.8666667  0.1333333  0.0000000  )
        45           C   tau(  45) = (  0.8000000  0.2000000  0.0000000  )
        46           C   tau(  46) = (  0.8666667  0.3333333  0.0000000  )
        47           C   tau(  47) = (  0.8000000  0.4000000  0.0000000  )
        48           C   tau(  48) = (  0.8666667  0.5333333  0.0000000  )
        49           C   tau(  49) = (  0.8000000  0.6000000  0.0000000  )
        50           C   tau(  50) = (  0.8666667  0.7333333  0.0000000  )
        51           C   tau(  51) = (  0.8000000  0.8000000  0.0000000  )
        52           C   tau(  52) = (  0.8666667  0.9333333  0.0000000  )

     number of k points=     1  Marzari-Vanderbilt smearing, width (Ry)=  0.0010
                       cart. coord. in units 2pi/alat
        k(    1) = (   0.0000000   0.0000000   0.0000000), wk =   2.0000000

                       cryst. coord.
        k(    1) = (   0.0000000   0.0000000   0.0000000), wk =   2.0000000

     Dense  grid:  1626001 G-vectors     FFT dimensions: ( 180, 180, 135)

     Smooth grid:   702581 G-vectors     FFT dimensions: ( 125, 125, 108)

     Dynamical RAM for                 wfc:      28.36 MB

     Dynamical RAM for     wfc (w. buffer):      28.36 MB

     Dynamical RAM for           str. fact:      12.41 MB

     Dynamical RAM for           local pot:       0.00 MB

     Dynamical RAM for          nlocal pot:      92.46 MB

     Dynamical RAM for                qrad:      19.73 MB

     Dynamical RAM for          rho,v,vnew:      29.46 MB

     Dynamical RAM for               rhoin:       9.82 MB

     Dynamical RAM for            rho*nmix:      66.16 MB

     Dynamical RAM for           G-vectors:      16.40 MB

     Dynamical RAM for          h,s,v(r/c):      11.81 MB

     Dynamical RAM for          <psi|beta>:       0.80 MB

     Dynamical RAM for                 psi:     113.46 MB

     Dynamical RAM for                hpsi:     113.46 MB

     Dynamical RAM for                spsi:     113.46 MB

     Dynamical RAM for      wfcinit/wfcrot:      93.90 MB

     Dynamical RAM for           addusdens:     971.75 MB

     Estimated static dynamical RAM per process >     319.78 MB

     Estimated max dynamical RAM per process >       1.26 GB

     Estimated total dynamical RAM >       7.57 GB

     Check: negative core charge=   -0.000002

     Initial potential from superposition of free atoms

     starting charge  211.80478, renormalised to  212.00000

     negative rho (up, down):  4.773E-04 0.000E+00


---------------------------------------------------------------------------------
Carrying out rVV10 run using the following parameters:
Nqs =      20    Nr_points =    1024   r_max =   100.000
b_value =  6.30000    beta =  0.00901
     q_mesh =  0.00010000  0.00030000  0.00058939  0.00100810
               0.00161396  0.00249058  0.00375900  0.00559430
               0.00824984  0.01209221  0.01765183  0.02569619
               0.03733578  0.05417739  0.07854596  0.11380545
               0.16482331  0.23864234  0.34545298  0.50000000

Gradients computed in Reciprocal space

---------------------------------------------------------------------------------


     Starting wfcs are  208 randomized atomic wfcs

     total cpu time spent up to now is       49.8 secs

     Self-consistent Calculation

     iteration #  1     ecut=    70.00 Ry     beta= 0.70
     Davidson diagonalization with overlap
     ethr =  1.00E-02,  avg # of iterations =  2.0

     negative rho (up, down):  8.193E-04 0.000E+00

     total cpu time spent up to now is      115.0 secs

     total energy              =    -783.87803367 Ry
     Harris-Foulkes estimate   =    -789.95793499 Ry
     estimated scf accuracy    <       8.87205422 Ry

     iteration #  2     ecut=    70.00 Ry     beta= 0.70
     Davidson diagonalization with overlap
     ethr =  4.18E-03,  avg # of iterations =  8.0

     negative rho (up, down):  9.056E-04 0.000E+00

     total cpu time spent up to now is      179.9 secs

     total energy              =    -777.35662319 Ry
     Harris-Foulkes estimate   =    -796.38361232 Ry
     estimated scf accuracy    <      71.53585031 Ry

     iteration #  3     ecut=    70.00 Ry     beta= 0.70
     Davidson diagonalization with overlap
     ethr =  4.18E-03,  avg # of iterations =  6.0

     negative rho (up, down):  1.037E-03 0.000E+00

     total cpu time spent up to now is      269.8 secs

     total energy              =    -785.64474413 Ry
     Harris-Foulkes estimate   =    -787.91879779 Ry
     estimated scf accuracy    <       9.95003373 Ry

     iteration #  4     ecut=    70.00 Ry     beta= 0.70
     Davidson diagonalization with overlap
     ethr =  4.18E-03,  avg # of iterations =  3.0

     negative rho (up, down):  1.414E-03 0.000E+00

     total cpu time spent up to now is      319.8 secs

     total energy              =    -786.72741199 Ry
     Harris-Foulkes estimate   =    -787.39584490 Ry
     estimated scf accuracy    <       2.21642971 Ry

     iteration #  5     ecut=    70.00 Ry     beta= 0.70
     Davidson diagonalization with overlap
     ethr =  1.05E-03,  avg # of iterations =  4.0

     negative rho (up, down):  1.681E-03 0.000E+00

     total cpu time spent up to now is      370.7 secs

     total energy              =    -786.92303203 Ry
     Harris-Foulkes estimate   =    -787.01837264 Ry
     estimated scf accuracy    <       0.38754789 Ry

     iteration #  6     ecut=    70.00 Ry     beta= 0.70
     Davidson diagonalization with overlap
     ethr =  1.83E-04,  avg # of iterations =  8.0

     negative rho (up, down):  1.773E-03 0.000E+00

     total cpu time spent up to now is      423.7 secs

     total energy              =    -786.93817219 Ry
     Harris-Foulkes estimate   =    -786.98688740 Ry
     estimated scf accuracy    <       0.23292620 Ry

     iteration #  7     ecut=    70.00 Ry     beta= 0.70
     Davidson diagonalization with overlap
     ethr =  1.10E-04,  avg # of iterations =  2.0

     negative rho (up, down):  1.979E-03 0.000E+00

     total cpu time spent up to now is      472.0 secs

     total energy              =    -786.93519925 Ry
     Harris-Foulkes estimate   =    -786.96370142 Ry
     estimated scf accuracy    <       0.12856139 Ry

     iteration #  8     ecut=    70.00 Ry     beta= 0.70
     Davidson diagonalization with overlap
     ethr =  6.06E-05,  avg # of iterations =  1.0

     negative rho (up, down):  2.560E-03 0.000E+00

     total cpu time spent up to now is      520.0 secs

     total energy              =    -786.94199576 Ry
     Harris-Foulkes estimate   =    -786.95406205 Ry
     estimated scf accuracy    <       0.07647902 Ry

     iteration #  9     ecut=    70.00 Ry     beta= 0.70
     Davidson diagonalization with overlap
     ethr =  3.61E-05,  avg # of iterations =  3.0

     negative rho (up, down):  2.673E-03 0.000E+00

     total cpu time spent up to now is      568.6 secs

     total energy              =    -786.94546640 Ry
     Harris-Foulkes estimate   =    -786.94746407 Ry
     estimated scf accuracy    <       0.00490684 Ry

     iteration # 10     ecut=    70.00 Ry     beta= 0.70
     Davidson diagonalization with overlap
     ethr =  2.31E-06,  avg # of iterations = 12.0

     negative rho (up, down):  2.650E-03 0.000E+00

     total cpu time spent up to now is      635.7 secs

     total energy              =    -786.94616514 Ry
     Harris-Foulkes estimate   =    -786.94754120 Ry
     estimated scf accuracy    <       0.01214134 Ry

     iteration # 11     ecut=    70.00 Ry     beta= 0.70
     Davidson diagonalization with overlap
     ethr =  2.31E-06,  avg # of iterations =  2.0

     negative rho (up, down):  2.629E-03 0.000E+00

     total cpu time spent up to now is      684.0 secs

     total energy              =    -786.94654030 Ry
     Harris-Foulkes estimate   =    -786.94726509 Ry
     estimated scf accuracy    <       0.01343098 Ry

     iteration # 12     ecut=    70.00 Ry     beta= 0.70
     Davidson diagonalization with overlap
     ethr =  2.31E-06,  avg # of iterations =  1.0

     negative rho (up, down):  2.660E-03 0.000E+00

     total cpu time spent up to now is      732.1 secs

     total energy              =    -786.94691357 Ry
     Harris-Foulkes estimate   =    -786.94711008 Ry
     estimated scf accuracy    <       0.00486160 Ry

     iteration # 13     ecut=    70.00 Ry     beta= 0.70
     Davidson diagonalization with overlap
     ethr =  2.29E-06,  avg # of iterations =  1.0

     negative rho (up, down):  2.656E-03 0.000E+00

     total cpu time spent up to now is      780.1 secs

     total energy              =    -786.94702682 Ry
     Harris-Foulkes estimate   =    -786.94706401 Ry
     estimated scf accuracy    <       0.00050456 Ry

     iteration # 14     ecut=    70.00 Ry     beta= 0.70
     Davidson diagonalization with overlap
     ethr =  2.38E-07,  avg # of iterations =  2.0

     negative rho (up, down):  2.670E-03 0.000E+00

     total cpu time spent up to now is      828.6 secs

     total energy              =    -786.94706163 Ry
     Harris-Foulkes estimate   =    -786.94706964 Ry
     estimated scf accuracy    <       0.00026793 Ry

     iteration # 15     ecut=    70.00 Ry     beta= 0.70
     Davidson diagonalization with overlap
     ethr =  1.26E-07,  avg # of iterations =  2.0

     negative rho (up, down):  2.676E-03 0.000E+00

     total cpu time spent up to now is      877.3 secs

     total energy              =    -786.94707454 Ry
     Harris-Foulkes estimate   =    -786.94707332 Ry
     estimated scf accuracy    <       0.00004426 Ry

     iteration # 16     ecut=    70.00 Ry     beta= 0.70
     Davidson diagonalization with overlap
     ethr =  2.09E-08,  avg # of iterations =  3.0

     negative rho (up, down):  2.677E-03 0.000E+00

     total cpu time spent up to now is      927.2 secs

     total energy              =    -786.94708530 Ry
     Harris-Foulkes estimate   =    -786.94707931 Ry
     estimated scf accuracy    <       0.00000981 Ry

     iteration # 17     ecut=    70.00 Ry     beta= 0.70
     Davidson diagonalization with overlap
     ethr =  4.63E-09,  avg # of iterations =  3.0

     negative rho (up, down):  2.679E-03 0.000E+00

     total cpu time spent up to now is      982.6 secs

     total energy              =    -786.94709325 Ry
     Harris-Foulkes estimate   =    -786.94709279 Ry
     estimated scf accuracy    <       0.00000785 Ry

     iteration # 18     ecut=    70.00 Ry     beta= 0.70
     Davidson diagonalization with overlap
     ethr =  3.70E-09,  avg # of iterations =  4.0

     negative rho (up, down):  2.682E-03 0.000E+00

     total cpu time spent up to now is     1039.4 secs

     total energy              =    -786.94710494 Ry
     Harris-Foulkes estimate   =    -786.94710481 Ry
     estimated scf accuracy    <       0.00000677 Ry

     iteration # 19     ecut=    70.00 Ry     beta= 0.70
     Davidson diagonalization with overlap
     ethr =  3.19E-09,  avg # of iterations =  3.0

     negative rho (up, down):  2.683E-03 0.000E+00

     total cpu time spent up to now is     1093.4 secs

     total energy              =    -786.94710984 Ry
     Harris-Foulkes estimate   =    -786.94710933 Ry
     estimated scf accuracy    <       0.00000118 Ry

     iteration # 20     ecut=    70.00 Ry     beta= 0.70
     Davidson diagonalization with overlap
     ethr =  5.56E-10,  avg # of iterations =  4.0

     negative rho (up, down):  2.683E-03 0.000E+00

     total cpu time spent up to now is     1154.9 secs

     total energy              =    -786.94710367 Ry
     Harris-Foulkes estimate   =    -786.94711201 Ry
     estimated scf accuracy    <       0.00000173 Ry

     iteration # 21     ecut=    70.00 Ry     beta= 0.70
     Davidson diagonalization with overlap
     ethr =  5.56E-10,  avg # of iterations =  4.0

     negative rho (up, down):  2.689E-03 0.000E+00

     total cpu time spent up to now is     1219.0 secs

     End of self-consistent calculation

          k = 0.0000 0.0000 0.0000 ( 87777 PWs)   bands (ev):

   -71.8408 -44.1363 -44.1363 -43.0227 -19.6330 -18.7945 -18.7940 -18.7017
   -18.7015 -18.7011 -18.3299 -16.9470 -16.9469 -16.9417 -16.8361 -16.8360
   -16.5349 -16.0938 -16.0934 -15.9937 -15.9124 -15.9123 -15.1990 -13.9568
   -13.9563 -13.9135 -13.8632 -13.8632 -13.2002 -12.9379 -12.9377 -12.9086
   -12.5835 -12.5834 -12.1453 -11.6983 -11.6981 -11.5337 -11.2272 -11.2272
   -10.2614  -9.4780  -9.4780  -9.3193  -9.1854  -9.1854  -9.0929  -9.0614
    -9.0613  -9.0501  -8.5346  -8.5346  -7.9908  -7.9906  -7.8924  -7.7915
    -7.7032  -7.2830  -7.2826  -7.0823  -7.0299  -6.9815  -6.9468  -6.7011
    -6.7010  -6.6869  -6.6859  -6.6600  -6.5947  -6.4310  -6.4309  -6.4028
    -6.3978  -6.3976  -6.3539  -6.3492  -5.3929  -5.3904  -5.3219  -5.3218
    -5.0576  -5.0576  -4.8556  -4.7614  -4.6065  -4.5836  -4.5831  -4.2654
    -4.2492  -4.0350  -4.0346  -3.7173  -3.7173  -3.6359  -3.5384  -3.5382
    -3.4719  -3.4717  -3.0008  -2.4315  -2.4313  -1.7179  -1.6737  -1.6737
    -0.7156  -0.5370  -0.5370  -0.4897   1.0669   1.0877   1.0886   1.7741
     1.8713   1.8718   2.4265   2.9261   2.9273   2.9879   3.3800   3.3968
     3.4570   3.6534   3.6619   3.7066   3.7983   3.8025   3.8563

     occupation numbers 
     1.0000   1.0000   1.0000   1.0000   1.0000   1.0000   1.0000   1.0000
     1.0000   1.0000   1.0000   1.0000   1.0000   1.0000   1.0000   1.0000
     1.0000   1.0000   1.0000   1.0000   1.0000   1.0000   1.0000   1.0000
     1.0000   1.0000   1.0000   1.0000   1.0000   1.0000   1.0000   1.0000
     1.0000   1.0000   1.0000   1.0000   1.0000   1.0000   1.0000   1.0000
     1.0000   1.0000   1.0000   1.0000   1.0000   1.0000   1.0000   1.0000
     1.0000   1.0000   1.0000   1.0000   1.0000   1.0000   1.0000   1.0000
     1.0000   1.0000   1.0000   1.0000   1.0000   1.0000   1.0000   1.0000
     1.0000   1.0000   1.0000   1.0000   1.0000   1.0000   1.0000   1.0000
     1.0000   1.0000   1.0000   1.0000   1.0000   1.0000   1.0000   1.0000
     1.0000   1.0000   1.0000   1.0000   1.0000   1.0000   1.0000   1.0000
     1.0000   1.0000   1.0000   1.0000   1.0000   1.0000   1.0000   1.0000
     1.0000   1.0000   1.0000   1.0000   1.0000   1.0000   1.0000   1.0000
     1.0000   0.5005   0.4995   0.0000   0.0000   0.0000   0.0000   0.0000
     0.0000   0.0000   0.0000   0.0000   0.0000   0.0000   0.0000   0.0000
     0.0000   0.0000   0.0000   0.0000   0.0000   0.0000   0.0000

     the Fermi energy is    -0.5351 ev

!    total energy              =    -786.94711603 Ry
     Harris-Foulkes estimate   =    -786.94711677 Ry
     estimated scf accuracy    <       0.00000049 Ry

     The total energy is the sum of the following terms:

     one-electron contribution =   -2642.64641110 Ry
     hartree contribution      =    1366.98817869 Ry
     xc contribution           =    -254.33547043 Ry
     ewald contribution        =     743.04724317 Ry
     smearing contrib. (-TS)   =      -0.00065637 Ry

     convergence has been achieved in  21 iterations

     Writing output data file gr-12-bridge2.save/

     init_run     :     47.54s CPU     48.69s WALL (       1 calls)
     electrons    :   1135.36s CPU   1169.27s WALL (       1 calls)

     Called by init_run:
     wfcinit      :     20.55s CPU     20.71s WALL (       1 calls)
     wfcinit:atom :      0.02s CPU      0.04s WALL (       1 calls)
     wfcinit:wfcr :     20.36s CPU     20.46s WALL (       1 calls)
     potinit      :     12.05s CPU     12.49s WALL (       1 calls)
     hinit0       :     10.29s CPU     10.32s WALL (       1 calls)

     Called by electrons:
     c_bands      :    709.04s CPU    713.09s WALL (      21 calls)
     sum_band     :    210.21s CPU    221.59s WALL (      21 calls)
     v_of_rho     :    133.08s CPU    141.01s WALL (      22 calls)
     v_h          :      1.50s CPU      1.60s WALL (      22 calls)
     v_xc         :    131.57s CPU    139.41s WALL (      22 calls)
     newd         :     86.53s CPU     97.84s WALL (      22 calls)
     mix_rho      :      4.06s CPU      4.12s WALL (      21 calls)

     Called by c_bands:
     init_us_2    :      1.81s CPU      1.85s WALL (      43 calls)
     cegterg      :    704.43s CPU    708.45s WALL (      21 calls)

     Called by sum_band:
     sum_band:bec :      0.02s CPU      0.02s WALL (      21 calls)
     addusdens    :    129.04s CPU    139.80s WALL (      21 calls)

     Called by *egterg:
     h_psi        :    366.23s CPU    369.01s WALL (     100 calls)
     s_psi        :    123.04s CPU    123.15s WALL (     100 calls)
     g_psi        :      0.39s CPU      0.40s WALL (      78 calls)
     cdiaghg      :      7.72s CPU      7.72s WALL (      99 calls)
     cegterg:over :     89.85s CPU     89.89s WALL (      78 calls)
     cegterg:upda :     57.01s CPU     57.40s WALL (      78 calls)
     cegterg:last :     41.69s CPU     41.70s WALL (      22 calls)

     Called by h_psi:
     h_psi:pot    :    365.73s CPU    368.09s WALL (     100 calls)
     h_psi:calbec :    123.70s CPU    123.76s WALL (     100 calls)
     vloc_psi     :    118.91s CPU    121.18s WALL (     100 calls)
     add_vuspsi   :    123.12s CPU    123.15s WALL (     100 calls)

     General routines
     calbec       :    173.16s CPU    173.25s WALL (     121 calls)
     fft          :     73.18s CPU     75.90s WALL (    1384 calls)
     ffts         :      0.74s CPU      0.77s WALL (      43 calls)
     fftw         :    125.16s CPU    127.60s WALL (   16029 calls)
     interpolate  :      1.81s CPU      1.86s WALL (      22 calls)

     Parallel routines
     fft_scatt_xy :     34.60s CPU     35.06s WALL (   17456 calls)
     fft_scatt_yz :     67.18s CPU     70.85s WALL (   17456 calls)

     PWSCF        :  19m44.14s CPU  20m19.46s WALL


   This run was terminated on:  14:22: 5  20Jul2022            

=------------------------------------------------------------------------------=
   JOB DONE.
=------------------------------------------------------------------------------=
