
     Program PWSCF v.6.4.1 starts on 20Jul2022 at 12:33:55 

     This program is part of the open-source Quantum ESPRESSO suite
     for quantum simulation of materials; please cite
         "P. Giannozzi et al., J. Phys.:Condens. Matter 21 395502 (2009);
         "P. Giannozzi et al., J. Phys.:Condens. Matter 29 465901 (2017);
          URL http://www.quantum-espresso.org", 
     in publications or presentations arising from this work. More details at
     http://www.quantum-espresso.org/quote

     Parallel version (MPI), running on     6 processors

     MPI processes distributed on     1 nodes
     R & G space division:  proc/nbgrp/npool/nimage =       6
     Reading input from distance-5.0.in

     Current dimensions of program PWSCF are:
     Max number of different atomic species (ntypx) = 10
     Max number of k-points (npk) =  40000
     Max angular momentum in pseudopotentials (lmaxx) =  3

     IMPORTANT: XC functional enforced from input :
     Exchange-correlation      = RVV10 ( 1  4 13  4 3 0)
     Any further DFT definition will be discarded
     Please, verify this is what you really want

               file H.pbe-rrkjus.UPF: wavefunction(s)  1S renormalized
               file Cr.pbe-spn-rrkjus_psl.1.0.0.UPF: wavefunction(s)  3P renormalized

     Subspace diagonalization in iterative solution of the eigenvalue problem:
     a serial algorithm will be used


     Parallelization info
     --------------------
     sticks:   dense  smooth     PW     G-vecs:    dense   smooth      PW
     Min        3051    1746    432               270999   117096   14629
     Max        3053    1747    437               271001   117099   14630
     Sum       18313   10477   2611              1626001   702581   87777



     bravais-lattice index     =            4
     lattice parameter (alat)  =      23.2937  a.u.
     unit-cell volume          =    8879.8548 (a.u.)^3
     number of atoms/cell      =           52
     number of atomic types    =            3
     number of electrons       =       212.00
     number of Kohn-Sham states=          127
     kinetic-energy cutoff     =      70.0000  Ry
     charge density cutoff     =     490.0000  Ry
     convergence threshold     =      1.0E-06
     mixing beta               =       0.7000
     number of iterations used =            8  plain     mixing
     Exchange-correlation      = RVV10 ( 1  4 13  4 3 0)

     celldm(1)=  23.293684  celldm(2)=   0.000000  celldm(3)=   0.811261
     celldm(4)=   0.000000  celldm(5)=   0.000000  celldm(6)=   0.000000

     crystal axes: (cart. coord. in units of alat)
               a(1) = (   1.000000   0.000000   0.000000 )  
               a(2) = (  -0.500000   0.866025   0.000000 )  
               a(3) = (   0.000000   0.000000   0.811261 )  

     reciprocal axes: (cart. coord. in units 2 pi/alat)
               b(1) = (  1.000000  0.577350 -0.000000 )  
               b(2) = (  0.000000  1.154701  0.000000 )  
               b(3) = (  0.000000 -0.000000  1.232649 )  


     PseudoPot. # 1 for H  read from file:
     /home/cristian/Escritorio/Proyecto_Grafeno/pseudopotenciales/H.pbe-rrkjus.UPF
     MD5 check sum: 7cc9d459525c9a0585f487a71c3c9563
     Pseudo is Ultrasoft, Zval =  1.0
     Generated by new atomic code, or converted to UPF format
     Using radial grid of 1061 points,  2 beta functions with: 
                l(1) =   0
                l(2) =   0
     Q(r) pseudized with 0 coefficients 


     PseudoPot. # 2 for C  read from file:
     /home/cristian/Escritorio/Proyecto_Grafeno/pseudopotenciales/C.pbe-n-rrkjus_psl.1.0.0.UPF
     MD5 check sum: 1fdd950c42eb37d8afe3dd2f8d12311e
     Pseudo is Ultrasoft + core correction, Zval =  4.0
     Generated using "atomic" code by A. Dal Corso v.6.3MaX
     Using radial grid of 1073 points,  4 beta functions with: 
                l(1) =   0
                l(2) =   0
                l(3) =   1
                l(4) =   1
     Q(r) pseudized with 0 coefficients 


     PseudoPot. # 3 for Cr read from file:
     /home/cristian/Escritorio/Proyecto_Grafeno/pseudopotenciales/Cr.pbe-spn-rrkjus_psl.1.0.0.UPF
     MD5 check sum: 793d051e4f89dd1e3290b85340a92c0a
     Pseudo is Ultrasoft + core correction, Zval = 14.0
     Generated using "atomic" code by A. Dal Corso v.6.2.2
     Using radial grid of 1183 points,  6 beta functions with: 
                l(1) =   0
                l(2) =   0
                l(3) =   1
                l(4) =   1
                l(5) =   2
                l(6) =   2
     Q(r) pseudized with 0 coefficients 


     vdW kernel table read from file rVV10_kernel_table
     MD5 check sum: b8e2538accc0c0b3206b45ba4daaba6c

     atomic species   valence    mass     pseudopotential
        H              1.00     1.00794     H ( 1.00)
        C              4.00    12.01070     C ( 1.00)
        Cr            14.00    51.99610     Cr( 1.00)

      2 Sym. Ops. (no inversion) found


                                    s                        frac. trans.

      isym =  1     identity                                     

 cryst.   s( 1) = (     1          0          0      )
                  (     0          1          0      )
                  (     0          0          1      )

 cart.    s( 1) = (  1.0000000  0.0000000  0.0000000 )
                  (  0.0000000  1.0000000  0.0000000 )
                  (  0.0000000  0.0000000  1.0000000 )


      isym =  2     inv. 180 deg rotation - cryst. axis [1,1,0]  

 cryst.   s( 2) = (     0         -1          0      )
                  (    -1          0          0      )
                  (     0          0          1      )

 cart.    s( 2) = (  0.5000000 -0.8660254  0.0000000 )
                  ( -0.8660254 -0.5000000  0.0000000 )
                  (  0.0000000  0.0000000  1.0000000 )


     point group C_s (m)    
     there are  2 classes
     the character table:

       E     s    
A'     1.00  1.00
A''    1.00 -1.00

     the symmetry operations in each class and the name of the first element:

     E        1
          identity                                               
     s        2
          inv. 180 deg rotation - cryst. axis [1,1,0]            

   Cartesian axes

     site n.     atom                  positions (alat units)
         1           H   tau(   1) = (   0.2500000   0.4330127   0.4056306  )
         2           H   tau(   2) = (   0.2500000   0.4330127   0.4666433  )
         3           C   tau(   3) = (   0.0000000   0.0000000   0.0000000  )
         4           C   tau(   4) = (   0.0000000   0.1154701   0.0000000  )
         5           C   tau(   5) = (  -0.1000000   0.1732051   0.0000000  )
         6           C   tau(   6) = (  -0.1000000   0.2886751   0.0000000  )
         7           C   tau(   7) = (  -0.2000000   0.3464102   0.0000000  )
         8           C   tau(   8) = (  -0.2000000   0.4618802   0.0000000  )
         9           C   tau(   9) = (  -0.3000000   0.5196152   0.0000000  )
        10           C   tau(  10) = (  -0.3000000   0.6350853   0.0000000  )
        11           C   tau(  11) = (  -0.4000000   0.6928203   0.0000000  )
        12           C   tau(  12) = (  -0.4000000   0.8082904   0.0000000  )
        13           C   tau(  13) = (   0.2000000   0.0000000   0.0000000  )
        14           C   tau(  14) = (   0.2000000   0.1154701   0.0000000  )
        15           C   tau(  15) = (   0.1000000   0.1732051   0.0000000  )
        16           C   tau(  16) = (   0.1000000   0.2886751   0.0000000  )
        17           C   tau(  17) = (   0.0000000   0.3464102   0.0000000  )
        18           C   tau(  18) = (   0.0000000   0.4618802   0.0000000  )
        19           C   tau(  19) = (  -0.1000000   0.5196152   0.0000000  )
        20           C   tau(  20) = (  -0.1000000   0.6350853   0.0000000  )
        21           C   tau(  21) = (  -0.2000000   0.6928203   0.0000000  )
        22           C   tau(  22) = (  -0.2000000   0.8082904   0.0000000  )
        23           C   tau(  23) = (   0.4000000   0.0000000   0.0000000  )
        24           C   tau(  24) = (   0.4000000   0.1154701   0.0000000  )
        25           C   tau(  25) = (   0.3000000   0.1732051   0.0000000  )
        26           C   tau(  26) = (   0.3000000   0.2886751   0.0000000  )
        27           C   tau(  27) = (   0.2000000   0.3464102   0.0000000  )
        28           Cr  tau(  28) = (   0.2000000   0.4618802   0.0000000  )
        29           C   tau(  29) = (   0.1000000   0.5196152   0.0000000  )
        30           C   tau(  30) = (   0.1000000   0.6350853   0.0000000  )
        31           C   tau(  31) = (   0.0000000   0.6928203   0.0000000  )
        32           C   tau(  32) = (   0.0000000   0.8082904   0.0000000  )
        33           C   tau(  33) = (   0.6000000   0.0000000   0.0000000  )
        34           C   tau(  34) = (   0.6000000   0.1154701   0.0000000  )
        35           C   tau(  35) = (   0.5000000   0.1732051   0.0000000  )
        36           C   tau(  36) = (   0.5000000   0.2886751   0.0000000  )
        37           C   tau(  37) = (   0.4000000   0.3464102   0.0000000  )
        38           C   tau(  38) = (   0.4000000   0.4618802   0.0000000  )
        39           C   tau(  39) = (   0.3000000   0.5196152   0.0000000  )
        40           C   tau(  40) = (   0.3000000   0.6350853   0.0000000  )
        41           C   tau(  41) = (   0.2000000   0.6928203   0.0000000  )
        42           C   tau(  42) = (   0.2000000   0.8082904   0.0000000  )
        43           C   tau(  43) = (   0.8000000   0.0000000   0.0000000  )
        44           C   tau(  44) = (   0.8000000   0.1154701   0.0000000  )
        45           C   tau(  45) = (   0.7000000   0.1732051   0.0000000  )
        46           C   tau(  46) = (   0.7000000   0.2886751   0.0000000  )
        47           C   tau(  47) = (   0.6000000   0.3464102   0.0000000  )
        48           C   tau(  48) = (   0.6000000   0.4618802   0.0000000  )
        49           C   tau(  49) = (   0.5000000   0.5196152   0.0000000  )
        50           C   tau(  50) = (   0.5000000   0.6350853   0.0000000  )
        51           C   tau(  51) = (   0.4000000   0.6928203   0.0000000  )
        52           C   tau(  52) = (   0.4000000   0.8082904   0.0000000  )

   Crystallographic axes

     site n.     atom                  positions (cryst. coord.)
         1           H   tau(   1) = (  0.5000000  0.5000000  0.5000000  )
         2           H   tau(   2) = (  0.5000000  0.5000000  0.5752072  )
         3           C   tau(   3) = (  0.0000000  0.0000000  0.0000000  )
         4           C   tau(   4) = (  0.0666667  0.1333333  0.0000000  )
         5           C   tau(   5) = (  0.0000000  0.2000000  0.0000000  )
         6           C   tau(   6) = (  0.0666667  0.3333333  0.0000000  )
         7           C   tau(   7) = (  0.0000000  0.4000000  0.0000000  )
         8           C   tau(   8) = (  0.0666667  0.5333333  0.0000000  )
         9           C   tau(   9) = (  0.0000000  0.6000000  0.0000000  )
        10           C   tau(  10) = (  0.0666667  0.7333333  0.0000000  )
        11           C   tau(  11) = (  0.0000000  0.8000000  0.0000000  )
        12           C   tau(  12) = (  0.0666667  0.9333333  0.0000000  )
        13           C   tau(  13) = (  0.2000000  0.0000000  0.0000000  )
        14           C   tau(  14) = (  0.2666667  0.1333333  0.0000000  )
        15           C   tau(  15) = (  0.2000000  0.2000000  0.0000000  )
        16           C   tau(  16) = (  0.2666667  0.3333333  0.0000000  )
        17           C   tau(  17) = (  0.2000000  0.4000000  0.0000000  )
        18           C   tau(  18) = (  0.2666667  0.5333333  0.0000000  )
        19           C   tau(  19) = (  0.2000000  0.6000000  0.0000000  )
        20           C   tau(  20) = (  0.2666667  0.7333333  0.0000000  )
        21           C   tau(  21) = (  0.2000000  0.8000000  0.0000000  )
        22           C   tau(  22) = (  0.2666667  0.9333333  0.0000000  )
        23           C   tau(  23) = (  0.4000000  0.0000000  0.0000000  )
        24           C   tau(  24) = (  0.4666667  0.1333333  0.0000000  )
        25           C   tau(  25) = (  0.4000000  0.2000000  0.0000000  )
        26           C   tau(  26) = (  0.4666667  0.3333333  0.0000000  )
        27           C   tau(  27) = (  0.4000000  0.4000000  0.0000000  )
        28           Cr  tau(  28) = (  0.4666667  0.5333333  0.0000000  )
        29           C   tau(  29) = (  0.4000000  0.6000000  0.0000000  )
        30           C   tau(  30) = (  0.4666667  0.7333333  0.0000000  )
        31           C   tau(  31) = (  0.4000000  0.8000000  0.0000000  )
        32           C   tau(  32) = (  0.4666667  0.9333333  0.0000000  )
        33           C   tau(  33) = (  0.6000000  0.0000000  0.0000000  )
        34           C   tau(  34) = (  0.6666667  0.1333333  0.0000000  )
        35           C   tau(  35) = (  0.6000000  0.2000000  0.0000000  )
        36           C   tau(  36) = (  0.6666667  0.3333333  0.0000000  )
        37           C   tau(  37) = (  0.6000000  0.4000000  0.0000000  )
        38           C   tau(  38) = (  0.6666667  0.5333333  0.0000000  )
        39           C   tau(  39) = (  0.6000000  0.6000000  0.0000000  )
        40           C   tau(  40) = (  0.6666667  0.7333333  0.0000000  )
        41           C   tau(  41) = (  0.6000000  0.8000000  0.0000000  )
        42           C   tau(  42) = (  0.6666667  0.9333333  0.0000000  )
        43           C   tau(  43) = (  0.8000000  0.0000000  0.0000000  )
        44           C   tau(  44) = (  0.8666667  0.1333333  0.0000000  )
        45           C   tau(  45) = (  0.8000000  0.2000000  0.0000000  )
        46           C   tau(  46) = (  0.8666667  0.3333333  0.0000000  )
        47           C   tau(  47) = (  0.8000000  0.4000000  0.0000000  )
        48           C   tau(  48) = (  0.8666667  0.5333333  0.0000000  )
        49           C   tau(  49) = (  0.8000000  0.6000000  0.0000000  )
        50           C   tau(  50) = (  0.8666667  0.7333333  0.0000000  )
        51           C   tau(  51) = (  0.8000000  0.8000000  0.0000000  )
        52           C   tau(  52) = (  0.8666667  0.9333333  0.0000000  )

     number of k points=     1  Marzari-Vanderbilt smearing, width (Ry)=  0.0010
                       cart. coord. in units 2pi/alat
        k(    1) = (   0.0000000   0.0000000   0.0000000), wk =   2.0000000

                       cryst. coord.
        k(    1) = (   0.0000000   0.0000000   0.0000000), wk =   2.0000000

     Dense  grid:  1626001 G-vectors     FFT dimensions: ( 180, 180, 135)

     Smooth grid:   702581 G-vectors     FFT dimensions: ( 125, 125, 108)

     Dynamical RAM for                 wfc:      28.36 MB

     Dynamical RAM for     wfc (w. buffer):      28.36 MB

     Dynamical RAM for           str. fact:      12.41 MB

     Dynamical RAM for           local pot:       0.00 MB

     Dynamical RAM for          nlocal pot:      92.46 MB

     Dynamical RAM for                qrad:      19.73 MB

     Dynamical RAM for          rho,v,vnew:      29.46 MB

     Dynamical RAM for               rhoin:       9.82 MB

     Dynamical RAM for            rho*nmix:      66.16 MB

     Dynamical RAM for           G-vectors:      16.40 MB

     Dynamical RAM for          h,s,v(r/c):      11.81 MB

     Dynamical RAM for          <psi|beta>:       0.80 MB

     Dynamical RAM for                 psi:     113.46 MB

     Dynamical RAM for                hpsi:     113.46 MB

     Dynamical RAM for                spsi:     113.46 MB

     Dynamical RAM for      wfcinit/wfcrot:      93.90 MB

     Dynamical RAM for           addusdens:     971.75 MB

     Estimated static dynamical RAM per process >     319.78 MB

     Estimated max dynamical RAM per process >       1.26 GB

     Estimated total dynamical RAM >       7.57 GB

     Check: negative core charge=   -0.000002

     Initial potential from superposition of free atoms

     starting charge  211.80478, renormalised to  212.00000

     negative rho (up, down):  4.343E-04 0.000E+00


---------------------------------------------------------------------------------
Carrying out rVV10 run using the following parameters:
Nqs =      20    Nr_points =    1024   r_max =   100.000
b_value =  6.30000    beta =  0.00901
     q_mesh =  0.00010000  0.00030000  0.00058939  0.00100810
               0.00161396  0.00249058  0.00375900  0.00559430
               0.00824984  0.01209221  0.01765183  0.02569619
               0.03733578  0.05417739  0.07854596  0.11380545
               0.16482331  0.23864234  0.34545298  0.50000000

Gradients computed in Reciprocal space

---------------------------------------------------------------------------------


     Starting wfcs are  208 randomized atomic wfcs

     total cpu time spent up to now is       54.0 secs

     Self-consistent Calculation

     iteration #  1     ecut=    70.00 Ry     beta= 0.70
     Davidson diagonalization with overlap
     ethr =  1.00E-02,  avg # of iterations =  2.0

     negative rho (up, down):  7.065E-04 0.000E+00

     total cpu time spent up to now is      119.1 secs

     total energy              =    -785.45149935 Ry
     Harris-Foulkes estimate   =    -789.92647646 Ry
     estimated scf accuracy    <       7.08441000 Ry

     iteration #  2     ecut=    70.00 Ry     beta= 0.70
     Davidson diagonalization with overlap
     ethr =  3.34E-03,  avg # of iterations =  8.0

     negative rho (up, down):  8.180E-04 0.000E+00

     total cpu time spent up to now is      185.9 secs

     total energy              =    -779.69374054 Ry
     Harris-Foulkes estimate   =    -788.38363904 Ry
     estimated scf accuracy    <      25.66330670 Ry

     iteration #  3     ecut=    70.00 Ry     beta= 0.70
     Davidson diagonalization with overlap
     ethr =  3.34E-03,  avg # of iterations =  4.0

     negative rho (up, down):  1.059E-03 0.000E+00

     total cpu time spent up to now is      262.7 secs

     total energy              =    -784.21713042 Ry
     Harris-Foulkes estimate   =    -790.66342972 Ry
     estimated scf accuracy    <      39.21997740 Ry

     iteration #  4     ecut=    70.00 Ry     beta= 0.70
     Davidson diagonalization with overlap
     ethr =  3.34E-03,  avg # of iterations =  4.0

     negative rho (up, down):  1.061E-03 0.000E+00

     total cpu time spent up to now is      314.6 secs

     total energy              =    -786.73451716 Ry
     Harris-Foulkes estimate   =    -787.29274322 Ry
     estimated scf accuracy    <       2.28130834 Ry

     iteration #  5     ecut=    70.00 Ry     beta= 0.70
     Davidson diagonalization with overlap
     ethr =  1.08E-03,  avg # of iterations =  3.0

     negative rho (up, down):  1.153E-03 0.000E+00

     total cpu time spent up to now is      364.6 secs

     total energy              =    -786.91567518 Ry
     Harris-Foulkes estimate   =    -786.99558842 Ry
     estimated scf accuracy    <       0.25229632 Ry

     iteration #  6     ecut=    70.00 Ry     beta= 0.70
     Davidson diagonalization with overlap
     ethr =  1.19E-04,  avg # of iterations =  7.0

     negative rho (up, down):  1.335E-03 0.000E+00

     total cpu time spent up to now is      423.2 secs

     total energy              =    -786.94047933 Ry
     Harris-Foulkes estimate   =    -786.99026560 Ry
     estimated scf accuracy    <       0.24455819 Ry

     iteration #  7     ecut=    70.00 Ry     beta= 0.70
     Davidson diagonalization with overlap
     ethr =  1.15E-04,  avg # of iterations =  2.0

     negative rho (up, down):  1.453E-03 0.000E+00

     total cpu time spent up to now is      471.5 secs

     total energy              =    -786.94029124 Ry
     Harris-Foulkes estimate   =    -786.95698258 Ry
     estimated scf accuracy    <       0.09785371 Ry

     iteration #  8     ecut=    70.00 Ry     beta= 0.70
     Davidson diagonalization with overlap
     ethr =  4.62E-05,  avg # of iterations =  8.0

     negative rho (up, down):  1.840E-03 0.000E+00

     total cpu time spent up to now is      521.8 secs

     total energy              =    -786.94388610 Ry
     Harris-Foulkes estimate   =    -786.95870986 Ry
     estimated scf accuracy    <       0.10310270 Ry

     iteration #  9     ecut=    70.00 Ry     beta= 0.70
     Davidson diagonalization with overlap
     ethr =  4.62E-05,  avg # of iterations =  2.0

     negative rho (up, down):  2.887E-03 0.000E+00

     total cpu time spent up to now is      570.8 secs

     total energy              =    -786.92843853 Ry
     Harris-Foulkes estimate   =    -786.95052395 Ry
     estimated scf accuracy    <       0.55503287 Ry

     iteration # 10     ecut=    70.00 Ry     beta= 0.70
     Davidson diagonalization with overlap
     ethr =  4.62E-05,  avg # of iterations =  1.0

     negative rho (up, down):  2.492E-03 0.000E+00

     total cpu time spent up to now is      618.8 secs

     total energy              =    -786.94225242 Ry
     Harris-Foulkes estimate   =    -786.94626710 Ry
     estimated scf accuracy    <       0.05591406 Ry

     iteration # 11     ecut=    70.00 Ry     beta= 0.70
     Davidson diagonalization with overlap
     ethr =  2.64E-05,  avg # of iterations =  1.0

     negative rho (up, down):  2.488E-03 0.000E+00

     total cpu time spent up to now is      666.8 secs

     total energy              =    -786.94373963 Ry
     Harris-Foulkes estimate   =    -786.94471820 Ry
     estimated scf accuracy    <       0.01039669 Ry

     iteration # 12     ecut=    70.00 Ry     beta= 0.70
     Davidson diagonalization with overlap
     ethr =  4.90E-06,  avg # of iterations =  9.0

     negative rho (up, down):  2.489E-03 0.000E+00

     total cpu time spent up to now is      720.6 secs

     total energy              =    -786.94423568 Ry
     Harris-Foulkes estimate   =    -786.94462589 Ry
     estimated scf accuracy    <       0.01147500 Ry

     iteration # 13     ecut=    70.00 Ry     beta= 0.70
     Davidson diagonalization with overlap
     ethr =  4.90E-06,  avg # of iterations =  1.0

     negative rho (up, down):  2.477E-03 0.000E+00

     total cpu time spent up to now is      768.7 secs

     total energy              =    -786.94434671 Ry
     Harris-Foulkes estimate   =    -786.94458400 Ry
     estimated scf accuracy    <       0.00350456 Ry

     iteration # 14     ecut=    70.00 Ry     beta= 0.70
     Davidson diagonalization with overlap
     ethr =  1.65E-06,  avg # of iterations =  1.0

     negative rho (up, down):  2.472E-03 0.000E+00

     total cpu time spent up to now is      816.7 secs

     total energy              =    -786.94438331 Ry
     Harris-Foulkes estimate   =    -786.94441815 Ry
     estimated scf accuracy    <       0.00222187 Ry

     iteration # 15     ecut=    70.00 Ry     beta= 0.70
     Davidson diagonalization with overlap
     ethr =  1.05E-06,  avg # of iterations =  1.0

     negative rho (up, down):  2.470E-03 0.000E+00

     total cpu time spent up to now is      864.8 secs

     total energy              =    -786.94434846 Ry
     Harris-Foulkes estimate   =    -786.94439567 Ry
     estimated scf accuracy    <       0.00188659 Ry

     iteration # 16     ecut=    70.00 Ry     beta= 0.70
     Davidson diagonalization with overlap
     ethr =  8.90E-07,  avg # of iterations =  1.0

     negative rho (up, down):  2.468E-03 0.000E+00

     total cpu time spent up to now is      912.8 secs

     total energy              =    -786.94434996 Ry
     Harris-Foulkes estimate   =    -786.94435641 Ry
     estimated scf accuracy    <       0.00161092 Ry

     iteration # 17     ecut=    70.00 Ry     beta= 0.70
     Davidson diagonalization with overlap
     ethr =  7.60E-07,  avg # of iterations =  1.0

     negative rho (up, down):  2.463E-03 0.000E+00

     total cpu time spent up to now is      960.8 secs

     total energy              =    -786.94429858 Ry
     Harris-Foulkes estimate   =    -786.94435264 Ry
     estimated scf accuracy    <       0.00162348 Ry

     iteration # 18     ecut=    70.00 Ry     beta= 0.70
     Davidson diagonalization with overlap
     ethr =  7.60E-07,  avg # of iterations =  1.0

     negative rho (up, down):  2.469E-03 0.000E+00

     total cpu time spent up to now is     1008.9 secs

     total energy              =    -786.94385203 Ry
     Harris-Foulkes estimate   =    -786.94430411 Ry
     estimated scf accuracy    <       0.00123298 Ry

     iteration # 19     ecut=    70.00 Ry     beta= 0.70
     Davidson diagonalization with overlap
     ethr =  5.82E-07,  avg # of iterations =  3.0

     negative rho (up, down):  2.477E-03 0.000E+00

     total cpu time spent up to now is     1061.9 secs

     total energy              =    -786.94412540 Ry
     Harris-Foulkes estimate   =    -786.94415164 Ry
     estimated scf accuracy    <       0.00027944 Ry

     iteration # 20     ecut=    70.00 Ry     beta= 0.70
     Davidson diagonalization with overlap
     ethr =  1.32E-07,  avg # of iterations =  3.0

     negative rho (up, down):  2.482E-03 0.000E+00

     total cpu time spent up to now is     1110.9 secs

     total energy              =    -786.94413217 Ry
     Harris-Foulkes estimate   =    -786.94414935 Ry
     estimated scf accuracy    <       0.00018916 Ry

     iteration # 21     ecut=    70.00 Ry     beta= 0.70
     Davidson diagonalization with overlap
     ethr =  8.92E-08,  avg # of iterations =  2.0

     negative rho (up, down):  2.485E-03 0.000E+00

     total cpu time spent up to now is     1159.3 secs

     total energy              =    -786.94414052 Ry
     Harris-Foulkes estimate   =    -786.94414095 Ry
     estimated scf accuracy    <       0.00000214 Ry

     iteration # 22     ecut=    70.00 Ry     beta= 0.70
     Davidson diagonalization with overlap
     ethr =  1.01E-09,  avg # of iterations =  4.0

     negative rho (up, down):  2.487E-03 0.000E+00

     total cpu time spent up to now is     1220.5 secs

     total energy              =    -786.94414144 Ry
     Harris-Foulkes estimate   =    -786.94414178 Ry
     estimated scf accuracy    <       0.00000625 Ry

     iteration # 23     ecut=    70.00 Ry     beta= 0.70
     Davidson diagonalization with overlap
     ethr =  1.01E-09,  avg # of iterations =  2.0

     negative rho (up, down):  2.488E-03 0.000E+00

     total cpu time spent up to now is     1269.5 secs

     End of self-consistent calculation

          k = 0.0000 0.0000 0.0000 ( 87777 PWs)   bands (ev):

   -71.8532 -44.1470 -44.1465 -43.0357 -19.6386 -18.8003 -18.8002 -18.7073
   -18.7071 -18.7059 -18.3364 -16.9529 -16.9527 -16.9475 -16.8419 -16.8418
   -16.5400 -16.0996 -16.0995 -15.9991 -15.9183 -15.9183 -15.2052 -13.9629
   -13.9629 -13.9196 -13.8685 -13.8685 -13.2055 -12.9437 -12.9436 -12.9142
   -12.5892 -12.5891 -12.1510 -11.7042 -11.7041 -11.5394 -11.2332 -11.2332
   -10.2671  -9.4844  -9.4844  -9.3258  -9.1914  -9.1913  -9.0982  -9.0666
    -9.0666  -9.0553  -8.5403  -8.5403  -7.9966  -7.9966  -7.8983  -7.7915
    -7.7090  -7.2882  -7.2882  -7.0370  -7.0369  -6.9815  -6.7261  -6.7069
    -6.7068  -6.6919  -6.6918  -6.6684  -6.6010  -6.4367  -6.4367  -6.4081
    -6.4032  -6.4031  -6.3908  -6.3547  -5.3993  -5.3990  -5.3276  -5.3275
    -5.0634  -5.0633  -4.8615  -4.7670  -4.6122  -4.5892  -4.5888  -4.2744
    -4.2563  -4.0401  -4.0400  -3.7230  -3.7228  -3.6412  -3.5445  -3.5445
    -3.4805  -3.4805  -3.0093  -2.4377  -2.4376  -1.7240  -1.6789  -1.6788
    -0.7209  -0.5441  -0.5441  -0.5057   1.0610   1.0830   1.0832   1.7713
     1.8659   1.8659   2.4539   2.9215   2.9219   2.9821   3.3594   3.3998
     3.4168   3.6552   3.6638   3.7063   3.7958   3.7981   3.8314

     occupation numbers 
     1.0000   1.0000   1.0000   1.0000   1.0000   1.0000   1.0000   1.0000
     1.0000   1.0000   1.0000   1.0000   1.0000   1.0000   1.0000   1.0000
     1.0000   1.0000   1.0000   1.0000   1.0000   1.0000   1.0000   1.0000
     1.0000   1.0000   1.0000   1.0000   1.0000   1.0000   1.0000   1.0000
     1.0000   1.0000   1.0000   1.0000   1.0000   1.0000   1.0000   1.0000
     1.0000   1.0000   1.0000   1.0000   1.0000   1.0000   1.0000   1.0000
     1.0000   1.0000   1.0000   1.0000   1.0000   1.0000   1.0000   1.0000
     1.0000   1.0000   1.0000   1.0000   1.0000   1.0000   1.0000   1.0000
     1.0000   1.0000   1.0000   1.0000   1.0000   1.0000   1.0000   1.0000
     1.0000   1.0000   1.0000   1.0000   1.0000   1.0000   1.0000   1.0000
     1.0000   1.0000   1.0000   1.0000   1.0000   1.0000   1.0000   1.0000
     1.0000   1.0000   1.0000   1.0000   1.0000   1.0000   1.0000   1.0000
     1.0000   1.0000   1.0000   1.0000   1.0000   1.0000   1.0000   1.0000
     1.0000   0.5017   0.4983   0.0000   0.0000   0.0000   0.0000   0.0000
     0.0000   0.0000   0.0000   0.0000   0.0000   0.0000   0.0000   0.0000
     0.0000   0.0000   0.0000   0.0000   0.0000   0.0000   0.0000

     the Fermi energy is    -0.5422 ev

!    total energy              =    -786.94414163 Ry
     Harris-Foulkes estimate   =    -786.94414163 Ry
     estimated scf accuracy    <       0.00000029 Ry

     The total energy is the sum of the following terms:

     one-electron contribution =   -2630.56730277 Ry
     hartree contribution      =    1360.92089495 Ry
     xc contribution           =    -254.33406599 Ry
     ewald contribution        =     737.03698856 Ry
     smearing contrib. (-TS)   =      -0.00065639 Ry

     convergence has been achieved in  23 iterations

     Writing output data file gr-12-bridge2.save/

     init_run     :     51.77s CPU     52.94s WALL (       1 calls)
     electrons    :   1178.21s CPU   1215.59s WALL (       1 calls)

     Called by init_run:
     wfcinit      :     20.47s CPU     20.62s WALL (       1 calls)
     wfcinit:atom :      0.03s CPU      0.05s WALL (       1 calls)
     wfcinit:wfcr :     20.27s CPU     20.37s WALL (       1 calls)
     potinit      :     13.75s CPU     14.13s WALL (       1 calls)
     hinit0       :     12.91s CPU     12.96s WALL (       1 calls)

     Called by electrons:
     c_bands      :    711.97s CPU    716.47s WALL (      23 calls)
     sum_band     :    229.38s CPU    242.19s WALL (      23 calls)
     v_of_rho     :    144.97s CPU    153.60s WALL (      24 calls)
     v_h          :      1.64s CPU      1.69s WALL (      24 calls)
     v_xc         :    143.34s CPU    151.90s WALL (      24 calls)
     newd         :     94.75s CPU    106.91s WALL (      24 calls)
     mix_rho      :      4.48s CPU      4.58s WALL (      23 calls)

     Called by c_bands:
     init_us_2    :      1.97s CPU      2.00s WALL (      47 calls)
     cegterg      :    706.49s CPU    710.94s WALL (      23 calls)

     Called by sum_band:
     sum_band:bec :      0.02s CPU      0.02s WALL (      23 calls)
     addusdens    :    141.40s CPU    153.33s WALL (      23 calls)

     Called by *egterg:
     h_psi        :    376.19s CPU    379.25s WALL (      95 calls)
     s_psi        :    127.17s CPU    127.27s WALL (      95 calls)
     g_psi        :      0.41s CPU      0.41s WALL (      71 calls)
     cdiaghg      :      6.63s CPU      6.63s WALL (      94 calls)
     cegterg:over :     86.56s CPU     86.62s WALL (      71 calls)
     cegterg:upda :     51.91s CPU     52.32s WALL (      71 calls)
     cegterg:last :     36.57s CPU     36.58s WALL (      23 calls)

     Called by h_psi:
     h_psi:pot    :    375.78s CPU    378.32s WALL (      95 calls)
     h_psi:calbec :    126.76s CPU    126.90s WALL (      95 calls)
     vloc_psi     :    121.80s CPU    124.14s WALL (      95 calls)
     add_vuspsi   :    127.21s CPU    127.28s WALL (      95 calls)

     General routines
     calbec       :    181.10s CPU    181.29s WALL (     118 calls)
     fft          :     79.65s CPU     82.65s WALL (    1510 calls)
     ffts         :      0.82s CPU      0.84s WALL (      47 calls)
     fftw         :    129.40s CPU    132.08s WALL (   16605 calls)
     interpolate  :      2.01s CPU      2.07s WALL (      24 calls)

     Parallel routines
     fft_scatt_xy :     36.65s CPU     37.15s WALL (   18162 calls)
     fft_scatt_yz :     70.70s CPU     74.82s WALL (   18162 calls)

     PWSCF        :  20m31.15s CPU  21m 9.96s WALL


   This run was terminated on:  12:55: 5  20Jul2022            

=------------------------------------------------------------------------------=
   JOB DONE.
=------------------------------------------------------------------------------=
