
     Program PWSCF v.6.4.1 starts on 20Jul2022 at 16: 2:40 

     This program is part of the open-source Quantum ESPRESSO suite
     for quantum simulation of materials; please cite
         "P. Giannozzi et al., J. Phys.:Condens. Matter 21 395502 (2009);
         "P. Giannozzi et al., J. Phys.:Condens. Matter 29 465901 (2017);
          URL http://www.quantum-espresso.org", 
     in publications or presentations arising from this work. More details at
     http://www.quantum-espresso.org/quote

     Parallel version (MPI), running on     6 processors

     MPI processes distributed on     1 nodes
     R & G space division:  proc/nbgrp/npool/nimage =       6
     Reading input from distance-1.8.in

     Current dimensions of program PWSCF are:
     Max number of different atomic species (ntypx) = 10
     Max number of k-points (npk) =  40000
     Max angular momentum in pseudopotentials (lmaxx) =  3

     IMPORTANT: XC functional enforced from input :
     Exchange-correlation      = RVV10 ( 1  4 13  4 3 0)
     Any further DFT definition will be discarded
     Please, verify this is what you really want

               file H.pbe-rrkjus.UPF: wavefunction(s)  1S renormalized
               file Cr.pbe-spn-rrkjus_psl.1.0.0.UPF: wavefunction(s)  3P renormalized

     Subspace diagonalization in iterative solution of the eigenvalue problem:
     a serial algorithm will be used


     Parallelization info
     --------------------
     sticks:   dense  smooth     PW     G-vecs:    dense   smooth      PW
     Min        3051    1746    432               270999   117096   14629
     Max        3053    1747    437               271001   117099   14630
     Sum       18313   10477   2611              1626001   702581   87777



     bravais-lattice index     =            4
     lattice parameter (alat)  =      23.2937  a.u.
     unit-cell volume          =    8879.8548 (a.u.)^3
     number of atoms/cell      =           52
     number of atomic types    =            3
     number of electrons       =       212.00
     number of Kohn-Sham states=          127
     kinetic-energy cutoff     =      70.0000  Ry
     charge density cutoff     =     490.0000  Ry
     convergence threshold     =      1.0E-06
     mixing beta               =       0.7000
     number of iterations used =            8  plain     mixing
     Exchange-correlation      = RVV10 ( 1  4 13  4 3 0)

     celldm(1)=  23.293684  celldm(2)=   0.000000  celldm(3)=   0.811261
     celldm(4)=   0.000000  celldm(5)=   0.000000  celldm(6)=   0.000000

     crystal axes: (cart. coord. in units of alat)
               a(1) = (   1.000000   0.000000   0.000000 )  
               a(2) = (  -0.500000   0.866025   0.000000 )  
               a(3) = (   0.000000   0.000000   0.811261 )  

     reciprocal axes: (cart. coord. in units 2 pi/alat)
               b(1) = (  1.000000  0.577350 -0.000000 )  
               b(2) = (  0.000000  1.154701  0.000000 )  
               b(3) = (  0.000000 -0.000000  1.232649 )  


     PseudoPot. # 1 for H  read from file:
     /home/cristian/Escritorio/Proyecto_Grafeno/pseudopotenciales/H.pbe-rrkjus.UPF
     MD5 check sum: 7cc9d459525c9a0585f487a71c3c9563
     Pseudo is Ultrasoft, Zval =  1.0
     Generated by new atomic code, or converted to UPF format
     Using radial grid of 1061 points,  2 beta functions with: 
                l(1) =   0
                l(2) =   0
     Q(r) pseudized with 0 coefficients 


     PseudoPot. # 2 for C  read from file:
     /home/cristian/Escritorio/Proyecto_Grafeno/pseudopotenciales/C.pbe-n-rrkjus_psl.1.0.0.UPF
     MD5 check sum: 1fdd950c42eb37d8afe3dd2f8d12311e
     Pseudo is Ultrasoft + core correction, Zval =  4.0
     Generated using "atomic" code by A. Dal Corso v.6.3MaX
     Using radial grid of 1073 points,  4 beta functions with: 
                l(1) =   0
                l(2) =   0
                l(3) =   1
                l(4) =   1
     Q(r) pseudized with 0 coefficients 


     PseudoPot. # 3 for Cr read from file:
     /home/cristian/Escritorio/Proyecto_Grafeno/pseudopotenciales/Cr.pbe-spn-rrkjus_psl.1.0.0.UPF
     MD5 check sum: 793d051e4f89dd1e3290b85340a92c0a
     Pseudo is Ultrasoft + core correction, Zval = 14.0
     Generated using "atomic" code by A. Dal Corso v.6.2.2
     Using radial grid of 1183 points,  6 beta functions with: 
                l(1) =   0
                l(2) =   0
                l(3) =   1
                l(4) =   1
                l(5) =   2
                l(6) =   2
     Q(r) pseudized with 0 coefficients 


     vdW kernel table read from file rVV10_kernel_table
     MD5 check sum: b8e2538accc0c0b3206b45ba4daaba6c

     atomic species   valence    mass     pseudopotential
        H              1.00     1.00794     H ( 1.00)
        C              4.00    12.01070     C ( 1.00)
        Cr            14.00    51.99610     Cr( 1.00)

      2 Sym. Ops. (no inversion) found


                                    s                        frac. trans.

      isym =  1     identity                                     

 cryst.   s( 1) = (     1          0          0      )
                  (     0          1          0      )
                  (     0          0          1      )

 cart.    s( 1) = (  1.0000000  0.0000000  0.0000000 )
                  (  0.0000000  1.0000000  0.0000000 )
                  (  0.0000000  0.0000000  1.0000000 )


      isym =  2     inv. 180 deg rotation - cryst. axis [1,1,0]  

 cryst.   s( 2) = (     0         -1          0      )
                  (    -1          0          0      )
                  (     0          0          1      )

 cart.    s( 2) = (  0.5000000 -0.8660254  0.0000000 )
                  ( -0.8660254 -0.5000000  0.0000000 )
                  (  0.0000000  0.0000000  1.0000000 )


     point group C_s (m)    
     there are  2 classes
     the character table:

       E     s    
A'     1.00  1.00
A''    1.00 -1.00

     the symmetry operations in each class and the name of the first element:

     E        1
          identity                                               
     s        2
          inv. 180 deg rotation - cryst. axis [1,1,0]            

   Cartesian axes

     site n.     atom                  positions (alat units)
         1           H   tau(   1) = (   0.2500000   0.4330127   0.1460270  )
         2           H   tau(   2) = (   0.2500000   0.4330127   0.2070397  )
         3           C   tau(   3) = (   0.0000000   0.0000000   0.0000000  )
         4           C   tau(   4) = (   0.0000000   0.1154701   0.0000000  )
         5           C   tau(   5) = (  -0.1000000   0.1732051   0.0000000  )
         6           C   tau(   6) = (  -0.1000000   0.2886751   0.0000000  )
         7           C   tau(   7) = (  -0.2000000   0.3464102   0.0000000  )
         8           C   tau(   8) = (  -0.2000000   0.4618802   0.0000000  )
         9           C   tau(   9) = (  -0.3000000   0.5196152   0.0000000  )
        10           C   tau(  10) = (  -0.3000000   0.6350853   0.0000000  )
        11           C   tau(  11) = (  -0.4000000   0.6928203   0.0000000  )
        12           C   tau(  12) = (  -0.4000000   0.8082904   0.0000000  )
        13           C   tau(  13) = (   0.2000000   0.0000000   0.0000000  )
        14           C   tau(  14) = (   0.2000000   0.1154701   0.0000000  )
        15           C   tau(  15) = (   0.1000000   0.1732051   0.0000000  )
        16           C   tau(  16) = (   0.1000000   0.2886751   0.0000000  )
        17           C   tau(  17) = (   0.0000000   0.3464102   0.0000000  )
        18           C   tau(  18) = (   0.0000000   0.4618802   0.0000000  )
        19           C   tau(  19) = (  -0.1000000   0.5196152   0.0000000  )
        20           C   tau(  20) = (  -0.1000000   0.6350853   0.0000000  )
        21           C   tau(  21) = (  -0.2000000   0.6928203   0.0000000  )
        22           C   tau(  22) = (  -0.2000000   0.8082904   0.0000000  )
        23           C   tau(  23) = (   0.4000000   0.0000000   0.0000000  )
        24           C   tau(  24) = (   0.4000000   0.1154701   0.0000000  )
        25           C   tau(  25) = (   0.3000000   0.1732051   0.0000000  )
        26           C   tau(  26) = (   0.3000000   0.2886751   0.0000000  )
        27           C   tau(  27) = (   0.2000000   0.3464102   0.0000000  )
        28           Cr  tau(  28) = (   0.2000000   0.4618802   0.0000000  )
        29           C   tau(  29) = (   0.1000000   0.5196152   0.0000000  )
        30           C   tau(  30) = (   0.1000000   0.6350853   0.0000000  )
        31           C   tau(  31) = (   0.0000000   0.6928203   0.0000000  )
        32           C   tau(  32) = (   0.0000000   0.8082904   0.0000000  )
        33           C   tau(  33) = (   0.6000000   0.0000000   0.0000000  )
        34           C   tau(  34) = (   0.6000000   0.1154701   0.0000000  )
        35           C   tau(  35) = (   0.5000000   0.1732051   0.0000000  )
        36           C   tau(  36) = (   0.5000000   0.2886751   0.0000000  )
        37           C   tau(  37) = (   0.4000000   0.3464102   0.0000000  )
        38           C   tau(  38) = (   0.4000000   0.4618802   0.0000000  )
        39           C   tau(  39) = (   0.3000000   0.5196152   0.0000000  )
        40           C   tau(  40) = (   0.3000000   0.6350853   0.0000000  )
        41           C   tau(  41) = (   0.2000000   0.6928203   0.0000000  )
        42           C   tau(  42) = (   0.2000000   0.8082904   0.0000000  )
        43           C   tau(  43) = (   0.8000000   0.0000000   0.0000000  )
        44           C   tau(  44) = (   0.8000000   0.1154701   0.0000000  )
        45           C   tau(  45) = (   0.7000000   0.1732051   0.0000000  )
        46           C   tau(  46) = (   0.7000000   0.2886751   0.0000000  )
        47           C   tau(  47) = (   0.6000000   0.3464102   0.0000000  )
        48           C   tau(  48) = (   0.6000000   0.4618802   0.0000000  )
        49           C   tau(  49) = (   0.5000000   0.5196152   0.0000000  )
        50           C   tau(  50) = (   0.5000000   0.6350853   0.0000000  )
        51           C   tau(  51) = (   0.4000000   0.6928203   0.0000000  )
        52           C   tau(  52) = (   0.4000000   0.8082904   0.0000000  )

   Crystallographic axes

     site n.     atom                  positions (cryst. coord.)
         1           H   tau(   1) = (  0.5000000  0.5000000  0.1800000  )
         2           H   tau(   2) = (  0.5000000  0.5000000  0.2552072  )
         3           C   tau(   3) = (  0.0000000  0.0000000  0.0000000  )
         4           C   tau(   4) = (  0.0666667  0.1333333  0.0000000  )
         5           C   tau(   5) = (  0.0000000  0.2000000  0.0000000  )
         6           C   tau(   6) = (  0.0666667  0.3333333  0.0000000  )
         7           C   tau(   7) = (  0.0000000  0.4000000  0.0000000  )
         8           C   tau(   8) = (  0.0666667  0.5333333  0.0000000  )
         9           C   tau(   9) = (  0.0000000  0.6000000  0.0000000  )
        10           C   tau(  10) = (  0.0666667  0.7333333  0.0000000  )
        11           C   tau(  11) = (  0.0000000  0.8000000  0.0000000  )
        12           C   tau(  12) = (  0.0666667  0.9333333  0.0000000  )
        13           C   tau(  13) = (  0.2000000  0.0000000  0.0000000  )
        14           C   tau(  14) = (  0.2666667  0.1333333  0.0000000  )
        15           C   tau(  15) = (  0.2000000  0.2000000  0.0000000  )
        16           C   tau(  16) = (  0.2666667  0.3333333  0.0000000  )
        17           C   tau(  17) = (  0.2000000  0.4000000  0.0000000  )
        18           C   tau(  18) = (  0.2666667  0.5333333  0.0000000  )
        19           C   tau(  19) = (  0.2000000  0.6000000  0.0000000  )
        20           C   tau(  20) = (  0.2666667  0.7333333  0.0000000  )
        21           C   tau(  21) = (  0.2000000  0.8000000  0.0000000  )
        22           C   tau(  22) = (  0.2666667  0.9333333  0.0000000  )
        23           C   tau(  23) = (  0.4000000  0.0000000  0.0000000  )
        24           C   tau(  24) = (  0.4666667  0.1333333  0.0000000  )
        25           C   tau(  25) = (  0.4000000  0.2000000  0.0000000  )
        26           C   tau(  26) = (  0.4666667  0.3333333  0.0000000  )
        27           C   tau(  27) = (  0.4000000  0.4000000  0.0000000  )
        28           Cr  tau(  28) = (  0.4666667  0.5333333  0.0000000  )
        29           C   tau(  29) = (  0.4000000  0.6000000  0.0000000  )
        30           C   tau(  30) = (  0.4666667  0.7333333  0.0000000  )
        31           C   tau(  31) = (  0.4000000  0.8000000  0.0000000  )
        32           C   tau(  32) = (  0.4666667  0.9333333  0.0000000  )
        33           C   tau(  33) = (  0.6000000  0.0000000  0.0000000  )
        34           C   tau(  34) = (  0.6666667  0.1333333  0.0000000  )
        35           C   tau(  35) = (  0.6000000  0.2000000  0.0000000  )
        36           C   tau(  36) = (  0.6666667  0.3333333  0.0000000  )
        37           C   tau(  37) = (  0.6000000  0.4000000  0.0000000  )
        38           C   tau(  38) = (  0.6666667  0.5333333  0.0000000  )
        39           C   tau(  39) = (  0.6000000  0.6000000  0.0000000  )
        40           C   tau(  40) = (  0.6666667  0.7333333  0.0000000  )
        41           C   tau(  41) = (  0.6000000  0.8000000  0.0000000  )
        42           C   tau(  42) = (  0.6666667  0.9333333  0.0000000  )
        43           C   tau(  43) = (  0.8000000  0.0000000  0.0000000  )
        44           C   tau(  44) = (  0.8666667  0.1333333  0.0000000  )
        45           C   tau(  45) = (  0.8000000  0.2000000  0.0000000  )
        46           C   tau(  46) = (  0.8666667  0.3333333  0.0000000  )
        47           C   tau(  47) = (  0.8000000  0.4000000  0.0000000  )
        48           C   tau(  48) = (  0.8666667  0.5333333  0.0000000  )
        49           C   tau(  49) = (  0.8000000  0.6000000  0.0000000  )
        50           C   tau(  50) = (  0.8666667  0.7333333  0.0000000  )
        51           C   tau(  51) = (  0.8000000  0.8000000  0.0000000  )
        52           C   tau(  52) = (  0.8666667  0.9333333  0.0000000  )

     number of k points=     1  Marzari-Vanderbilt smearing, width (Ry)=  0.0010
                       cart. coord. in units 2pi/alat
        k(    1) = (   0.0000000   0.0000000   0.0000000), wk =   2.0000000

                       cryst. coord.
        k(    1) = (   0.0000000   0.0000000   0.0000000), wk =   2.0000000

     Dense  grid:  1626001 G-vectors     FFT dimensions: ( 180, 180, 135)

     Smooth grid:   702581 G-vectors     FFT dimensions: ( 125, 125, 108)

     Dynamical RAM for                 wfc:      28.36 MB

     Dynamical RAM for     wfc (w. buffer):      28.36 MB

     Dynamical RAM for           str. fact:      12.41 MB

     Dynamical RAM for           local pot:       0.00 MB

     Dynamical RAM for          nlocal pot:      92.46 MB

     Dynamical RAM for                qrad:      19.73 MB

     Dynamical RAM for          rho,v,vnew:      29.46 MB

     Dynamical RAM for               rhoin:       9.82 MB

     Dynamical RAM for            rho*nmix:      66.16 MB

     Dynamical RAM for           G-vectors:      16.40 MB

     Dynamical RAM for          h,s,v(r/c):      11.81 MB

     Dynamical RAM for          <psi|beta>:       0.80 MB

     Dynamical RAM for                 psi:     113.46 MB

     Dynamical RAM for                hpsi:     113.46 MB

     Dynamical RAM for                spsi:     113.46 MB

     Dynamical RAM for      wfcinit/wfcrot:      93.90 MB

     Dynamical RAM for           addusdens:     971.75 MB

     Estimated static dynamical RAM per process >     319.78 MB

     Estimated max dynamical RAM per process >       1.26 GB

     Estimated total dynamical RAM >       7.57 GB

     Check: negative core charge=   -0.000002

     Initial potential from superposition of free atoms

     starting charge  211.80478, renormalised to  212.00000

     negative rho (up, down):  6.147E-04 0.000E+00


---------------------------------------------------------------------------------
Carrying out rVV10 run using the following parameters:
Nqs =      20    Nr_points =    1024   r_max =   100.000
b_value =  6.30000    beta =  0.00901
     q_mesh =  0.00010000  0.00030000  0.00058939  0.00100810
               0.00161396  0.00249058  0.00375900  0.00559430
               0.00824984  0.01209221  0.01765183  0.02569619
               0.03733578  0.05417739  0.07854596  0.11380545
               0.16482331  0.23864234  0.34545298  0.50000000

Gradients computed in Reciprocal space

---------------------------------------------------------------------------------


     Starting wfcs are  208 randomized atomic wfcs

     total cpu time spent up to now is       50.3 secs

     Self-consistent Calculation

     iteration #  1     ecut=    70.00 Ry     beta= 0.70
     Davidson diagonalization with overlap
     ethr =  1.00E-02,  avg # of iterations =  2.0

     negative rho (up, down):  1.050E-03 0.000E+00

     total cpu time spent up to now is      115.4 secs

     total energy              =    -781.30902185 Ry
     Harris-Foulkes estimate   =    -790.30838325 Ry
     estimated scf accuracy    <      12.16771520 Ry

     iteration #  2     ecut=    70.00 Ry     beta= 0.70
     Davidson diagonalization with overlap
     ethr =  5.74E-03,  avg # of iterations =  7.0

     negative rho (up, down):  1.185E-03 0.000E+00

     total cpu time spent up to now is      177.8 secs

     total energy              =    -773.64725404 Ry
     Harris-Foulkes estimate   =    -804.44493049 Ry
     estimated scf accuracy    <     115.54125053 Ry

     iteration #  3     ecut=    70.00 Ry     beta= 0.70
     Davidson diagonalization with overlap
     ethr =  5.74E-03,  avg # of iterations =  5.0

     negative rho (up, down):  1.323E-03 0.000E+00

     total cpu time spent up to now is      260.8 secs

     total energy              =    -785.55758786 Ry
     Harris-Foulkes estimate   =    -788.01303703 Ry
     estimated scf accuracy    <       5.62975398 Ry

     iteration #  4     ecut=    70.00 Ry     beta= 0.70
     Davidson diagonalization with overlap
     ethr =  2.66E-03,  avg # of iterations =  4.0

     negative rho (up, down):  1.495E-03 0.000E+00

     total cpu time spent up to now is      321.1 secs

     total energy              =    -785.98781499 Ry
     Harris-Foulkes estimate   =    -787.57283418 Ry
     estimated scf accuracy    <       6.11591738 Ry

     iteration #  5     ecut=    70.00 Ry     beta= 0.70
     Davidson diagonalization with overlap
     ethr =  2.66E-03,  avg # of iterations =  4.0

     negative rho (up, down):  1.872E-03 0.000E+00

     total cpu time spent up to now is      371.4 secs

     total energy              =    -786.95135153 Ry
     Harris-Foulkes estimate   =    -787.09332978 Ry
     estimated scf accuracy    <       0.96000106 Ry

     iteration #  6     ecut=    70.00 Ry     beta= 0.70
     Davidson diagonalization with overlap
     ethr =  4.53E-04,  avg # of iterations =  4.0

     negative rho (up, down):  2.195E-03 0.000E+00

     total cpu time spent up to now is      421.2 secs

     total energy              =    -786.94648286 Ry
     Harris-Foulkes estimate   =    -786.99010271 Ry
     estimated scf accuracy    <       0.34534038 Ry

     iteration #  7     ecut=    70.00 Ry     beta= 0.70
     Davidson diagonalization with overlap
     ethr =  1.63E-04,  avg # of iterations = 11.0

     negative rho (up, down):  2.414E-03 0.000E+00

     total cpu time spent up to now is      473.1 secs

     total energy              =    -786.93145834 Ry
     Harris-Foulkes estimate   =    -786.98463956 Ry
     estimated scf accuracy    <       0.28564488 Ry

     iteration #  8     ecut=    70.00 Ry     beta= 0.70
     Davidson diagonalization with overlap
     ethr =  1.35E-04,  avg # of iterations =  2.0

     negative rho (up, down):  2.732E-03 0.000E+00

     total cpu time spent up to now is      521.7 secs

     total energy              =    -786.93000487 Ry
     Harris-Foulkes estimate   =    -786.94498674 Ry
     estimated scf accuracy    <       0.07710210 Ry

     iteration #  9     ecut=    70.00 Ry     beta= 0.70
     Davidson diagonalization with overlap
     ethr =  3.64E-05,  avg # of iterations =  8.0

     negative rho (up, down):  2.955E-03 0.000E+00

     total cpu time spent up to now is      574.2 secs

     total energy              =    -786.94067673 Ry
     Harris-Foulkes estimate   =    -786.94550268 Ry
     estimated scf accuracy    <       0.06424631 Ry

     iteration # 10     ecut=    70.00 Ry     beta= 0.70
     Davidson diagonalization with overlap
     ethr =  3.03E-05,  avg # of iterations =  1.0

     negative rho (up, down):  2.887E-03 0.000E+00

     total cpu time spent up to now is      622.3 secs

     total energy              =    -786.93814145 Ry
     Harris-Foulkes estimate   =    -786.94230413 Ry
     estimated scf accuracy    <       0.04839573 Ry

     iteration # 11     ecut=    70.00 Ry     beta= 0.70
     Davidson diagonalization with overlap
     ethr =  2.28E-05,  avg # of iterations =  1.0

     negative rho (up, down):  2.814E-03 0.000E+00

     total cpu time spent up to now is      670.5 secs

     total energy              =    -786.93976438 Ry
     Harris-Foulkes estimate   =    -786.94123286 Ry
     estimated scf accuracy    <       0.02695949 Ry

     iteration # 12     ecut=    70.00 Ry     beta= 0.70
     Davidson diagonalization with overlap
     ethr =  1.27E-05,  avg # of iterations =  1.0

     negative rho (up, down):  2.861E-03 0.000E+00

     total cpu time spent up to now is      718.7 secs

     total energy              =    -786.94036490 Ry
     Harris-Foulkes estimate   =    -786.94042631 Ry
     estimated scf accuracy    <       0.00075472 Ry

     iteration # 13     ecut=    70.00 Ry     beta= 0.70
     Davidson diagonalization with overlap
     ethr =  3.56E-07,  avg # of iterations =  5.0

     negative rho (up, down):  2.864E-03 0.000E+00

     total cpu time spent up to now is      773.2 secs

     total energy              =    -786.94042369 Ry
     Harris-Foulkes estimate   =    -786.94050051 Ry
     estimated scf accuracy    <       0.00039432 Ry

     iteration # 14     ecut=    70.00 Ry     beta= 0.70
     Davidson diagonalization with overlap
     ethr =  1.86E-07,  avg # of iterations =  2.0

     negative rho (up, down):  2.877E-03 0.000E+00

     total cpu time spent up to now is      821.9 secs

     total energy              =    -786.94045673 Ry
     Harris-Foulkes estimate   =    -786.94046638 Ry
     estimated scf accuracy    <       0.00013727 Ry

     iteration # 15     ecut=    70.00 Ry     beta= 0.70
     Davidson diagonalization with overlap
     ethr =  6.47E-08,  avg # of iterations =  2.0

     negative rho (up, down):  2.883E-03 0.000E+00

     total cpu time spent up to now is      870.7 secs

     total energy              =    -786.94046760 Ry
     Harris-Foulkes estimate   =    -786.94046942 Ry
     estimated scf accuracy    <       0.00009684 Ry

     iteration # 16     ecut=    70.00 Ry     beta= 0.70
     Davidson diagonalization with overlap
     ethr =  4.57E-08,  avg # of iterations =  2.0

     negative rho (up, down):  2.884E-03 0.000E+00

     total cpu time spent up to now is      919.5 secs

     total energy              =    -786.94047614 Ry
     Harris-Foulkes estimate   =    -786.94047531 Ry
     estimated scf accuracy    <       0.00006448 Ry

     iteration # 17     ecut=    70.00 Ry     beta= 0.70
     Davidson diagonalization with overlap
     ethr =  3.04E-08,  avg # of iterations =  2.0

     negative rho (up, down):  2.887E-03 0.000E+00

     total cpu time spent up to now is      968.3 secs

     total energy              =    -786.94048301 Ry
     Harris-Foulkes estimate   =    -786.94048056 Ry
     estimated scf accuracy    <       0.00001646 Ry

     iteration # 18     ecut=    70.00 Ry     beta= 0.70
     Davidson diagonalization with overlap
     ethr =  7.76E-09,  avg # of iterations =  3.0

     negative rho (up, down):  2.888E-03 0.000E+00

     total cpu time spent up to now is     1020.5 secs

     total energy              =    -786.94048840 Ry
     Harris-Foulkes estimate   =    -786.94048650 Ry
     estimated scf accuracy    <       0.00000159 Ry

     iteration # 19     ecut=    70.00 Ry     beta= 0.70
     Davidson diagonalization with overlap
     ethr =  7.52E-10,  avg # of iterations =  4.0

     negative rho (up, down):  2.890E-03 0.000E+00

     total cpu time spent up to now is     1081.5 secs

     total energy              =    -786.94049046 Ry
     Harris-Foulkes estimate   =    -786.94049254 Ry
     estimated scf accuracy    <       0.00000210 Ry

     iteration # 20     ecut=    70.00 Ry     beta= 0.70
     Davidson diagonalization with overlap
     ethr =  7.52E-10,  avg # of iterations =  4.0

     negative rho (up, down):  2.894E-03 0.000E+00

     total cpu time spent up to now is     1144.1 secs

     total energy              =    -786.94049598 Ry
     Harris-Foulkes estimate   =    -786.94049849 Ry
     estimated scf accuracy    <       0.00000254 Ry

     iteration # 21     ecut=    70.00 Ry     beta= 0.70
     Davidson diagonalization with overlap
     ethr =  7.52E-10,  avg # of iterations =  4.0

     negative rho (up, down):  2.899E-03 0.000E+00

     total cpu time spent up to now is     1203.6 secs

     End of self-consistent calculation

          k = 0.0000 0.0000 0.0000 ( 87777 PWs)   bands (ev):

   -71.7449 -44.0541 -44.0437 -42.9201 -19.6079 -18.7713 -18.7621 -18.6833
   -18.6766 -18.6731 -18.3015 -16.9219 -16.9201 -16.9152 -16.8094 -16.8087
   -16.5113 -16.0663 -16.0656 -15.9691 -15.8864 -15.8844 -15.1754 -13.9313
   -13.9199 -13.8846 -13.8404 -13.8373 -13.1766 -12.9121 -12.9117 -12.8827
   -12.5610 -12.5560 -12.1235 -11.6716 -11.6691 -11.5072 -11.2045 -11.1999
   -10.2550  -9.4487  -9.4480  -9.2872  -9.1582  -9.1578  -9.0678  -9.0385
    -9.0367  -9.0261  -8.8136  -8.5087  -8.4872  -7.9608  -7.9601  -7.8596
    -7.7013  -7.6751  -7.2553  -7.2553  -7.0093  -6.9555  -6.9132  -6.6728
    -6.6711  -6.6658  -6.6619  -6.6334  -6.5637  -6.4079  -6.4011  -6.3782
    -6.3735  -6.3719  -6.3250  -6.1896  -5.3786  -5.2979  -5.2945  -5.2926
    -5.0291  -5.0282  -4.8281  -4.7358  -4.5832  -4.5607  -4.5599  -4.2112
    -4.1911  -4.0147  -4.0065  -3.6934  -3.6927  -3.6133  -3.5098  -3.5096
    -3.4253  -3.4135  -2.9095  -2.4059  -2.4040  -1.6932  -1.6529  -1.6496
    -0.6556  -0.5069  -0.5058  -0.1062   1.0906   1.1049   1.1137   1.7984
     1.8978   1.8984   2.3510   2.9414   2.9524   3.0116   3.3353   3.3583
     3.4575   3.6537   3.6604   3.7110   3.8182   3.8293   3.8727

     occupation numbers 
     1.0000   1.0000   1.0000   1.0000   1.0000   1.0000   1.0000   1.0000
     1.0000   1.0000   1.0000   1.0000   1.0000   1.0000   1.0000   1.0000
     1.0000   1.0000   1.0000   1.0000   1.0000   1.0000   1.0000   1.0000
     1.0000   1.0000   1.0000   1.0000   1.0000   1.0000   1.0000   1.0000
     1.0000   1.0000   1.0000   1.0000   1.0000   1.0000   1.0000   1.0000
     1.0000   1.0000   1.0000   1.0000   1.0000   1.0000   1.0000   1.0000
     1.0000   1.0000   1.0000   1.0000   1.0000   1.0000   1.0000   1.0000
     1.0000   1.0000   1.0000   1.0000   1.0000   1.0000   1.0000   1.0000
     1.0000   1.0000   1.0000   1.0000   1.0000   1.0000   1.0000   1.0000
     1.0000   1.0000   1.0000   1.0000   1.0000   1.0000   1.0000   1.0000
     1.0000   1.0000   1.0000   1.0000   1.0000   1.0000   1.0000   1.0000
     1.0000   1.0000   1.0000   1.0000   1.0000   1.0000   1.0000   1.0000
     1.0000   1.0000   1.0000   1.0000   1.0000   1.0000   1.0000   1.0000
     1.0000   0.5290   0.4710   0.0000   0.0000   0.0000   0.0000   0.0000
     0.0000   0.0000   0.0000   0.0000   0.0000   0.0000   0.0000   0.0000
     0.0000   0.0000   0.0000   0.0000   0.0000   0.0000   0.0000

     the Fermi energy is    -0.5045 ev

!    total energy              =    -786.94050038 Ry
     Harris-Foulkes estimate   =    -786.94050122 Ry
     estimated scf accuracy    <       0.00000087 Ry

     The total energy is the sum of the following terms:

     one-electron contribution =   -2670.16934855 Ry
     hartree contribution      =    1380.91143936 Ry
     xc contribution           =    -254.38509304 Ry
     ewald contribution        =     756.70315592 Ry
     smearing contrib. (-TS)   =      -0.00065408 Ry

     convergence has been achieved in  21 iterations

     Writing output data file gr-12-bridge2.save/

     init_run     :     47.94s CPU     49.13s WALL (       1 calls)
     electrons    :   1118.38s CPU   1153.42s WALL (       1 calls)

     Called by init_run:
     wfcinit      :     20.60s CPU     20.79s WALL (       1 calls)
     wfcinit:atom :      0.03s CPU      0.05s WALL (       1 calls)
     wfcinit:wfcr :     20.41s CPU     20.52s WALL (       1 calls)
     potinit      :     12.35s CPU     12.70s WALL (       1 calls)
     hinit0       :     10.41s CPU     10.45s WALL (       1 calls)

     Called by electrons:
     c_bands      :    692.18s CPU    696.38s WALL (      21 calls)
     sum_band     :    210.42s CPU    222.14s WALL (      21 calls)
     v_of_rho     :    132.93s CPU    141.09s WALL (      22 calls)
     v_h          :      1.55s CPU      1.60s WALL (      22 calls)
     v_xc         :    131.38s CPU    139.49s WALL (      22 calls)
     newd         :     86.51s CPU     98.19s WALL (      22 calls)
     mix_rho      :      4.06s CPU      4.13s WALL (      21 calls)

     Called by c_bands:
     init_us_2    :      1.81s CPU      1.87s WALL (      43 calls)
     cegterg      :    687.42s CPU    691.59s WALL (      21 calls)

     Called by sum_band:
     sum_band:bec :      0.02s CPU      0.02s WALL (      21 calls)
     addusdens    :    128.08s CPU    139.06s WALL (      21 calls)

     Called by *egterg:
     h_psi        :    361.35s CPU    364.31s WALL (     100 calls)
     s_psi        :    121.74s CPU    121.79s WALL (     100 calls)
     g_psi        :      0.38s CPU      0.39s WALL (      78 calls)
     cdiaghg      :      7.46s CPU      7.47s WALL (      99 calls)
     cegterg:over :     86.98s CPU     87.03s WALL (      78 calls)
     cegterg:upda :     55.60s CPU     55.97s WALL (      78 calls)
     cegterg:last :     35.32s CPU     35.33s WALL (      21 calls)

     Called by h_psi:
     h_psi:pot    :    360.92s CPU    363.39s WALL (     100 calls)
     h_psi:calbec :    121.58s CPU    121.65s WALL (     100 calls)
     vloc_psi     :    117.53s CPU    119.89s WALL (     100 calls)
     add_vuspsi   :    121.81s CPU    121.86s WALL (     100 calls)

     General routines
     calbec       :    171.07s CPU    171.17s WALL (     121 calls)
     fft          :     74.14s CPU     77.00s WALL (    1384 calls)
     ffts         :      0.71s CPU      0.76s WALL (      43 calls)
     fftw         :    124.37s CPU    126.99s WALL (   15823 calls)
     interpolate  :      1.74s CPU      1.83s WALL (      22 calls)

     Parallel routines
     fft_scatt_xy :     33.48s CPU     33.96s WALL (   17250 calls)
     fft_scatt_yz :     71.04s CPU     74.94s WALL (   17250 calls)

     PWSCF        :  19m27.53s CPU  20m 4.05s WALL


   This run was terminated on:  16:22:44  20Jul2022            

=------------------------------------------------------------------------------=
   JOB DONE.
=------------------------------------------------------------------------------=
