
     Program PWSCF v.6.4.1 starts on 20Jul2022 at 20:48:17 

     This program is part of the open-source Quantum ESPRESSO suite
     for quantum simulation of materials; please cite
         "P. Giannozzi et al., J. Phys.:Condens. Matter 21 395502 (2009);
         "P. Giannozzi et al., J. Phys.:Condens. Matter 29 465901 (2017);
          URL http://www.quantum-espresso.org", 
     in publications or presentations arising from this work. More details at
     http://www.quantum-espresso.org/quote

     Parallel version (MPI), running on     6 processors

     MPI processes distributed on     1 nodes
     R & G space division:  proc/nbgrp/npool/nimage =       6
     Reading input from distance-4.5.in

     Current dimensions of program PWSCF are:
     Max number of different atomic species (ntypx) = 10
     Max number of k-points (npk) =  40000
     Max angular momentum in pseudopotentials (lmaxx) =  3

     IMPORTANT: XC functional enforced from input :
     Exchange-correlation      = RVV10 ( 1  4 13  4 3 0)
     Any further DFT definition will be discarded
     Please, verify this is what you really want

               file H.pbe-rrkjus.UPF: wavefunction(s)  1S renormalized
               file V.pbe-spnl-rrkjus_psl.1.0.0.UPF: wavefunction(s)  3P 3D renormalized

     Subspace diagonalization in iterative solution of the eigenvalue problem:
     a serial algorithm will be used


     Parallelization info
     --------------------
     sticks:   dense  smooth     PW     G-vecs:    dense   smooth      PW
     Min        3051    1746    432               270999   117096   14629
     Max        3053    1747    437               271001   117099   14630
     Sum       18313   10477   2611              1626001   702581   87777



     bravais-lattice index     =            4
     lattice parameter (alat)  =      23.2937  a.u.
     unit-cell volume          =    8879.8548 (a.u.)^3
     number of atoms/cell      =           52
     number of atomic types    =            3
     number of electrons       =       211.00
     number of Kohn-Sham states=          127
     kinetic-energy cutoff     =      70.0000  Ry
     charge density cutoff     =     490.0000  Ry
     convergence threshold     =      1.0E-06
     mixing beta               =       0.7000
     number of iterations used =            8  plain     mixing
     Exchange-correlation      = RVV10 ( 1  4 13  4 3 0)

     celldm(1)=  23.293684  celldm(2)=   0.000000  celldm(3)=   0.811261
     celldm(4)=   0.000000  celldm(5)=   0.000000  celldm(6)=   0.000000

     crystal axes: (cart. coord. in units of alat)
               a(1) = (   1.000000   0.000000   0.000000 )  
               a(2) = (  -0.500000   0.866025   0.000000 )  
               a(3) = (   0.000000   0.000000   0.811261 )  

     reciprocal axes: (cart. coord. in units 2 pi/alat)
               b(1) = (  1.000000  0.577350 -0.000000 )  
               b(2) = (  0.000000  1.154701  0.000000 )  
               b(3) = (  0.000000 -0.000000  1.232649 )  


     PseudoPot. # 1 for H  read from file:
     /home/cristian/Escritorio/Proyecto_Grafeno/pseudopotenciales/H.pbe-rrkjus.UPF
     MD5 check sum: 7cc9d459525c9a0585f487a71c3c9563
     Pseudo is Ultrasoft, Zval =  1.0
     Generated by new atomic code, or converted to UPF format
     Using radial grid of 1061 points,  2 beta functions with: 
                l(1) =   0
                l(2) =   0
     Q(r) pseudized with 0 coefficients 


     PseudoPot. # 2 for C  read from file:
     /home/cristian/Escritorio/Proyecto_Grafeno/pseudopotenciales/C.pbe-n-rrkjus_psl.1.0.0.UPF
     MD5 check sum: 1fdd950c42eb37d8afe3dd2f8d12311e
     Pseudo is Ultrasoft + core correction, Zval =  4.0
     Generated using "atomic" code by A. Dal Corso v.6.3MaX
     Using radial grid of 1073 points,  4 beta functions with: 
                l(1) =   0
                l(2) =   0
                l(3) =   1
                l(4) =   1
     Q(r) pseudized with 0 coefficients 


     PseudoPot. # 3 for V  read from file:
     /home/cristian/Escritorio/Proyecto_Grafeno/pseudopotenciales/V.pbe-spnl-rrkjus_psl.1.0.0.UPF
     MD5 check sum: 79b3eb63147daf0b665d9f1bcc691206
     Pseudo is Ultrasoft + core correction, Zval = 13.0
     Generated using "atomic" code by A. Dal Corso v.6.2.2
     Using radial grid of 1181 points,  6 beta functions with: 
                l(1) =   0
                l(2) =   0
                l(3) =   1
                l(4) =   1
                l(5) =   2
                l(6) =   2
     Q(r) pseudized with 0 coefficients 


     vdW kernel table read from file rVV10_kernel_table
     MD5 check sum: b8e2538accc0c0b3206b45ba4daaba6c

     atomic species   valence    mass     pseudopotential
        H              1.00     1.00794     H ( 1.00)
        C              4.00    12.01070     C ( 1.00)
        V             13.00    50.94150     V ( 1.00)

      2 Sym. Ops. (no inversion) found


                                    s                        frac. trans.

      isym =  1     identity                                     

 cryst.   s( 1) = (     1          0          0      )
                  (     0          1          0      )
                  (     0          0          1      )

 cart.    s( 1) = (  1.0000000  0.0000000  0.0000000 )
                  (  0.0000000  1.0000000  0.0000000 )
                  (  0.0000000  0.0000000  1.0000000 )


      isym =  2     inv. 180 deg rotation - cryst. axis [1,1,0]  

 cryst.   s( 2) = (     0         -1          0      )
                  (    -1          0          0      )
                  (     0          0          1      )

 cart.    s( 2) = (  0.5000000 -0.8660254  0.0000000 )
                  ( -0.8660254 -0.5000000  0.0000000 )
                  (  0.0000000  0.0000000  1.0000000 )


     point group C_s (m)    
     there are  2 classes
     the character table:

       E     s    
A'     1.00  1.00
A''    1.00 -1.00

     the symmetry operations in each class and the name of the first element:

     E        1
          identity                                               
     s        2
          inv. 180 deg rotation - cryst. axis [1,1,0]            

   Cartesian axes

     site n.     atom                  positions (alat units)
         1           H   tau(   1) = (   0.2000000   0.4618802   0.3650675  )
         2           H   tau(   2) = (   0.2000000   0.4618802   0.4260802  )
         3           C   tau(   3) = (   0.0000000   0.0000000   0.0000000  )
         4           C   tau(   4) = (   0.0000000   0.1154701   0.0000000  )
         5           C   tau(   5) = (  -0.1000000   0.1732051   0.0000000  )
         6           C   tau(   6) = (  -0.1000000   0.2886751   0.0000000  )
         7           C   tau(   7) = (  -0.2000000   0.3464102   0.0000000  )
         8           C   tau(   8) = (  -0.2000000   0.4618802   0.0000000  )
         9           C   tau(   9) = (  -0.3000000   0.5196152   0.0000000  )
        10           C   tau(  10) = (  -0.3000000   0.6350853   0.0000000  )
        11           C   tau(  11) = (  -0.4000000   0.6928203   0.0000000  )
        12           C   tau(  12) = (  -0.4000000   0.8082904   0.0000000  )
        13           C   tau(  13) = (   0.2000000   0.0000000   0.0000000  )
        14           C   tau(  14) = (   0.2000000   0.1154701   0.0000000  )
        15           C   tau(  15) = (   0.1000000   0.1732051   0.0000000  )
        16           C   tau(  16) = (   0.1000000   0.2886751   0.0000000  )
        17           C   tau(  17) = (   0.0000000   0.3464102   0.0000000  )
        18           C   tau(  18) = (   0.0000000   0.4618802   0.0000000  )
        19           C   tau(  19) = (  -0.1000000   0.5196152   0.0000000  )
        20           C   tau(  20) = (  -0.1000000   0.6350853   0.0000000  )
        21           C   tau(  21) = (  -0.2000000   0.6928203   0.0000000  )
        22           C   tau(  22) = (  -0.2000000   0.8082904   0.0000000  )
        23           C   tau(  23) = (   0.4000000   0.0000000   0.0000000  )
        24           C   tau(  24) = (   0.4000000   0.1154701   0.0000000  )
        25           C   tau(  25) = (   0.3000000   0.1732051   0.0000000  )
        26           C   tau(  26) = (   0.3000000   0.2886751   0.0000000  )
        27           C   tau(  27) = (   0.2000000   0.3464102   0.0000000  )
        28           V   tau(  28) = (   0.2000000   0.4618802   0.0000000  )
        29           C   tau(  29) = (   0.1000000   0.5196152   0.0000000  )
        30           C   tau(  30) = (   0.1000000   0.6350853   0.0000000  )
        31           C   tau(  31) = (   0.0000000   0.6928203   0.0000000  )
        32           C   tau(  32) = (   0.0000000   0.8082904   0.0000000  )
        33           C   tau(  33) = (   0.6000000   0.0000000   0.0000000  )
        34           C   tau(  34) = (   0.6000000   0.1154701   0.0000000  )
        35           C   tau(  35) = (   0.5000000   0.1732051   0.0000000  )
        36           C   tau(  36) = (   0.5000000   0.2886751   0.0000000  )
        37           C   tau(  37) = (   0.4000000   0.3464102   0.0000000  )
        38           C   tau(  38) = (   0.4000000   0.4618802   0.0000000  )
        39           C   tau(  39) = (   0.3000000   0.5196152   0.0000000  )
        40           C   tau(  40) = (   0.3000000   0.6350853   0.0000000  )
        41           C   tau(  41) = (   0.2000000   0.6928203   0.0000000  )
        42           C   tau(  42) = (   0.2000000   0.8082904   0.0000000  )
        43           C   tau(  43) = (   0.8000000   0.0000000   0.0000000  )
        44           C   tau(  44) = (   0.8000000   0.1154701   0.0000000  )
        45           C   tau(  45) = (   0.7000000   0.1732051   0.0000000  )
        46           C   tau(  46) = (   0.7000000   0.2886751   0.0000000  )
        47           C   tau(  47) = (   0.6000000   0.3464102   0.0000000  )
        48           C   tau(  48) = (   0.6000000   0.4618802   0.0000000  )
        49           C   tau(  49) = (   0.5000000   0.5196152   0.0000000  )
        50           C   tau(  50) = (   0.5000000   0.6350853   0.0000000  )
        51           C   tau(  51) = (   0.4000000   0.6928203   0.0000000  )
        52           C   tau(  52) = (   0.4000000   0.8082904   0.0000000  )

   Crystallographic axes

     site n.     atom                  positions (cryst. coord.)
         1           H   tau(   1) = (  0.4666667  0.5333333  0.4500000  )
         2           H   tau(   2) = (  0.4666667  0.5333333  0.5252072  )
         3           C   tau(   3) = (  0.0000000  0.0000000  0.0000000  )
         4           C   tau(   4) = (  0.0666667  0.1333333  0.0000000  )
         5           C   tau(   5) = (  0.0000000  0.2000000  0.0000000  )
         6           C   tau(   6) = (  0.0666667  0.3333333  0.0000000  )
         7           C   tau(   7) = (  0.0000000  0.4000000  0.0000000  )
         8           C   tau(   8) = (  0.0666667  0.5333333  0.0000000  )
         9           C   tau(   9) = (  0.0000000  0.6000000  0.0000000  )
        10           C   tau(  10) = (  0.0666667  0.7333333  0.0000000  )
        11           C   tau(  11) = (  0.0000000  0.8000000  0.0000000  )
        12           C   tau(  12) = (  0.0666667  0.9333333  0.0000000  )
        13           C   tau(  13) = (  0.2000000  0.0000000  0.0000000  )
        14           C   tau(  14) = (  0.2666667  0.1333333  0.0000000  )
        15           C   tau(  15) = (  0.2000000  0.2000000  0.0000000  )
        16           C   tau(  16) = (  0.2666667  0.3333333  0.0000000  )
        17           C   tau(  17) = (  0.2000000  0.4000000  0.0000000  )
        18           C   tau(  18) = (  0.2666667  0.5333333  0.0000000  )
        19           C   tau(  19) = (  0.2000000  0.6000000  0.0000000  )
        20           C   tau(  20) = (  0.2666667  0.7333333  0.0000000  )
        21           C   tau(  21) = (  0.2000000  0.8000000  0.0000000  )
        22           C   tau(  22) = (  0.2666667  0.9333333  0.0000000  )
        23           C   tau(  23) = (  0.4000000  0.0000000  0.0000000  )
        24           C   tau(  24) = (  0.4666667  0.1333333  0.0000000  )
        25           C   tau(  25) = (  0.4000000  0.2000000  0.0000000  )
        26           C   tau(  26) = (  0.4666667  0.3333333  0.0000000  )
        27           C   tau(  27) = (  0.4000000  0.4000000  0.0000000  )
        28           V   tau(  28) = (  0.4666667  0.5333333  0.0000000  )
        29           C   tau(  29) = (  0.4000000  0.6000000  0.0000000  )
        30           C   tau(  30) = (  0.4666667  0.7333333  0.0000000  )
        31           C   tau(  31) = (  0.4000000  0.8000000  0.0000000  )
        32           C   tau(  32) = (  0.4666667  0.9333333  0.0000000  )
        33           C   tau(  33) = (  0.6000000  0.0000000  0.0000000  )
        34           C   tau(  34) = (  0.6666667  0.1333333  0.0000000  )
        35           C   tau(  35) = (  0.6000000  0.2000000  0.0000000  )
        36           C   tau(  36) = (  0.6666667  0.3333333  0.0000000  )
        37           C   tau(  37) = (  0.6000000  0.4000000  0.0000000  )
        38           C   tau(  38) = (  0.6666667  0.5333333  0.0000000  )
        39           C   tau(  39) = (  0.6000000  0.6000000  0.0000000  )
        40           C   tau(  40) = (  0.6666667  0.7333333  0.0000000  )
        41           C   tau(  41) = (  0.6000000  0.8000000  0.0000000  )
        42           C   tau(  42) = (  0.6666667  0.9333333  0.0000000  )
        43           C   tau(  43) = (  0.8000000  0.0000000  0.0000000  )
        44           C   tau(  44) = (  0.8666667  0.1333333  0.0000000  )
        45           C   tau(  45) = (  0.8000000  0.2000000  0.0000000  )
        46           C   tau(  46) = (  0.8666667  0.3333333  0.0000000  )
        47           C   tau(  47) = (  0.8000000  0.4000000  0.0000000  )
        48           C   tau(  48) = (  0.8666667  0.5333333  0.0000000  )
        49           C   tau(  49) = (  0.8000000  0.6000000  0.0000000  )
        50           C   tau(  50) = (  0.8666667  0.7333333  0.0000000  )
        51           C   tau(  51) = (  0.8000000  0.8000000  0.0000000  )
        52           C   tau(  52) = (  0.8666667  0.9333333  0.0000000  )

     number of k points=     1  Marzari-Vanderbilt smearing, width (Ry)=  0.0010
                       cart. coord. in units 2pi/alat
        k(    1) = (   0.0000000   0.0000000   0.0000000), wk =   2.0000000

                       cryst. coord.
        k(    1) = (   0.0000000   0.0000000   0.0000000), wk =   2.0000000

     Dense  grid:  1626001 G-vectors     FFT dimensions: ( 180, 180, 135)

     Smooth grid:   702581 G-vectors     FFT dimensions: ( 125, 125, 108)

     Dynamical RAM for                 wfc:      28.36 MB

     Dynamical RAM for     wfc (w. buffer):      28.36 MB

     Dynamical RAM for           str. fact:      12.41 MB

     Dynamical RAM for           local pot:       0.00 MB

     Dynamical RAM for          nlocal pot:      92.46 MB

     Dynamical RAM for                qrad:      19.73 MB

     Dynamical RAM for          rho,v,vnew:      29.46 MB

     Dynamical RAM for               rhoin:       9.82 MB

     Dynamical RAM for            rho*nmix:      66.16 MB

     Dynamical RAM for           G-vectors:      16.40 MB

     Dynamical RAM for          h,s,v(r/c):      11.81 MB

     Dynamical RAM for          <psi|beta>:       0.80 MB

     Dynamical RAM for                 psi:     113.46 MB

     Dynamical RAM for                hpsi:     113.46 MB

     Dynamical RAM for                spsi:     113.46 MB

     Dynamical RAM for      wfcinit/wfcrot:      93.90 MB

     Dynamical RAM for           addusdens:     971.75 MB

     Estimated static dynamical RAM per process >     319.78 MB

     Estimated max dynamical RAM per process >       1.26 GB

     Estimated total dynamical RAM >       7.57 GB

     Check: negative core charge=   -0.000002

     Initial potential from superposition of free atoms

     starting charge  210.80465, renormalised to  211.00000

     negative rho (up, down):  1.126E-04 0.000E+00


---------------------------------------------------------------------------------
Carrying out rVV10 run using the following parameters:
Nqs =      20    Nr_points =    1024   r_max =   100.000
b_value =  6.30000    beta =  0.00901
     q_mesh =  0.00010000  0.00030000  0.00058939  0.00100810
               0.00161396  0.00249058  0.00375900  0.00559430
               0.00824984  0.01209221  0.01765183  0.02569619
               0.03733578  0.05417739  0.07854596  0.11380545
               0.16482331  0.23864234  0.34545298  0.50000000

Gradients computed in Reciprocal space

---------------------------------------------------------------------------------


     Starting wfcs are  208 randomized atomic wfcs

     total cpu time spent up to now is       52.7 secs

     Self-consistent Calculation

     iteration #  1     ecut=    70.00 Ry     beta= 0.70
     Davidson diagonalization with overlap
     ethr =  1.00E-02,  avg # of iterations =  3.0

     negative rho (up, down):  2.881E-03 0.000E+00

     total cpu time spent up to now is      118.2 secs

     total energy              =    -755.31069336 Ry
     Harris-Foulkes estimate   =    -760.47859351 Ry
     estimated scf accuracy    <       7.90278419 Ry

     iteration #  2     ecut=    70.00 Ry     beta= 0.70
     Davidson diagonalization with overlap
     ethr =  3.75E-03,  avg # of iterations =  6.0

     negative rho (up, down):  1.739E-02 0.000E+00

     total cpu time spent up to now is      182.7 secs

     total energy              =    -748.75088122 Ry
     Harris-Foulkes estimate   =    -761.20209705 Ry
     estimated scf accuracy    <      41.27689831 Ry

     iteration #  3     ecut=    70.00 Ry     beta= 0.70
     Davidson diagonalization with overlap
     ethr =  3.75E-03,  avg # of iterations =  5.0

     negative rho (up, down):  3.305E-03 0.000E+00

     total cpu time spent up to now is      259.3 secs

     total energy              =    -755.37340869 Ry
     Harris-Foulkes estimate   =    -759.76801832 Ry
     estimated scf accuracy    <      23.28920106 Ry

     iteration #  4     ecut=    70.00 Ry     beta= 0.70
     Davidson diagonalization with overlap
     ethr =  3.75E-03,  avg # of iterations =  4.0

     negative rho (up, down):  3.663E-02 0.000E+00

     total cpu time spent up to now is      310.0 secs

     total energy              =    -757.14085011 Ry
     Harris-Foulkes estimate   =    -757.71690270 Ry
     estimated scf accuracy    <       1.65391889 Ry

     iteration #  5     ecut=    70.00 Ry     beta= 0.70
     Davidson diagonalization with overlap
     ethr =  7.84E-04,  avg # of iterations =  6.0

     negative rho (up, down):  5.213E-02 0.000E+00

     total cpu time spent up to now is      365.8 secs

     total energy              =    -757.29299858 Ry
     Harris-Foulkes estimate   =    -757.34893322 Ry
     estimated scf accuracy    <       0.24095422 Ry

     iteration #  6     ecut=    70.00 Ry     beta= 0.70
     Davidson diagonalization with overlap
     ethr =  1.14E-04,  avg # of iterations =  3.0

     negative rho (up, down):  5.204E-02 0.000E+00

     total cpu time spent up to now is      415.9 secs

     total energy              =    -757.29864130 Ry
     Harris-Foulkes estimate   =    -757.32515845 Ry
     estimated scf accuracy    <       0.17633533 Ry

     iteration #  7     ecut=    70.00 Ry     beta= 0.70
     Davidson diagonalization with overlap
     ethr =  8.36E-05,  avg # of iterations =  2.0

     negative rho (up, down):  3.829E-02 0.000E+00

     total cpu time spent up to now is      464.6 secs

     total energy              =    -757.30297349 Ry
     Harris-Foulkes estimate   =    -757.31766443 Ry
     estimated scf accuracy    <       0.12119946 Ry

     iteration #  8     ecut=    70.00 Ry     beta= 0.70
     Davidson diagonalization with overlap
     ethr =  5.74E-05,  avg # of iterations =  3.0

     negative rho (up, down):  2.536E-02 0.000E+00

     total cpu time spent up to now is      513.7 secs

     total energy              =    -757.31573073 Ry
     Harris-Foulkes estimate   =    -757.31293942 Ry
     estimated scf accuracy    <       0.04255901 Ry

     iteration #  9     ecut=    70.00 Ry     beta= 0.70
     Davidson diagonalization with overlap
     ethr =  2.02E-05,  avg # of iterations =  6.0

     negative rho (up, down):  3.144E-02 0.000E+00

     total cpu time spent up to now is      569.8 secs

     total energy              =    -757.32231867 Ry
     Harris-Foulkes estimate   =    -757.32506975 Ry
     estimated scf accuracy    <       0.02224276 Ry

     iteration # 10     ecut=    70.00 Ry     beta= 0.70
     Davidson diagonalization with overlap
     ethr =  1.05E-05,  avg # of iterations =  3.0

     negative rho (up, down):  3.168E-02 0.000E+00

     total cpu time spent up to now is      620.2 secs

     total energy              =    -757.32428022 Ry
     Harris-Foulkes estimate   =    -757.32329453 Ry
     estimated scf accuracy    <       0.01071325 Ry

     iteration # 11     ecut=    70.00 Ry     beta= 0.70
     Davidson diagonalization with overlap
     ethr =  5.08E-06,  avg # of iterations =  4.0

     negative rho (up, down):  3.328E-02 0.000E+00

     total cpu time spent up to now is      671.7 secs

     total energy              =    -757.32456587 Ry
     Harris-Foulkes estimate   =    -757.32567362 Ry
     estimated scf accuracy    <       0.00950304 Ry

     iteration # 12     ecut=    70.00 Ry     beta= 0.70
     Davidson diagonalization with overlap
     ethr =  4.50E-06,  avg # of iterations =  3.0

     negative rho (up, down):  3.331E-02 0.000E+00

     total cpu time spent up to now is      721.4 secs

     total energy              =    -757.32559638 Ry
     Harris-Foulkes estimate   =    -757.32487820 Ry
     estimated scf accuracy    <       0.00018773 Ry

     iteration # 13     ecut=    70.00 Ry     beta= 0.70
     Davidson diagonalization with overlap
     ethr =  8.90E-08,  avg # of iterations = 10.0

     negative rho (up, down):  3.348E-02 0.000E+00

     total cpu time spent up to now is      785.1 secs

     total energy              =    -757.32558804 Ry
     Harris-Foulkes estimate   =    -757.32567834 Ry
     estimated scf accuracy    <       0.00009723 Ry

     iteration # 14     ecut=    70.00 Ry     beta= 0.70
     Davidson diagonalization with overlap
     ethr =  4.61E-08,  avg # of iterations =  3.0

     negative rho (up, down):  3.364E-02 0.000E+00

     total cpu time spent up to now is      837.4 secs

     total energy              =    -757.32562434 Ry
     Harris-Foulkes estimate   =    -757.32561355 Ry
     estimated scf accuracy    <       0.00019987 Ry

     iteration # 15     ecut=    70.00 Ry     beta= 0.70
     Davidson diagonalization with overlap
     ethr =  4.61E-08,  avg # of iterations =  1.0

     negative rho (up, down):  3.381E-02 0.000E+00

     total cpu time spent up to now is      885.6 secs

     total energy              =    -757.32566237 Ry
     Harris-Foulkes estimate   =    -757.32563655 Ry
     estimated scf accuracy    <       0.00002465 Ry

     iteration # 16     ecut=    70.00 Ry     beta= 0.70
     Davidson diagonalization with overlap
     ethr =  1.17E-08,  avg # of iterations =  3.0

     negative rho (up, down):  3.390E-02 0.000E+00

     total cpu time spent up to now is      934.3 secs

     total energy              =    -757.32566282 Ry
     Harris-Foulkes estimate   =    -757.32566432 Ry
     estimated scf accuracy    <       0.00000304 Ry

     iteration # 17     ecut=    70.00 Ry     beta= 0.70
     Davidson diagonalization with overlap
     ethr =  1.44E-09,  avg # of iterations =  4.0

     negative rho (up, down):  3.389E-02 0.000E+00

     total cpu time spent up to now is      983.9 secs

     total energy              =    -757.32566394 Ry
     Harris-Foulkes estimate   =    -757.32566326 Ry
     estimated scf accuracy    <       0.00000345 Ry

     iteration # 18     ecut=    70.00 Ry     beta= 0.70
     Davidson diagonalization with overlap
     ethr =  1.44E-09,  avg # of iterations =  1.0

     negative rho (up, down):  3.389E-02 0.000E+00

     total cpu time spent up to now is     1032.0 secs

     End of self-consistent calculation

          k = 0.0000 0.0000 0.0000 ( 87777 PWs)   bands (ev):

   -62.7740 -37.8742 -37.8740 -36.5064 -19.6347 -18.7920 -18.7920 -18.7218
   -18.6797 -18.6797 -18.2387 -16.9395 -16.9383 -16.9383 -16.7967 -16.7967
   -16.5203 -16.0815 -16.0815 -15.9927 -15.8360 -15.8360 -15.0889 -13.8890
   -13.8831 -13.8831 -13.8689 -13.8689 -13.1473 -12.9240 -12.9240 -12.9037
   -12.5136 -12.5136 -12.1153 -11.6491 -11.6491 -11.5262 -11.1458 -11.1458
   -10.1560  -9.3429  -9.3429  -9.2644  -9.1856  -9.1856  -9.0993  -9.0716
    -9.0716  -9.0577  -8.4718  -8.4718  -7.9013  -7.9013  -7.8682  -7.7854
    -7.6849  -7.2605  -7.2605  -6.9361  -6.9361  -6.8993  -6.7230  -6.6925
    -6.6924  -6.6866  -6.5984  -6.5983  -6.5533  -6.4412  -6.4412  -6.3986
    -6.3940  -6.3940  -6.3406  -6.2904  -5.2671  -5.2671  -5.1289  -5.1289
    -4.9521  -4.9521  -4.8434  -4.7549  -4.6093  -4.5933  -4.5932  -4.2354
    -3.9705  -3.9705  -3.7333  -3.7333  -3.6464  -3.6378  -3.5064  -3.5064
    -2.8957  -2.2385  -2.2385  -2.2122  -2.2121  -1.7119  -1.6836  -1.6836
    -0.5536  -0.1420  -0.1420   0.8687   1.0744   1.0808   1.0808   1.8121
     2.0732   2.0733   2.6357   2.9207   2.9207   2.9831   3.3668   3.5120
     3.5120   3.7810   3.7810   3.8289   3.8798   4.0253   4.0254

     occupation numbers 
     1.0000   1.0000   1.0000   1.0000   1.0000   1.0000   1.0000   1.0000
     1.0000   1.0000   1.0000   1.0000   1.0000   1.0000   1.0000   1.0000
     1.0000   1.0000   1.0000   1.0000   1.0000   1.0000   1.0000   1.0000
     1.0000   1.0000   1.0000   1.0000   1.0000   1.0000   1.0000   1.0000
     1.0000   1.0000   1.0000   1.0000   1.0000   1.0000   1.0000   1.0000
     1.0000   1.0000   1.0000   1.0000   1.0000   1.0000   1.0000   1.0000
     1.0000   1.0000   1.0000   1.0000   1.0000   1.0000   1.0000   1.0000
     1.0000   1.0000   1.0000   1.0000   1.0000   1.0000   1.0000   1.0000
     1.0000   1.0000   1.0000   1.0000   1.0000   1.0000   1.0000   1.0000
     1.0000   1.0000   1.0000   1.0000   1.0000   1.0000   1.0000   1.0000
     1.0000   1.0000   1.0000   1.0000   1.0000   1.0000   1.0000   1.0000
     1.0000   1.0000   1.0000   1.0000   1.0000   1.0000   1.0000   1.0000
     1.0000   1.0000   1.0000   1.0000   1.0000   1.0000   1.0000   1.0000
     1.0000   0.2509   0.2491   0.0000   0.0000   0.0000   0.0000   0.0000
     0.0000   0.0000   0.0000   0.0000   0.0000   0.0000   0.0000   0.0000
     0.0000   0.0000   0.0000   0.0000   0.0000   0.0000   0.0000

     the Fermi energy is    -0.1453 ev

!    total energy              =    -757.32566392 Ry
     Harris-Foulkes estimate   =    -757.32566404 Ry
     estimated scf accuracy    <       0.00000019 Ry

     The total energy is the sum of the following terms:

     one-electron contribution =   -2567.64428627 Ry
     hartree contribution      =    1330.56381145 Ry
     xc contribution           =    -252.65569568 Ry
     ewald contribution        =     732.41112008 Ry
     smearing contrib. (-TS)   =      -0.00061349 Ry

     convergence has been achieved in  18 iterations

     Writing output data file gr-12.save/

     init_run     :     50.42s CPU     51.61s WALL (       1 calls)
     electrons    :    950.46s CPU    979.46s WALL (       1 calls)

     Called by init_run:
     wfcinit      :     20.59s CPU     20.77s WALL (       1 calls)
     wfcinit:atom :      0.03s CPU      0.05s WALL (       1 calls)
     wfcinit:wfcr :     20.39s CPU     20.54s WALL (       1 calls)
     potinit      :     13.12s CPU     13.51s WALL (       1 calls)
     hinit0       :     12.11s CPU     12.16s WALL (       1 calls)

     Called by electrons:
     c_bands      :    584.94s CPU    588.59s WALL (      18 calls)
     sum_band     :    181.16s CPU    190.76s WALL (      18 calls)
     v_of_rho     :    113.56s CPU    120.48s WALL (      19 calls)
     v_h          :      1.31s CPU      1.35s WALL (      19 calls)
     v_xc         :    112.25s CPU    119.12s WALL (      19 calls)
     newd         :     75.27s CPU     84.83s WALL (      19 calls)
     mix_rho      :      3.41s CPU      3.47s WALL (      18 calls)

     Called by c_bands:
     init_us_2    :      1.51s CPU      1.54s WALL (      37 calls)
     cegterg      :    580.77s CPU    584.39s WALL (      18 calls)

     Called by sum_band:
     sum_band:bec :      0.01s CPU      0.01s WALL (      18 calls)
     addusdens    :    111.92s CPU    120.90s WALL (      18 calls)

     Called by *egterg:
     h_psi        :    308.49s CPU    311.14s WALL (      89 calls)
     s_psi        :    103.72s CPU    103.80s WALL (      89 calls)
     g_psi        :      0.33s CPU      0.33s WALL (      70 calls)
     cdiaghg      :      6.75s CPU      6.75s WALL (      88 calls)
     cegterg:over :     72.21s CPU     72.25s WALL (      70 calls)
     cegterg:upda :     45.96s CPU     46.27s WALL (      70 calls)
     cegterg:last :     29.84s CPU     29.85s WALL (      18 calls)

     Called by h_psi:
     h_psi:pot    :    308.19s CPU    310.38s WALL (      89 calls)
     h_psi:calbec :    103.79s CPU    103.86s WALL (      89 calls)
     vloc_psi     :    100.56s CPU    102.63s WALL (      89 calls)
     add_vuspsi   :    103.84s CPU    103.88s WALL (      89 calls)

     General routines
     calbec       :    146.18s CPU    146.28s WALL (     107 calls)
     fft          :     63.63s CPU     66.20s WALL (    1195 calls)
     ffts         :      0.66s CPU      0.68s WALL (      37 calls)
     fftw         :    105.52s CPU    107.81s WALL (   13516 calls)
     interpolate  :      1.56s CPU      1.62s WALL (      19 calls)

     Parallel routines
     fft_scatt_xy :     29.09s CPU     29.55s WALL (   14748 calls)
     fft_scatt_yz :     57.60s CPU     61.08s WALL (   14748 calls)

     PWSCF        :  16m42.04s CPU  17m12.50s WALL


   This run was terminated on:  21: 5:29  20Jul2022            

=------------------------------------------------------------------------------=
   JOB DONE.
=------------------------------------------------------------------------------=
