
     Program PWSCF v.6.4.1 starts on 20Sep2022 at  0: 2:55 

     This program is part of the open-source Quantum ESPRESSO suite
     for quantum simulation of materials; please cite
         "P. Giannozzi et al., J. Phys.:Condens. Matter 21 395502 (2009);
         "P. Giannozzi et al., J. Phys.:Condens. Matter 29 465901 (2017);
          URL http://www.quantum-espresso.org", 
     in publications or presentations arising from this work. More details at
     http://www.quantum-espresso.org/quote

     Parallel version (MPI), running on     6 processors

     MPI processes distributed on     1 nodes
     R & G space division:  proc/nbgrp/npool/nimage =       6
     Reading input from distance-4.5.in

     Current dimensions of program PWSCF are:
     Max number of different atomic species (ntypx) = 10
     Max number of k-points (npk) =  40000
     Max angular momentum in pseudopotentials (lmaxx) =  3

     IMPORTANT: XC functional enforced from input :
     Exchange-correlation      = RVV10 ( 1  4 13  4 3 0)
     Any further DFT definition will be discarded
     Please, verify this is what you really want

               file H.pbe-rrkjus.UPF: wavefunction(s)  1S renormalized
               file Mn.pbe-spn-rrkjus_psl.0.3.1.UPF: wavefunction(s)  3D renormalized

     Subspace diagonalization in iterative solution of the eigenvalue problem:
     a serial algorithm will be used


     Parallelization info
     --------------------
     sticks:   dense  smooth     PW     G-vecs:    dense   smooth      PW
     Min        3051    1746    432               270999   117096   14629
     Max        3053    1747    437               271001   117099   14630
     Sum       18313   10477   2611              1626001   702581   87777



     bravais-lattice index     =            4
     lattice parameter (alat)  =      23.2937  a.u.
     unit-cell volume          =    8879.8548 (a.u.)^3
     number of atoms/cell      =           52
     number of atomic types    =            3
     number of electrons       =       213.00
     number of Kohn-Sham states=          128
     kinetic-energy cutoff     =      70.0000  Ry
     charge density cutoff     =     490.0000  Ry
     convergence threshold     =      1.0E-06
     mixing beta               =       0.7000
     number of iterations used =            8  plain     mixing
     Exchange-correlation      = RVV10 ( 1  4 13  4 3 0)

     celldm(1)=  23.293684  celldm(2)=   0.000000  celldm(3)=   0.811261
     celldm(4)=   0.000000  celldm(5)=   0.000000  celldm(6)=   0.000000

     crystal axes: (cart. coord. in units of alat)
               a(1) = (   1.000000   0.000000   0.000000 )  
               a(2) = (  -0.500000   0.866025   0.000000 )  
               a(3) = (   0.000000   0.000000   0.811261 )  

     reciprocal axes: (cart. coord. in units 2 pi/alat)
               b(1) = (  1.000000  0.577350 -0.000000 )  
               b(2) = (  0.000000  1.154701  0.000000 )  
               b(3) = (  0.000000 -0.000000  1.232649 )  


     PseudoPot. # 1 for H  read from file:
     /home/cristian/Escritorio/Proyecto_Grafeno/pseudopotenciales/H.pbe-rrkjus.UPF
     MD5 check sum: 7cc9d459525c9a0585f487a71c3c9563
     Pseudo is Ultrasoft, Zval =  1.0
     Generated by new atomic code, or converted to UPF format
     Using radial grid of 1061 points,  2 beta functions with: 
                l(1) =   0
                l(2) =   0
     Q(r) pseudized with 0 coefficients 


     PseudoPot. # 2 for C  read from file:
     /home/cristian/Escritorio/Proyecto_Grafeno/pseudopotenciales/C.pbe-n-rrkjus_psl.1.0.0.UPF
     MD5 check sum: 1fdd950c42eb37d8afe3dd2f8d12311e
     Pseudo is Ultrasoft + core correction, Zval =  4.0
     Generated using "atomic" code by A. Dal Corso v.6.3MaX
     Using radial grid of 1073 points,  4 beta functions with: 
                l(1) =   0
                l(2) =   0
                l(3) =   1
                l(4) =   1
     Q(r) pseudized with 0 coefficients 


     PseudoPot. # 3 for Mn read from file:
     /home/cristian/Escritorio/Proyecto_Grafeno/pseudopotenciales/Mn.pbe-spn-rrkjus_psl.0.3.1.UPF
     MD5 check sum: e1cac159bdd2ba70c18e85765a5d4279
     Pseudo is Ultrasoft + core correction, Zval = 15.0
     Generated using "atomic" code by A. Dal Corso v.6.2.2
     Using radial grid of 1187 points,  6 beta functions with: 
                l(1) =   0
                l(2) =   0
                l(3) =   1
                l(4) =   1
                l(5) =   2
                l(6) =   2
     Q(r) pseudized with 0 coefficients 


     vdW kernel table read from file rVV10_kernel_table
     MD5 check sum: b8e2538accc0c0b3206b45ba4daaba6c

     atomic species   valence    mass     pseudopotential
        H              1.00     1.00794     H ( 1.00)
        C              4.00    12.01070     C ( 1.00)
        Mn            15.00    54.93804     Mn( 1.00)

     Starting magnetic structure 
     atomic species   magnetization
        H            0.500
        C            0.300
        Mn           0.800

     No symmetry found


                                    s                        frac. trans.

      isym =  1     identity                                     

 cryst.   s( 1) = (     1          0          0      )
                  (     0          1          0      )
                  (     0          0          1      )

 cart.    s( 1) = (  1.0000000  0.0000000  0.0000000 )
                  (  0.0000000  1.0000000  0.0000000 )
                  (  0.0000000  0.0000000  1.0000000 )


     point group C_1 (1)    
     there are  1 classes
     the character table:

       E    
A      1.00

     the symmetry operations in each class and the name of the first element:

     E        1
          identity                                               

   Cartesian axes

     site n.     atom                  positions (alat units)
         1           H   tau(   1) = (   0.2694937   0.4041452   0.3650675  )
         2           H   tau(   2) = (   0.3305063   0.4041452   0.3650675  )
         3           C   tau(   3) = (   0.0000000   0.0000000   0.0000000  )
         4           C   tau(   4) = (   0.0000000   0.1154701   0.0000000  )
         5           C   tau(   5) = (  -0.1000000   0.1732051   0.0000000  )
         6           C   tau(   6) = (  -0.1000000   0.2886751   0.0000000  )
         7           C   tau(   7) = (  -0.2000000   0.3464102   0.0000000  )
         8           C   tau(   8) = (  -0.2000000   0.4618802   0.0000000  )
         9           C   tau(   9) = (  -0.3000000   0.5196152   0.0000000  )
        10           C   tau(  10) = (  -0.3000000   0.6350853   0.0000000  )
        11           C   tau(  11) = (  -0.4000000   0.6928203   0.0000000  )
        12           C   tau(  12) = (  -0.4000000   0.8082904   0.0000000  )
        13           C   tau(  13) = (   0.2000000   0.0000000   0.0000000  )
        14           C   tau(  14) = (   0.2000000   0.1154701   0.0000000  )
        15           C   tau(  15) = (   0.1000000   0.1732051   0.0000000  )
        16           C   tau(  16) = (   0.1000000   0.2886751   0.0000000  )
        17           C   tau(  17) = (   0.0000000   0.3464102   0.0000000  )
        18           C   tau(  18) = (   0.0000000   0.4618802   0.0000000  )
        19           C   tau(  19) = (  -0.1000000   0.5196152   0.0000000  )
        20           C   tau(  20) = (  -0.1000000   0.6350853   0.0000000  )
        21           C   tau(  21) = (  -0.2000000   0.6928203   0.0000000  )
        22           C   tau(  22) = (  -0.2000000   0.8082904   0.0000000  )
        23           C   tau(  23) = (   0.4000000   0.0000000   0.0000000  )
        24           C   tau(  24) = (   0.4000000   0.1154701   0.0000000  )
        25           C   tau(  25) = (   0.3000000   0.1732051   0.0000000  )
        26           C   tau(  26) = (   0.3000000   0.2886751   0.0000000  )
        27           C   tau(  27) = (   0.2000000   0.3464102   0.0000000  )
        28           Mn  tau(  28) = (   0.2000000   0.4618802   0.0000000  )
        29           C   tau(  29) = (   0.1000000   0.5196152   0.0000000  )
        30           C   tau(  30) = (   0.1000000   0.6350853   0.0000000  )
        31           C   tau(  31) = (   0.0000000   0.6928203   0.0000000  )
        32           C   tau(  32) = (   0.0000000   0.8082904   0.0000000  )
        33           C   tau(  33) = (   0.6000000   0.0000000   0.0000000  )
        34           C   tau(  34) = (   0.6000000   0.1154701   0.0000000  )
        35           C   tau(  35) = (   0.5000000   0.1732051   0.0000000  )
        36           C   tau(  36) = (   0.5000000   0.2886751   0.0000000  )
        37           C   tau(  37) = (   0.4000000   0.3464102   0.0000000  )
        38           C   tau(  38) = (   0.4000000   0.4618802   0.0000000  )
        39           C   tau(  39) = (   0.3000000   0.5196152   0.0000000  )
        40           C   tau(  40) = (   0.3000000   0.6350853   0.0000000  )
        41           C   tau(  41) = (   0.2000000   0.6928203   0.0000000  )
        42           C   tau(  42) = (   0.2000000   0.8082904   0.0000000  )
        43           C   tau(  43) = (   0.8000000   0.0000000   0.0000000  )
        44           C   tau(  44) = (   0.8000000   0.1154701   0.0000000  )
        45           C   tau(  45) = (   0.7000000   0.1732051   0.0000000  )
        46           C   tau(  46) = (   0.7000000   0.2886751   0.0000000  )
        47           C   tau(  47) = (   0.6000000   0.3464102   0.0000000  )
        48           C   tau(  48) = (   0.6000000   0.4618802   0.0000000  )
        49           C   tau(  49) = (   0.5000000   0.5196152   0.0000000  )
        50           C   tau(  50) = (   0.5000000   0.6350853   0.0000000  )
        51           C   tau(  51) = (   0.4000000   0.6928203   0.0000000  )
        52           C   tau(  52) = (   0.4000000   0.8082904   0.0000000  )

   Crystallographic axes

     site n.     atom                  positions (cryst. coord.)
         1           H   tau(   1) = (  0.5028270  0.4666667  0.4500000  )
         2           H   tau(   2) = (  0.5638397  0.4666667  0.4500000  )
         3           C   tau(   3) = (  0.0000000  0.0000000  0.0000000  )
         4           C   tau(   4) = (  0.0666667  0.1333333  0.0000000  )
         5           C   tau(   5) = (  0.0000000  0.2000000  0.0000000  )
         6           C   tau(   6) = (  0.0666667  0.3333333  0.0000000  )
         7           C   tau(   7) = (  0.0000000  0.4000000  0.0000000  )
         8           C   tau(   8) = (  0.0666667  0.5333333  0.0000000  )
         9           C   tau(   9) = (  0.0000000  0.6000000  0.0000000  )
        10           C   tau(  10) = (  0.0666667  0.7333333  0.0000000  )
        11           C   tau(  11) = (  0.0000000  0.8000000  0.0000000  )
        12           C   tau(  12) = (  0.0666667  0.9333333  0.0000000  )
        13           C   tau(  13) = (  0.2000000  0.0000000  0.0000000  )
        14           C   tau(  14) = (  0.2666667  0.1333333  0.0000000  )
        15           C   tau(  15) = (  0.2000000  0.2000000  0.0000000  )
        16           C   tau(  16) = (  0.2666667  0.3333333  0.0000000  )
        17           C   tau(  17) = (  0.2000000  0.4000000  0.0000000  )
        18           C   tau(  18) = (  0.2666667  0.5333333  0.0000000  )
        19           C   tau(  19) = (  0.2000000  0.6000000  0.0000000  )
        20           C   tau(  20) = (  0.2666667  0.7333333  0.0000000  )
        21           C   tau(  21) = (  0.2000000  0.8000000  0.0000000  )
        22           C   tau(  22) = (  0.2666667  0.9333333  0.0000000  )
        23           C   tau(  23) = (  0.4000000  0.0000000  0.0000000  )
        24           C   tau(  24) = (  0.4666667  0.1333333  0.0000000  )
        25           C   tau(  25) = (  0.4000000  0.2000000  0.0000000  )
        26           C   tau(  26) = (  0.4666667  0.3333333  0.0000000  )
        27           C   tau(  27) = (  0.4000000  0.4000000  0.0000000  )
        28           Mn  tau(  28) = (  0.4666667  0.5333333  0.0000000  )
        29           C   tau(  29) = (  0.4000000  0.6000000  0.0000000  )
        30           C   tau(  30) = (  0.4666667  0.7333333  0.0000000  )
        31           C   tau(  31) = (  0.4000000  0.8000000  0.0000000  )
        32           C   tau(  32) = (  0.4666667  0.9333333  0.0000000  )
        33           C   tau(  33) = (  0.6000000  0.0000000  0.0000000  )
        34           C   tau(  34) = (  0.6666667  0.1333333  0.0000000  )
        35           C   tau(  35) = (  0.6000000  0.2000000  0.0000000  )
        36           C   tau(  36) = (  0.6666667  0.3333333  0.0000000  )
        37           C   tau(  37) = (  0.6000000  0.4000000  0.0000000  )
        38           C   tau(  38) = (  0.6666667  0.5333333  0.0000000  )
        39           C   tau(  39) = (  0.6000000  0.6000000  0.0000000  )
        40           C   tau(  40) = (  0.6666667  0.7333333  0.0000000  )
        41           C   tau(  41) = (  0.6000000  0.8000000  0.0000000  )
        42           C   tau(  42) = (  0.6666667  0.9333333  0.0000000  )
        43           C   tau(  43) = (  0.8000000  0.0000000  0.0000000  )
        44           C   tau(  44) = (  0.8666667  0.1333333  0.0000000  )
        45           C   tau(  45) = (  0.8000000  0.2000000  0.0000000  )
        46           C   tau(  46) = (  0.8666667  0.3333333  0.0000000  )
        47           C   tau(  47) = (  0.8000000  0.4000000  0.0000000  )
        48           C   tau(  48) = (  0.8666667  0.5333333  0.0000000  )
        49           C   tau(  49) = (  0.8000000  0.6000000  0.0000000  )
        50           C   tau(  50) = (  0.8666667  0.7333333  0.0000000  )
        51           C   tau(  51) = (  0.8000000  0.8000000  0.0000000  )
        52           C   tau(  52) = (  0.8666667  0.9333333  0.0000000  )

     number of k points=     1  Marzari-Vanderbilt smearing, width (Ry)=  0.0010
                       cart. coord. in units 2pi/alat
        k(    1) = (   0.0000000   0.0000000   0.0000000), wk =   1.0000000

                       cryst. coord.
        k(    1) = (   0.0000000   0.0000000   0.0000000), wk =   1.0000000

     Dense  grid:  1626001 G-vectors     FFT dimensions: ( 180, 180, 135)

     Smooth grid:   702581 G-vectors     FFT dimensions: ( 125, 125, 108)

     Dynamical RAM for                 wfc:      28.59 MB

     Dynamical RAM for     wfc (w. buffer):      85.76 MB

     Dynamical RAM for           str. fact:      12.41 MB

     Dynamical RAM for           local pot:       0.00 MB

     Dynamical RAM for          nlocal pot:      92.46 MB

     Dynamical RAM for                qrad:      19.73 MB

     Dynamical RAM for          rho,v,vnew:      58.92 MB

     Dynamical RAM for               rhoin:      19.64 MB

     Dynamical RAM for            rho*nmix:     132.32 MB

     Dynamical RAM for           G-vectors:      16.40 MB

     Dynamical RAM for          h,s,v(r/c):      12.00 MB

     Dynamical RAM for          <psi|beta>:       0.81 MB

     Dynamical RAM for                 psi:     114.35 MB

     Dynamical RAM for                hpsi:     114.35 MB

     Dynamical RAM for                spsi:     114.35 MB

     Dynamical RAM for      wfcinit/wfcrot:      93.90 MB

     Dynamical RAM for           addusdens:     975.89 MB

     Estimated static dynamical RAM per process >     488.30 MB

     Estimated max dynamical RAM per process >       1.43 GB

     Estimated total dynamical RAM >       8.58 GB
     Generating pointlists ...
     new r_m :   0.0252 (alat units)  0.5862 (a.u.) for type    1
     new r_m :   0.0476 (alat units)  1.1095 (a.u.) for type    2
     new r_m :   0.0476 (alat units)  1.1095 (a.u.) for type    3

     Check: negative core charge=   -0.000002

     Initial potential from superposition of free atoms

     starting charge  212.80506, renormalised to  213.00000

     negative rho (up, down):  5.911E-05 7.446E-03


---------------------------------------------------------------------------------
Carrying out rVV10 run using the following parameters:
Nqs =      20    Nr_points =    1024   r_max =   100.000
b_value =  6.30000    beta =  0.00901
     q_mesh =  0.00010000  0.00030000  0.00058939  0.00100810
               0.00161396  0.00249058  0.00375900  0.00559430
               0.00824984  0.01209221  0.01765183  0.02569619
               0.03733578  0.05417739  0.07854596  0.11380545
               0.16482331  0.23864234  0.34545298  0.50000000

Gradients computed in Reciprocal space

---------------------------------------------------------------------------------


     Starting wfcs are  208 randomized atomic wfcs

     total cpu time spent up to now is       78.2 secs

     Self-consistent Calculation

     iteration #  1     ecut=    70.00 Ry     beta= 0.70
     Davidson diagonalization with overlap
     ethr =  1.00E-02,  avg # of iterations =  4.0

     negative rho (up, down):  1.072E-04 7.275E-03

     total cpu time spent up to now is      226.1 secs

     total energy              =    -823.55314077 Ry
     Harris-Foulkes estimate   =    -824.90378660 Ry
     estimated scf accuracy    <       9.69517667 Ry

     total magnetization       =     5.00 Bohr mag/cell
     absolute magnetization    =     5.88 Bohr mag/cell

     iteration #  2     ecut=    70.00 Ry     beta= 0.70
     Davidson diagonalization with overlap
     ethr =  4.55E-03,  avg # of iterations =  6.5

     negative rho (up, down):  1.285E-04 7.061E-03

     total cpu time spent up to now is      355.9 secs

     total energy              =    -818.78585993 Ry
     Harris-Foulkes estimate   =    -827.00711615 Ry
     estimated scf accuracy    <      21.00718341 Ry

     total magnetization       =     6.88 Bohr mag/cell
     absolute magnetization    =     6.94 Bohr mag/cell

     iteration #  3     ecut=    70.00 Ry     beta= 0.70
     Davidson diagonalization with overlap
     ethr =  4.55E-03,  avg # of iterations =  4.0

     negative rho (up, down):  1.768E-04 7.564E-03

     total cpu time spent up to now is      524.8 secs

     total energy              =    -822.37568475 Ry
     Harris-Foulkes estimate   =    -830.39115138 Ry
     estimated scf accuracy    <      48.07885075 Ry

     total magnetization       =     1.00 Bohr mag/cell
     absolute magnetization    =     1.50 Bohr mag/cell

     iteration #  4     ecut=    70.00 Ry     beta= 0.70
     Davidson diagonalization with overlap
     ethr =  4.55E-03,  avg # of iterations =  4.0

     negative rho (up, down):  2.132E-04 1.203E-02

     total cpu time spent up to now is      638.7 secs

     total energy              =    -825.73500309 Ry
     Harris-Foulkes estimate   =    -826.01015244 Ry
     estimated scf accuracy    <       0.69401691 Ry

     total magnetization       =     3.00 Bohr mag/cell
     absolute magnetization    =     3.41 Bohr mag/cell

     iteration #  5     ecut=    70.00 Ry     beta= 0.70
     Davidson diagonalization with overlap
     ethr =  3.26E-04,  avg # of iterations =  4.0

     negative rho (up, down):  2.695E-04 1.633E-02

     total cpu time spent up to now is      773.9 secs

     total energy              =    -825.77753363 Ry
     Harris-Foulkes estimate   =    -825.99311927 Ry
     estimated scf accuracy    <       1.07590116 Ry

     total magnetization       =     3.00 Bohr mag/cell
     absolute magnetization    =     3.20 Bohr mag/cell

     iteration #  6     ecut=    70.00 Ry     beta= 0.70
     Davidson diagonalization with overlap
     ethr =  3.26E-04,  avg # of iterations =  3.5

     negative rho (up, down):  5.983E-04 6.578E-03

     total cpu time spent up to now is      890.0 secs

     total energy              =    -825.91559491 Ry
     Harris-Foulkes estimate   =    -825.96151481 Ry
     estimated scf accuracy    <       0.17818507 Ry

     total magnetization       =     3.00 Bohr mag/cell
     absolute magnetization    =     3.42 Bohr mag/cell

     iteration #  7     ecut=    70.00 Ry     beta= 0.70
     Davidson diagonalization with overlap
     ethr =  8.37E-05,  avg # of iterations =  5.5

     negative rho (up, down):  6.312E-04 7.752E-03

     total cpu time spent up to now is     1006.0 secs

     total energy              =    -825.93676023 Ry
     Harris-Foulkes estimate   =    -825.94624700 Ry
     estimated scf accuracy    <       0.04673196 Ry

     total magnetization       =     3.00 Bohr mag/cell
     absolute magnetization    =     3.59 Bohr mag/cell

     iteration #  8     ecut=    70.00 Ry     beta= 0.70
     Davidson diagonalization with overlap
     ethr =  2.19E-05,  avg # of iterations =  6.5

     negative rho (up, down):  5.928E-04 6.180E-03

     total cpu time spent up to now is     1116.8 secs

     total energy              =    -825.93936784 Ry
     Harris-Foulkes estimate   =    -825.94180058 Ry
     estimated scf accuracy    <       0.01974036 Ry

     total magnetization       =     3.00 Bohr mag/cell
     absolute magnetization    =     3.68 Bohr mag/cell

     iteration #  9     ecut=    70.00 Ry     beta= 0.70
     Davidson diagonalization with overlap
     ethr =  9.27E-06,  avg # of iterations =  2.5

     negative rho (up, down):  5.670E-04 6.048E-03

     total cpu time spent up to now is     1219.6 secs

     total energy              =    -825.94084658 Ry
     Harris-Foulkes estimate   =    -825.94112255 Ry
     estimated scf accuracy    <       0.00548962 Ry

     total magnetization       =     3.00 Bohr mag/cell
     absolute magnetization    =     3.75 Bohr mag/cell

     iteration # 10     ecut=    70.00 Ry     beta= 0.70
     Davidson diagonalization with overlap
     ethr =  2.58E-06,  avg # of iterations =  7.0

     negative rho (up, down):  5.599E-04 6.435E-03

     total cpu time spent up to now is     1330.6 secs

     total energy              =    -825.94159816 Ry
     Harris-Foulkes estimate   =    -825.94143420 Ry
     estimated scf accuracy    <       0.00127437 Ry

     total magnetization       =     3.00 Bohr mag/cell
     absolute magnetization    =     3.88 Bohr mag/cell

     iteration # 11     ecut=    70.00 Ry     beta= 0.70
     Davidson diagonalization with overlap
     ethr =  5.98E-07,  avg # of iterations =  3.0

     negative rho (up, down):  5.620E-04 6.528E-03

     total cpu time spent up to now is     1440.6 secs

     total energy              =    -825.94191017 Ry
     Harris-Foulkes estimate   =    -825.94182575 Ry
     estimated scf accuracy    <       0.00021935 Ry

     total magnetization       =     3.00 Bohr mag/cell
     absolute magnetization    =     4.01 Bohr mag/cell

     iteration # 12     ecut=    70.00 Ry     beta= 0.70
     Davidson diagonalization with overlap
     ethr =  1.03E-07,  avg # of iterations =  3.0

     negative rho (up, down):  5.616E-04 6.571E-03

     total cpu time spent up to now is     1569.8 secs

     total energy              =    -825.94201346 Ry
     Harris-Foulkes estimate   =    -825.94200571 Ry
     estimated scf accuracy    <       0.00011049 Ry

     total magnetization       =     3.00 Bohr mag/cell
     absolute magnetization    =     4.11 Bohr mag/cell

     iteration # 13     ecut=    70.00 Ry     beta= 0.70
     Davidson diagonalization with overlap
     ethr =  5.19E-08,  avg # of iterations =  3.0

     negative rho (up, down):  5.666E-04 6.503E-03

     total cpu time spent up to now is     1696.6 secs

     total energy              =    -825.94206402 Ry
     Harris-Foulkes estimate   =    -825.94206615 Ry
     estimated scf accuracy    <       0.00005476 Ry

     total magnetization       =     3.00 Bohr mag/cell
     absolute magnetization    =     4.19 Bohr mag/cell

     iteration # 14     ecut=    70.00 Ry     beta= 0.70
     Davidson diagonalization with overlap
     ethr =  2.57E-08,  avg # of iterations =  2.5

     negative rho (up, down):  5.693E-04 6.440E-03

     total cpu time spent up to now is     1808.2 secs

     total energy              =    -825.94208692 Ry
     Harris-Foulkes estimate   =    -825.94207510 Ry
     estimated scf accuracy    <       0.00000640 Ry

     total magnetization       =     3.00 Bohr mag/cell
     absolute magnetization    =     4.21 Bohr mag/cell

     iteration # 15     ecut=    70.00 Ry     beta= 0.70
     Davidson diagonalization with overlap
     ethr =  3.00E-09,  avg # of iterations =  3.5

     negative rho (up, down):  5.691E-04 6.456E-03

     total cpu time spent up to now is     1948.4 secs

     total energy              =    -825.94209991 Ry
     Harris-Foulkes estimate   =    -825.94209721 Ry
     estimated scf accuracy    <       0.00000261 Ry

     total magnetization       =     3.00 Bohr mag/cell
     absolute magnetization    =     4.27 Bohr mag/cell

     iteration # 16     ecut=    70.00 Ry     beta= 0.70
     Davidson diagonalization with overlap
     ethr =  1.23E-09,  avg # of iterations =  3.5

     negative rho (up, down):  5.691E-04 6.463E-03

     total cpu time spent up to now is     2109.8 secs

     total energy              =    -825.94210309 Ry
     Harris-Foulkes estimate   =    -825.94210254 Ry
     estimated scf accuracy    <       0.00000162 Ry

     total magnetization       =     3.00 Bohr mag/cell
     absolute magnetization    =     4.29 Bohr mag/cell

     iteration # 17     ecut=    70.00 Ry     beta= 0.70
     Davidson diagonalization with overlap
     ethr =  7.59E-10,  avg # of iterations =  3.5

     negative rho (up, down):  5.686E-04 6.495E-03

     Magnetic moment per site:
     atom:    1    charge:    0.2113    magn:    0.0000    constr:    0.0000
     atom:    2    charge:    0.2113    magn:    0.0001    constr:    0.0000
     atom:    3    charge:    1.7170    magn:   -0.0128    constr:    0.0000
     atom:    4    charge:    1.7156    magn:    0.0180    constr:    0.0000
     atom:    5    charge:    1.7176    magn:   -0.0098    constr:    0.0000
     atom:    6    charge:    1.7142    magn:    0.0062    constr:    0.0000
     atom:    7    charge:    1.7177    magn:   -0.0097    constr:    0.0000
     atom:    8    charge:    1.7156    magn:    0.0180    constr:    0.0000
     atom:    9    charge:    1.7170    magn:   -0.0128    constr:    0.0000
     atom:   10    charge:    1.7155    magn:    0.0576    constr:    0.0000
     atom:   11    charge:    1.7175    magn:   -0.0180    constr:    0.0000
     atom:   12    charge:    1.7155    magn:    0.0576    constr:    0.0000
     atom:   13    charge:    1.7174    magn:   -0.0180    constr:    0.0000
     atom:   14    charge:    1.7158    magn:    0.0461    constr:    0.0000
     atom:   15    charge:    1.7144    magn:   -0.0148    constr:    0.0000
     atom:   16    charge:    1.7123    magn:    0.0616    constr:    0.0000
     atom:   17    charge:    1.7235    magn:   -0.0141    constr:    0.0000
     atom:   18    charge:    1.7124    magn:    0.0616    constr:    0.0000
     atom:   19    charge:    1.7144    magn:   -0.0148    constr:    0.0000
     atom:   20    charge:    1.7159    magn:    0.0461    constr:    0.0000
     atom:   21    charge:    1.7175    magn:   -0.0180    constr:    0.0000
     atom:   22    charge:    1.7155    magn:    0.0576    constr:    0.0000
     atom:   23    charge:    1.7170    magn:   -0.0128    constr:    0.0000
     atom:   24    charge:    1.7156    magn:    0.0180    constr:    0.0000
     atom:   25    charge:    1.7144    magn:   -0.0148    constr:    0.0000
     atom:   26    charge:    1.7124    magn:    0.0616    constr:    0.0000
     atom:   27    charge:    1.8739    magn:   -0.0301    constr:    0.0000
     atom:   28    charge:   10.0210    magn:    0.7886    constr:    0.0000
     atom:   29    charge:    1.8739    magn:   -0.0301    constr:    0.0000
     atom:   30    charge:    1.7124    magn:    0.0616    constr:    0.0000
     atom:   31    charge:    1.7144    magn:   -0.0148    constr:    0.0000
     atom:   32    charge:    1.7156    magn:    0.0180    constr:    0.0000
     atom:   33    charge:    1.7177    magn:   -0.0098    constr:    0.0000
     atom:   34    charge:    1.7141    magn:    0.0126    constr:    0.0000
     atom:   35    charge:    1.7177    magn:   -0.0098    constr:    0.0000
     atom:   36    charge:    1.7143    magn:    0.0063    constr:    0.0000
     atom:   37    charge:    1.7236    magn:   -0.0141    constr:    0.0000
     atom:   38    charge:    1.7124    magn:    0.0616    constr:    0.0000
     atom:   39    charge:    1.8739    magn:   -0.0301    constr:    0.0000
     atom:   40    charge:    1.7124    magn:    0.0616    constr:    0.0000
     atom:   41    charge:    1.7236    magn:   -0.0141    constr:    0.0000
     atom:   42    charge:    1.7142    magn:    0.0062    constr:    0.0000
     atom:   43    charge:    1.7176    magn:   -0.0098    constr:    0.0000
     atom:   44    charge:    1.7141    magn:    0.0126    constr:    0.0000
     atom:   45    charge:    1.7233    magn:   -0.0070    constr:    0.0000
     atom:   46    charge:    1.7142    magn:    0.0126    constr:    0.0000
     atom:   47    charge:    1.7177    magn:   -0.0098    constr:    0.0000
     atom:   48    charge:    1.7157    magn:    0.0180    constr:    0.0000
     atom:   49    charge:    1.7145    magn:   -0.0148    constr:    0.0000
     atom:   50    charge:    1.7159    magn:    0.0461    constr:    0.0000
     atom:   51    charge:    1.7144    magn:   -0.0148    constr:    0.0000
     atom:   52    charge:    1.7156    magn:    0.0180    constr:    0.0000

     total cpu time spent up to now is     2273.4 secs

     End of self-consistent calculation

 ------ SPIN UP ------------


          k = 0.0000 0.0000 0.0000 ( 87777 PWs)   bands (ev):

   -80.7193 -50.2226 -50.2225 -49.1405 -19.7760 -18.9406 -18.9402 -18.8485
   -18.8281 -18.8279 -18.4844 -17.0775 -17.0775 -17.0722 -16.9927 -16.9926
   -16.6813 -16.2326 -16.2325 -16.1241 -16.0631 -16.0628 -15.3622 -14.1225
   -14.1223 -14.0559 -13.9901 -13.9900 -13.3234 -13.0640 -13.0640 -13.0367
   -12.7342 -12.7341 -12.3172 -11.8420 -11.8418 -11.6575 -11.3822 -11.3822
   -10.4691  -9.6745  -9.6742  -9.4367  -9.3180  -9.3179  -9.2239  -9.1967
    -9.1966  -9.1822  -8.6931  -8.6930  -8.1658  -8.1656  -8.0602  -7.9397
    -7.8310  -7.4257  -7.4255  -7.1934  -7.1923  -7.1918  -6.9182  -6.9181
    -6.8365  -6.8254  -6.8245  -6.7127  -6.5613  -6.5612  -6.5396  -6.5303
    -6.5204  -6.5202  -6.4829  -6.4745  -5.6423  -5.6416  -5.5229  -5.5229
    -5.3195  -5.3194  -5.0355  -4.9811  -4.8811  -4.7488  -4.7281  -4.7280
    -4.4066  -4.2296  -4.2292  -4.2178  -4.2178  -3.8879  -3.8879  -3.7908
    -3.6670  -3.6668  -3.1486  -2.7558  -2.7555  -1.8984  -1.8019  -1.8017
    -1.4667  -1.1158  -1.1156  -0.8527   0.9040   0.9659   0.9660   1.5671
     1.5672   1.5783   2.5075   2.7589   2.7591   2.8567   3.0284   3.0364
     3.4606   3.4745   3.4749   3.4950   3.6418   3.7210   3.7374   3.7388

     occupation numbers 
     1.0000   1.0000   1.0000   1.0000   1.0000   1.0000   1.0000   1.0000
     1.0000   1.0000   1.0000   1.0000   1.0000   1.0000   1.0000   1.0000
     1.0000   1.0000   1.0000   1.0000   1.0000   1.0000   1.0000   1.0000
     1.0000   1.0000   1.0000   1.0000   1.0000   1.0000   1.0000   1.0000
     1.0000   1.0000   1.0000   1.0000   1.0000   1.0000   1.0000   1.0000
     1.0000   1.0000   1.0000   1.0000   1.0000   1.0000   1.0000   1.0000
     1.0000   1.0000   1.0000   1.0000   1.0000   1.0000   1.0000   1.0000
     1.0000   1.0000   1.0000   1.0000   1.0000   1.0000   1.0000   1.0000
     1.0000   1.0000   1.0000   1.0000   1.0000   1.0000   1.0000   1.0000
     1.0000   1.0000   1.0000   1.0000   1.0000   1.0000   1.0000   1.0000
     1.0000   1.0000   1.0000   1.0000   1.0000   1.0000   1.0000   1.0000
     1.0000   1.0000   1.0000   1.0000   1.0000   1.0000   1.0000   1.0000
     1.0000   1.0000   1.0000   1.0000   1.0000   1.0000   1.0000   1.0000
     1.0000   1.0000   1.0000   1.0000   0.0000   0.0000   0.0000   0.0000
     0.0000   0.0000   0.0000   0.0000   0.0000   0.0000   0.0000   0.0000
     0.0000   0.0000   0.0000   0.0000   0.0000   0.0000   0.0000   0.0000

 ------ SPIN DOWN ----------


          k = 0.0000 0.0000 0.0000 ( 87777 PWs)   bands (ev):

   -79.3756 -49.1493 -49.1491 -47.3702 -19.7343 -18.8924 -18.8922 -18.8112
   -18.8015 -18.8014 -18.4192 -17.0429 -17.0401 -17.0401 -16.9367 -16.9367
   -16.6518 -16.1826 -16.1824 -16.0931 -16.0194 -16.0191 -15.3312 -14.0492
   -14.0490 -13.9875 -13.9801 -13.9800 -13.3302 -13.0376 -13.0376 -13.0041
   -12.7152 -12.7151 -12.2801 -11.7999 -11.7998 -11.6325 -11.3581 -11.3580
   -10.4315  -9.6064  -9.6062  -9.4058  -9.2832  -9.2830  -9.2079  -9.1722
    -9.1721  -9.1648  -8.6772  -8.6772  -8.1160  -8.1158  -8.0288  -7.8428
    -7.8130  -7.4096  -7.4093  -7.1355  -6.9983  -6.9972  -6.8563  -6.8562
    -6.7686  -6.7677  -6.7389  -6.6967  -6.5421  -6.5420  -6.5189  -6.5074
    -6.5072  -6.4885  -6.4573  -6.3822  -5.4846  -5.4846  -5.3537  -5.3531
    -5.2423  -5.2421  -4.9676  -4.8698  -4.6832  -4.6741  -4.6369  -4.6368
    -4.3298  -4.0992  -4.0987  -4.0106  -4.0105  -3.7521  -3.7520  -3.7034
    -3.6482  -3.6480  -3.0763  -2.4963  -2.4961  -1.7770  -1.7768  -1.7289
    -0.8175  -0.5162  -0.5160  -0.0649   1.0080   1.0082   1.0609   1.7431
     1.7462   1.7464   2.5432   2.8963   2.8965   2.9255   3.3034   3.3286
     3.5476   3.6401   3.6617   3.6618   3.6858   3.7442   3.7488   3.7542

     occupation numbers 
     1.0000   1.0000   1.0000   1.0000   1.0000   1.0000   1.0000   1.0000
     1.0000   1.0000   1.0000   1.0000   1.0000   1.0000   1.0000   1.0000
     1.0000   1.0000   1.0000   1.0000   1.0000   1.0000   1.0000   1.0000
     1.0000   1.0000   1.0000   1.0000   1.0000   1.0000   1.0000   1.0000
     1.0000   1.0000   1.0000   1.0000   1.0000   1.0000   1.0000   1.0000
     1.0000   1.0000   1.0000   1.0000   1.0000   1.0000   1.0000   1.0000
     1.0000   1.0000   1.0000   1.0000   1.0000   1.0000   1.0000   1.0000
     1.0000   1.0000   1.0000   1.0000   1.0000   1.0000   1.0000   1.0000
     1.0000   1.0000   1.0000   1.0000   1.0000   1.0000   1.0000   1.0000
     1.0000   1.0000   1.0000   1.0000   1.0000   1.0000   1.0000   1.0000
     1.0000   1.0000   1.0000   1.0000   1.0000   1.0000   1.0000   1.0000
     1.0000   1.0000   1.0000   1.0000   1.0000   1.0000   1.0000   1.0000
     1.0000   1.0000   1.0000   1.0000   1.0000   1.0000   1.0000   1.0000
     1.0000   0.0000   0.0000   0.0000   0.0000   0.0000   0.0000   0.0000
     0.0000   0.0000   0.0000   0.0000   0.0000   0.0000   0.0000   0.0000
     0.0000   0.0000   0.0000   0.0000   0.0000   0.0000   0.0000   0.0000

     the Fermi energy is    -0.6761 ev

!    total energy              =    -825.94210471 Ry
     Harris-Foulkes estimate   =    -825.94210516 Ry
     estimated scf accuracy    <       0.00000078 Ry

     The total energy is the sum of the following terms:

     one-electron contribution =   -2703.99120561 Ry
     hartree contribution      =    1396.83898857 Ry
     xc contribution           =    -259.64045146 Ry
     ewald contribution        =     740.85056379 Ry
     smearing contrib. (-TS)   =       0.00000000 Ry

     total magnetization       =     3.00 Bohr mag/cell
     absolute magnetization    =     4.32 Bohr mag/cell

     convergence has been achieved in  17 iterations

     Writing output data file manganeso-sixhollow-distance-4.5.save/

     init_run     :     75.36s CPU     76.91s WALL (       1 calls)
     electrons    :   2159.04s CPU   2195.34s WALL (       1 calls)

     Called by init_run:
     wfcinit      :     46.36s CPU     46.84s WALL (       1 calls)
     wfcinit:atom :      0.04s CPU      0.08s WALL (       2 calls)
     wfcinit:wfcr :     45.91s CPU     46.31s WALL (       2 calls)
     potinit      :     12.11s CPU     12.60s WALL (       1 calls)
     hinit0       :      7.36s CPU      7.40s WALL (       1 calls)

     Called by electrons:
     c_bands      :   1454.51s CPU   1462.80s WALL (      17 calls)
     sum_band     :    414.63s CPU    426.11s WALL (      17 calls)
     v_of_rho     :    143.05s CPU    149.71s WALL (      18 calls)
     v_h          :      1.55s CPU      1.60s WALL (      18 calls)
     v_xc         :    141.50s CPU    148.11s WALL (      18 calls)
     newd         :    150.28s CPU    160.80s WALL (      18 calls)
     mix_rho      :      8.07s CPU      8.23s WALL (      17 calls)

     Called by c_bands:
     init_us_2    :      3.65s CPU      3.67s WALL (      70 calls)
     cegterg      :   1445.33s CPU   1453.57s WALL (      34 calls)

     Called by sum_band:
     sum_band:bec :      0.03s CPU      0.03s WALL (      34 calls)
     addusdens    :    258.09s CPU    268.61s WALL (      17 calls)

     Called by *egterg:
     h_psi        :    752.98s CPU    759.04s WALL (     175 calls)
     s_psi        :    249.16s CPU    249.30s WALL (     175 calls)
     g_psi        :      0.80s CPU      0.80s WALL (     139 calls)
     cdiaghg      :     16.19s CPU     16.20s WALL (     173 calls)
     cegterg:over :    196.86s CPU    197.01s WALL (     139 calls)
     cegterg:upda :    127.91s CPU    128.70s WALL (     139 calls)
     cegterg:last :     73.31s CPU     73.33s WALL (      34 calls)

     Called by h_psi:
     h_psi:pot    :    752.22s CPU    757.27s WALL (     175 calls)
     h_psi:calbec :    246.31s CPU    246.42s WALL (     175 calls)
     vloc_psi     :    258.71s CPU    263.55s WALL (     175 calls)
     add_vuspsi   :    247.19s CPU    247.30s WALL (     175 calls)

     General routines
     calbec       :    338.14s CPU    338.31s WALL (     209 calls)
     fft          :     85.80s CPU     88.64s WALL (    1344 calls)
     ffts         :      1.48s CPU      1.52s WALL (      70 calls)
     fftw         :    266.19s CPU    271.13s WALL (   27628 calls)
     interpolate  :      3.45s CPU      3.54s WALL (      36 calls)

     Parallel routines
     fft_scatt_xy :     67.26s CPU     68.06s WALL (   29042 calls)
     fft_scatt_yz :    112.60s CPU    118.17s WALL (   29042 calls)

     PWSCF        :  37m15.88s CPU  37m54.17s WALL


   This run was terminated on:   0:40:49  20Sep2022            

=------------------------------------------------------------------------------=
   JOB DONE.
=------------------------------------------------------------------------------=
