
     Program PWSCF v.6.4.1 starts on 20Sep2022 at  5:52:33 

     This program is part of the open-source Quantum ESPRESSO suite
     for quantum simulation of materials; please cite
         "P. Giannozzi et al., J. Phys.:Condens. Matter 21 395502 (2009);
         "P. Giannozzi et al., J. Phys.:Condens. Matter 29 465901 (2017);
          URL http://www.quantum-espresso.org", 
     in publications or presentations arising from this work. More details at
     http://www.quantum-espresso.org/quote

     Parallel version (MPI), running on     6 processors

     MPI processes distributed on     1 nodes
     R & G space division:  proc/nbgrp/npool/nimage =       6
     Reading input from distance-1.8.in

     Current dimensions of program PWSCF are:
     Max number of different atomic species (ntypx) = 10
     Max number of k-points (npk) =  40000
     Max angular momentum in pseudopotentials (lmaxx) =  3

     IMPORTANT: XC functional enforced from input :
     Exchange-correlation      = RVV10 ( 1  4 13  4 3 0)
     Any further DFT definition will be discarded
     Please, verify this is what you really want

               file H.pbe-rrkjus.UPF: wavefunction(s)  1S renormalized
               file Mn.pbe-spn-rrkjus_psl.0.3.1.UPF: wavefunction(s)  3D renormalized

     Subspace diagonalization in iterative solution of the eigenvalue problem:
     a serial algorithm will be used


     Parallelization info
     --------------------
     sticks:   dense  smooth     PW     G-vecs:    dense   smooth      PW
     Min        3051    1746    432               270999   117096   14629
     Max        3053    1747    437               271001   117099   14630
     Sum       18313   10477   2611              1626001   702581   87777



     bravais-lattice index     =            4
     lattice parameter (alat)  =      23.2937  a.u.
     unit-cell volume          =    8879.8548 (a.u.)^3
     number of atoms/cell      =           52
     number of atomic types    =            3
     number of electrons       =       213.00
     number of Kohn-Sham states=          128
     kinetic-energy cutoff     =      70.0000  Ry
     charge density cutoff     =     490.0000  Ry
     convergence threshold     =      1.0E-06
     mixing beta               =       0.7000
     number of iterations used =            8  plain     mixing
     Exchange-correlation      = RVV10 ( 1  4 13  4 3 0)

     celldm(1)=  23.293684  celldm(2)=   0.000000  celldm(3)=   0.811261
     celldm(4)=   0.000000  celldm(5)=   0.000000  celldm(6)=   0.000000

     crystal axes: (cart. coord. in units of alat)
               a(1) = (   1.000000   0.000000   0.000000 )  
               a(2) = (  -0.500000   0.866025   0.000000 )  
               a(3) = (   0.000000   0.000000   0.811261 )  

     reciprocal axes: (cart. coord. in units 2 pi/alat)
               b(1) = (  1.000000  0.577350 -0.000000 )  
               b(2) = (  0.000000  1.154701  0.000000 )  
               b(3) = (  0.000000 -0.000000  1.232649 )  


     PseudoPot. # 1 for H  read from file:
     /home/cristian/Escritorio/Proyecto_Grafeno/pseudopotenciales/H.pbe-rrkjus.UPF
     MD5 check sum: 7cc9d459525c9a0585f487a71c3c9563
     Pseudo is Ultrasoft, Zval =  1.0
     Generated by new atomic code, or converted to UPF format
     Using radial grid of 1061 points,  2 beta functions with: 
                l(1) =   0
                l(2) =   0
     Q(r) pseudized with 0 coefficients 


     PseudoPot. # 2 for C  read from file:
     /home/cristian/Escritorio/Proyecto_Grafeno/pseudopotenciales/C.pbe-n-rrkjus_psl.1.0.0.UPF
     MD5 check sum: 1fdd950c42eb37d8afe3dd2f8d12311e
     Pseudo is Ultrasoft + core correction, Zval =  4.0
     Generated using "atomic" code by A. Dal Corso v.6.3MaX
     Using radial grid of 1073 points,  4 beta functions with: 
                l(1) =   0
                l(2) =   0
                l(3) =   1
                l(4) =   1
     Q(r) pseudized with 0 coefficients 


     PseudoPot. # 3 for Mn read from file:
     /home/cristian/Escritorio/Proyecto_Grafeno/pseudopotenciales/Mn.pbe-spn-rrkjus_psl.0.3.1.UPF
     MD5 check sum: e1cac159bdd2ba70c18e85765a5d4279
     Pseudo is Ultrasoft + core correction, Zval = 15.0
     Generated using "atomic" code by A. Dal Corso v.6.2.2
     Using radial grid of 1187 points,  6 beta functions with: 
                l(1) =   0
                l(2) =   0
                l(3) =   1
                l(4) =   1
                l(5) =   2
                l(6) =   2
     Q(r) pseudized with 0 coefficients 


     vdW kernel table read from file rVV10_kernel_table
     MD5 check sum: b8e2538accc0c0b3206b45ba4daaba6c

     atomic species   valence    mass     pseudopotential
        H              1.00     1.00794     H ( 1.00)
        C              4.00    12.01070     C ( 1.00)
        Mn            15.00    54.93804     Mn( 1.00)

     Starting magnetic structure 
     atomic species   magnetization
        H            0.500
        C            0.300
        Mn           0.800

     No symmetry found


                                    s                        frac. trans.

      isym =  1     identity                                     

 cryst.   s( 1) = (     1          0          0      )
                  (     0          1          0      )
                  (     0          0          1      )

 cart.    s( 1) = (  1.0000000  0.0000000  0.0000000 )
                  (  0.0000000  1.0000000  0.0000000 )
                  (  0.0000000  0.0000000  1.0000000 )


     point group C_1 (1)    
     there are  1 classes
     the character table:

       E    
A      1.00

     the symmetry operations in each class and the name of the first element:

     E        1
          identity                                               

   Cartesian axes

     site n.     atom                  positions (alat units)
         1           H   tau(   1) = (   0.2694937   0.4041452   0.1460270  )
         2           H   tau(   2) = (   0.3305063   0.4041452   0.1460270  )
         3           C   tau(   3) = (   0.0000000   0.0000000   0.0000000  )
         4           C   tau(   4) = (   0.0000000   0.1154701   0.0000000  )
         5           C   tau(   5) = (  -0.1000000   0.1732051   0.0000000  )
         6           C   tau(   6) = (  -0.1000000   0.2886751   0.0000000  )
         7           C   tau(   7) = (  -0.2000000   0.3464102   0.0000000  )
         8           C   tau(   8) = (  -0.2000000   0.4618802   0.0000000  )
         9           C   tau(   9) = (  -0.3000000   0.5196152   0.0000000  )
        10           C   tau(  10) = (  -0.3000000   0.6350853   0.0000000  )
        11           C   tau(  11) = (  -0.4000000   0.6928203   0.0000000  )
        12           C   tau(  12) = (  -0.4000000   0.8082904   0.0000000  )
        13           C   tau(  13) = (   0.2000000   0.0000000   0.0000000  )
        14           C   tau(  14) = (   0.2000000   0.1154701   0.0000000  )
        15           C   tau(  15) = (   0.1000000   0.1732051   0.0000000  )
        16           C   tau(  16) = (   0.1000000   0.2886751   0.0000000  )
        17           C   tau(  17) = (   0.0000000   0.3464102   0.0000000  )
        18           C   tau(  18) = (   0.0000000   0.4618802   0.0000000  )
        19           C   tau(  19) = (  -0.1000000   0.5196152   0.0000000  )
        20           C   tau(  20) = (  -0.1000000   0.6350853   0.0000000  )
        21           C   tau(  21) = (  -0.2000000   0.6928203   0.0000000  )
        22           C   tau(  22) = (  -0.2000000   0.8082904   0.0000000  )
        23           C   tau(  23) = (   0.4000000   0.0000000   0.0000000  )
        24           C   tau(  24) = (   0.4000000   0.1154701   0.0000000  )
        25           C   tau(  25) = (   0.3000000   0.1732051   0.0000000  )
        26           C   tau(  26) = (   0.3000000   0.2886751   0.0000000  )
        27           C   tau(  27) = (   0.2000000   0.3464102   0.0000000  )
        28           Mn  tau(  28) = (   0.2000000   0.4618802   0.0000000  )
        29           C   tau(  29) = (   0.1000000   0.5196152   0.0000000  )
        30           C   tau(  30) = (   0.1000000   0.6350853   0.0000000  )
        31           C   tau(  31) = (   0.0000000   0.6928203   0.0000000  )
        32           C   tau(  32) = (   0.0000000   0.8082904   0.0000000  )
        33           C   tau(  33) = (   0.6000000   0.0000000   0.0000000  )
        34           C   tau(  34) = (   0.6000000   0.1154701   0.0000000  )
        35           C   tau(  35) = (   0.5000000   0.1732051   0.0000000  )
        36           C   tau(  36) = (   0.5000000   0.2886751   0.0000000  )
        37           C   tau(  37) = (   0.4000000   0.3464102   0.0000000  )
        38           C   tau(  38) = (   0.4000000   0.4618802   0.0000000  )
        39           C   tau(  39) = (   0.3000000   0.5196152   0.0000000  )
        40           C   tau(  40) = (   0.3000000   0.6350853   0.0000000  )
        41           C   tau(  41) = (   0.2000000   0.6928203   0.0000000  )
        42           C   tau(  42) = (   0.2000000   0.8082904   0.0000000  )
        43           C   tau(  43) = (   0.8000000   0.0000000   0.0000000  )
        44           C   tau(  44) = (   0.8000000   0.1154701   0.0000000  )
        45           C   tau(  45) = (   0.7000000   0.1732051   0.0000000  )
        46           C   tau(  46) = (   0.7000000   0.2886751   0.0000000  )
        47           C   tau(  47) = (   0.6000000   0.3464102   0.0000000  )
        48           C   tau(  48) = (   0.6000000   0.4618802   0.0000000  )
        49           C   tau(  49) = (   0.5000000   0.5196152   0.0000000  )
        50           C   tau(  50) = (   0.5000000   0.6350853   0.0000000  )
        51           C   tau(  51) = (   0.4000000   0.6928203   0.0000000  )
        52           C   tau(  52) = (   0.4000000   0.8082904   0.0000000  )

   Crystallographic axes

     site n.     atom                  positions (cryst. coord.)
         1           H   tau(   1) = (  0.5028270  0.4666667  0.1800000  )
         2           H   tau(   2) = (  0.5638397  0.4666667  0.1800000  )
         3           C   tau(   3) = (  0.0000000  0.0000000  0.0000000  )
         4           C   tau(   4) = (  0.0666667  0.1333333  0.0000000  )
         5           C   tau(   5) = (  0.0000000  0.2000000  0.0000000  )
         6           C   tau(   6) = (  0.0666667  0.3333333  0.0000000  )
         7           C   tau(   7) = (  0.0000000  0.4000000  0.0000000  )
         8           C   tau(   8) = (  0.0666667  0.5333333  0.0000000  )
         9           C   tau(   9) = (  0.0000000  0.6000000  0.0000000  )
        10           C   tau(  10) = (  0.0666667  0.7333333  0.0000000  )
        11           C   tau(  11) = (  0.0000000  0.8000000  0.0000000  )
        12           C   tau(  12) = (  0.0666667  0.9333333  0.0000000  )
        13           C   tau(  13) = (  0.2000000  0.0000000  0.0000000  )
        14           C   tau(  14) = (  0.2666667  0.1333333  0.0000000  )
        15           C   tau(  15) = (  0.2000000  0.2000000  0.0000000  )
        16           C   tau(  16) = (  0.2666667  0.3333333  0.0000000  )
        17           C   tau(  17) = (  0.2000000  0.4000000  0.0000000  )
        18           C   tau(  18) = (  0.2666667  0.5333333  0.0000000  )
        19           C   tau(  19) = (  0.2000000  0.6000000  0.0000000  )
        20           C   tau(  20) = (  0.2666667  0.7333333  0.0000000  )
        21           C   tau(  21) = (  0.2000000  0.8000000  0.0000000  )
        22           C   tau(  22) = (  0.2666667  0.9333333  0.0000000  )
        23           C   tau(  23) = (  0.4000000  0.0000000  0.0000000  )
        24           C   tau(  24) = (  0.4666667  0.1333333  0.0000000  )
        25           C   tau(  25) = (  0.4000000  0.2000000  0.0000000  )
        26           C   tau(  26) = (  0.4666667  0.3333333  0.0000000  )
        27           C   tau(  27) = (  0.4000000  0.4000000  0.0000000  )
        28           Mn  tau(  28) = (  0.4666667  0.5333333  0.0000000  )
        29           C   tau(  29) = (  0.4000000  0.6000000  0.0000000  )
        30           C   tau(  30) = (  0.4666667  0.7333333  0.0000000  )
        31           C   tau(  31) = (  0.4000000  0.8000000  0.0000000  )
        32           C   tau(  32) = (  0.4666667  0.9333333  0.0000000  )
        33           C   tau(  33) = (  0.6000000  0.0000000  0.0000000  )
        34           C   tau(  34) = (  0.6666667  0.1333333  0.0000000  )
        35           C   tau(  35) = (  0.6000000  0.2000000  0.0000000  )
        36           C   tau(  36) = (  0.6666667  0.3333333  0.0000000  )
        37           C   tau(  37) = (  0.6000000  0.4000000  0.0000000  )
        38           C   tau(  38) = (  0.6666667  0.5333333  0.0000000  )
        39           C   tau(  39) = (  0.6000000  0.6000000  0.0000000  )
        40           C   tau(  40) = (  0.6666667  0.7333333  0.0000000  )
        41           C   tau(  41) = (  0.6000000  0.8000000  0.0000000  )
        42           C   tau(  42) = (  0.6666667  0.9333333  0.0000000  )
        43           C   tau(  43) = (  0.8000000  0.0000000  0.0000000  )
        44           C   tau(  44) = (  0.8666667  0.1333333  0.0000000  )
        45           C   tau(  45) = (  0.8000000  0.2000000  0.0000000  )
        46           C   tau(  46) = (  0.8666667  0.3333333  0.0000000  )
        47           C   tau(  47) = (  0.8000000  0.4000000  0.0000000  )
        48           C   tau(  48) = (  0.8666667  0.5333333  0.0000000  )
        49           C   tau(  49) = (  0.8000000  0.6000000  0.0000000  )
        50           C   tau(  50) = (  0.8666667  0.7333333  0.0000000  )
        51           C   tau(  51) = (  0.8000000  0.8000000  0.0000000  )
        52           C   tau(  52) = (  0.8666667  0.9333333  0.0000000  )

     number of k points=     1  Marzari-Vanderbilt smearing, width (Ry)=  0.0010
                       cart. coord. in units 2pi/alat
        k(    1) = (   0.0000000   0.0000000   0.0000000), wk =   1.0000000

                       cryst. coord.
        k(    1) = (   0.0000000   0.0000000   0.0000000), wk =   1.0000000

     Dense  grid:  1626001 G-vectors     FFT dimensions: ( 180, 180, 135)

     Smooth grid:   702581 G-vectors     FFT dimensions: ( 125, 125, 108)

     Dynamical RAM for                 wfc:      28.59 MB

     Dynamical RAM for     wfc (w. buffer):      85.76 MB

     Dynamical RAM for           str. fact:      12.41 MB

     Dynamical RAM for           local pot:       0.00 MB

     Dynamical RAM for          nlocal pot:      92.46 MB

     Dynamical RAM for                qrad:      19.73 MB

     Dynamical RAM for          rho,v,vnew:      58.92 MB

     Dynamical RAM for               rhoin:      19.64 MB

     Dynamical RAM for            rho*nmix:     132.32 MB

     Dynamical RAM for           G-vectors:      16.40 MB

     Dynamical RAM for          h,s,v(r/c):      12.00 MB

     Dynamical RAM for          <psi|beta>:       0.81 MB

     Dynamical RAM for                 psi:     114.35 MB

     Dynamical RAM for                hpsi:     114.35 MB

     Dynamical RAM for                spsi:     114.35 MB

     Dynamical RAM for      wfcinit/wfcrot:      93.90 MB

     Dynamical RAM for           addusdens:     975.89 MB

     Estimated static dynamical RAM per process >     488.30 MB

     Estimated max dynamical RAM per process >       1.43 GB

     Estimated total dynamical RAM >       8.58 GB
     Generating pointlists ...
     new r_m :   0.0252 (alat units)  0.5862 (a.u.) for type    1
     new r_m :   0.0476 (alat units)  1.1095 (a.u.) for type    2
     new r_m :   0.0476 (alat units)  1.1095 (a.u.) for type    3

     Check: negative core charge=   -0.000002

     Initial potential from superposition of free atoms

     starting charge  212.80506, renormalised to  213.00000

     negative rho (up, down):  8.767E-05 1.374E-02


---------------------------------------------------------------------------------
Carrying out rVV10 run using the following parameters:
Nqs =      20    Nr_points =    1024   r_max =   100.000
b_value =  6.30000    beta =  0.00901
     q_mesh =  0.00010000  0.00030000  0.00058939  0.00100810
               0.00161396  0.00249058  0.00375900  0.00559430
               0.00824984  0.01209221  0.01765183  0.02569619
               0.03733578  0.05417739  0.07854596  0.11380545
               0.16482331  0.23864234  0.34545298  0.50000000

Gradients computed in Reciprocal space

---------------------------------------------------------------------------------


     Starting wfcs are  208 randomized atomic wfcs

     total cpu time spent up to now is       75.3 secs

     Self-consistent Calculation

     iteration #  1     ecut=    70.00 Ry     beta= 0.70
     Davidson diagonalization with overlap
     ethr =  1.00E-02,  avg # of iterations =  2.5

     negative rho (up, down):  1.820E-04 1.300E-02

     total cpu time spent up to now is      207.0 secs

     total energy              =    -820.76189687 Ry
     Harris-Foulkes estimate   =    -825.18258640 Ry
     estimated scf accuracy    <      12.87571008 Ry

     total magnetization       =     7.00 Bohr mag/cell
     absolute magnetization    =     7.38 Bohr mag/cell

     iteration #  2     ecut=    70.00 Ry     beta= 0.70
     Davidson diagonalization with overlap
     ethr =  6.04E-03,  avg # of iterations =  7.0

     negative rho (up, down):  2.509E-08 4.012E-02

     total cpu time spent up to now is      336.9 secs

     total energy              =    -808.03374094 Ry
     Harris-Foulkes estimate   =    -838.25482870 Ry
     estimated scf accuracy    <     130.21698473 Ry

     total magnetization       =     5.00 Bohr mag/cell
     absolute magnetization    =     5.11 Bohr mag/cell

     iteration #  3     ecut=    70.00 Ry     beta= 0.70
     Davidson diagonalization with overlap
     ethr =  6.04E-03,  avg # of iterations =  5.0

     negative rho (up, down):  1.504E-09 4.532E-02

     total cpu time spent up to now is      528.3 secs

     total energy              =    -823.48333633 Ry
     Harris-Foulkes estimate   =    -826.90973197 Ry
     estimated scf accuracy    <      18.10494088 Ry

     total magnetization       =     5.06 Bohr mag/cell
     absolute magnetization    =     5.20 Bohr mag/cell

     iteration #  4     ecut=    70.00 Ry     beta= 0.70
     Davidson diagonalization with overlap
     ethr =  6.04E-03,  avg # of iterations =  3.0

     negative rho (up, down):  2.702E-08 5.064E-02

     total cpu time spent up to now is      627.1 secs

     total energy              =    -824.93310760 Ry
     Harris-Foulkes estimate   =    -826.69717433 Ry
     estimated scf accuracy    <       6.50653273 Ry

     total magnetization       =     1.00 Bohr mag/cell
     absolute magnetization    =     1.70 Bohr mag/cell

     iteration #  5     ecut=    70.00 Ry     beta= 0.70
     Davidson diagonalization with overlap
     ethr =  3.05E-03,  avg # of iterations =  3.0

     negative rho (up, down):  7.896E-07 6.690E-02

     total cpu time spent up to now is      728.1 secs

     total energy              =    -825.67843709 Ry
     Harris-Foulkes estimate   =    -825.96341261 Ry
     estimated scf accuracy    <       0.79180549 Ry

     total magnetization       =     3.00 Bohr mag/cell
     absolute magnetization    =     3.23 Bohr mag/cell

     iteration #  6     ecut=    70.00 Ry     beta= 0.70
     Davidson diagonalization with overlap
     ethr =  3.72E-04,  avg # of iterations =  6.5

     negative rho (up, down):  5.563E-05 8.151E-02

     total cpu time spent up to now is      843.7 secs

     total energy              =    -825.85020318 Ry
     Harris-Foulkes estimate   =    -825.88884268 Ry
     estimated scf accuracy    <       0.13318009 Ry

     total magnetization       =     3.00 Bohr mag/cell
     absolute magnetization    =     3.32 Bohr mag/cell

     iteration #  7     ecut=    70.00 Ry     beta= 0.70
     Davidson diagonalization with overlap
     ethr =  6.25E-05,  avg # of iterations =  4.0

     negative rho (up, down):  1.612E-04 7.343E-02

     total cpu time spent up to now is      965.0 secs

     total energy              =    -825.86930919 Ry
     Harris-Foulkes estimate   =    -825.89173705 Ry
     estimated scf accuracy    <       0.05941887 Ry

     total magnetization       =     3.00 Bohr mag/cell
     absolute magnetization    =     3.47 Bohr mag/cell

     iteration #  8     ecut=    70.00 Ry     beta= 0.70
     Davidson diagonalization with overlap
     ethr =  2.79E-05,  avg # of iterations =  5.0

     negative rho (up, down):  3.248E-04 5.393E-02

     total cpu time spent up to now is     1079.7 secs

     total energy              =    -825.88188056 Ry
     Harris-Foulkes estimate   =    -825.88572392 Ry
     estimated scf accuracy    <       0.01430438 Ry

     total magnetization       =     3.00 Bohr mag/cell
     absolute magnetization    =     3.62 Bohr mag/cell

     iteration #  9     ecut=    70.00 Ry     beta= 0.70
     Davidson diagonalization with overlap
     ethr =  6.72E-06,  avg # of iterations =  3.5

     negative rho (up, down):  5.097E-04 2.892E-02

     total cpu time spent up to now is     1189.1 secs

     total energy              =    -825.88477568 Ry
     Harris-Foulkes estimate   =    -825.88523284 Ry
     estimated scf accuracy    <       0.00260278 Ry

     total magnetization       =     3.00 Bohr mag/cell
     absolute magnetization    =     3.74 Bohr mag/cell

     iteration # 10     ecut=    70.00 Ry     beta= 0.70
     Davidson diagonalization with overlap
     ethr =  1.22E-06,  avg # of iterations =  4.0

     negative rho (up, down):  6.202E-04 1.509E-02

     total cpu time spent up to now is     1307.9 secs

     total energy              =    -825.88550409 Ry
     Harris-Foulkes estimate   =    -825.88572296 Ry
     estimated scf accuracy    <       0.00127403 Ry

     total magnetization       =     3.00 Bohr mag/cell
     absolute magnetization    =     3.88 Bohr mag/cell

     iteration # 11     ecut=    70.00 Ry     beta= 0.70
     Davidson diagonalization with overlap
     ethr =  5.98E-07,  avg # of iterations =  2.5

     negative rho (up, down):  6.969E-04 1.068E-02

     total cpu time spent up to now is     1411.9 secs

     total energy              =    -825.88587613 Ry
     Harris-Foulkes estimate   =    -825.88578997 Ry
     estimated scf accuracy    <       0.00014604 Ry

     total magnetization       =     3.00 Bohr mag/cell
     absolute magnetization    =     3.97 Bohr mag/cell

     iteration # 12     ecut=    70.00 Ry     beta= 0.70
     Davidson diagonalization with overlap
     ethr =  6.86E-08,  avg # of iterations =  3.0

     negative rho (up, down):  6.947E-04 1.079E-02

     total cpu time spent up to now is     1538.2 secs

     total energy              =    -825.88599335 Ry
     Harris-Foulkes estimate   =    -825.88594996 Ry
     estimated scf accuracy    <       0.00007191 Ry

     total magnetization       =     3.00 Bohr mag/cell
     absolute magnetization    =     4.06 Bohr mag/cell

     iteration # 13     ecut=    70.00 Ry     beta= 0.70
     Davidson diagonalization with overlap
     ethr =  3.38E-08,  avg # of iterations =  3.0

     negative rho (up, down):  7.015E-04 1.091E-02

     total cpu time spent up to now is     1667.8 secs

     total energy              =    -825.88604254 Ry
     Harris-Foulkes estimate   =    -825.88604311 Ry
     estimated scf accuracy    <       0.00004719 Ry

     total magnetization       =     3.00 Bohr mag/cell
     absolute magnetization    =     4.15 Bohr mag/cell

     iteration # 14     ecut=    70.00 Ry     beta= 0.70
     Davidson diagonalization with overlap
     ethr =  2.22E-08,  avg # of iterations =  3.0

     negative rho (up, down):  6.956E-04 1.070E-02

     total cpu time spent up to now is     1773.1 secs

     total energy              =    -825.88606544 Ry
     Harris-Foulkes estimate   =    -825.88605546 Ry
     estimated scf accuracy    <       0.00002099 Ry

     total magnetization       =     3.00 Bohr mag/cell
     absolute magnetization    =     4.18 Bohr mag/cell

     iteration # 15     ecut=    70.00 Ry     beta= 0.70
     Davidson diagonalization with overlap
     ethr =  9.85E-09,  avg # of iterations =  3.0

     negative rho (up, down):  6.883E-04 1.059E-02

     total cpu time spent up to now is     1905.0 secs

     total energy              =    -825.88608414 Ry
     Harris-Foulkes estimate   =    -825.88608363 Ry
     estimated scf accuracy    <       0.00000747 Ry

     total magnetization       =     3.00 Bohr mag/cell
     absolute magnetization    =     4.24 Bohr mag/cell

     iteration # 16     ecut=    70.00 Ry     beta= 0.70
     Davidson diagonalization with overlap
     ethr =  3.51E-09,  avg # of iterations =  3.0

     negative rho (up, down):  6.863E-04 1.060E-02

     total cpu time spent up to now is     2032.3 secs

     total energy              =    -825.88608887 Ry
     Harris-Foulkes estimate   =    -825.88608850 Ry
     estimated scf accuracy    <       0.00000188 Ry

     total magnetization       =     3.00 Bohr mag/cell
     absolute magnetization    =     4.27 Bohr mag/cell

     iteration # 17     ecut=    70.00 Ry     beta= 0.70
     Davidson diagonalization with overlap
     ethr =  8.82E-10,  avg # of iterations =  3.0

     negative rho (up, down):  6.850E-04 1.062E-02

     Magnetic moment per site:
     atom:    1    charge:    0.2186    magn:   -0.0001    constr:    0.0000
     atom:    2    charge:    0.2153    magn:    0.0131    constr:    0.0000
     atom:    3    charge:    1.7168    magn:   -0.0124    constr:    0.0000
     atom:    4    charge:    1.7156    magn:    0.0178    constr:    0.0000
     atom:    5    charge:    1.7174    magn:   -0.0094    constr:    0.0000
     atom:    6    charge:    1.7143    magn:    0.0063    constr:    0.0000
     atom:    7    charge:    1.7179    magn:   -0.0092    constr:    0.0000
     atom:    8    charge:    1.7155    magn:    0.0179    constr:    0.0000
     atom:    9    charge:    1.7171    magn:   -0.0127    constr:    0.0000
     atom:   10    charge:    1.7155    magn:    0.0570    constr:    0.0000
     atom:   11    charge:    1.7173    magn:   -0.0176    constr:    0.0000
     atom:   12    charge:    1.7156    magn:    0.0571    constr:    0.0000
     atom:   13    charge:    1.7173    magn:   -0.0179    constr:    0.0000
     atom:   14    charge:    1.7159    magn:    0.0461    constr:    0.0000
     atom:   15    charge:    1.7144    magn:   -0.0146    constr:    0.0000
     atom:   16    charge:    1.7121    magn:    0.0615    constr:    0.0000
     atom:   17    charge:    1.7234    magn:   -0.0138    constr:    0.0000
     atom:   18    charge:    1.7125    magn:    0.0614    constr:    0.0000
     atom:   19    charge:    1.7144    magn:   -0.0146    constr:    0.0000
     atom:   20    charge:    1.7160    magn:    0.0475    constr:    0.0000
     atom:   21    charge:    1.7175    magn:   -0.0178    constr:    0.0000
     atom:   22    charge:    1.7154    magn:    0.0579    constr:    0.0000
     atom:   23    charge:    1.7170    magn:   -0.0125    constr:    0.0000
     atom:   24    charge:    1.7157    magn:    0.0186    constr:    0.0000
     atom:   25    charge:    1.7140    magn:   -0.0145    constr:    0.0000
     atom:   26    charge:    1.7155    magn:    0.0605    constr:    0.0000
     atom:   27    charge:    1.8764    magn:   -0.0289    constr:    0.0000
     atom:   28    charge:   10.0223    magn:    0.7810    constr:    0.0000
     atom:   29    charge:    1.8732    magn:   -0.0288    constr:    0.0000
     atom:   30    charge:    1.7122    magn:    0.0622    constr:    0.0000
     atom:   31    charge:    1.7144    magn:   -0.0150    constr:    0.0000
     atom:   32    charge:    1.7156    magn:    0.0181    constr:    0.0000
     atom:   33    charge:    1.7177    magn:   -0.0097    constr:    0.0000
     atom:   34    charge:    1.7142    magn:    0.0124    constr:    0.0000
     atom:   35    charge:    1.7175    magn:   -0.0095    constr:    0.0000
     atom:   36    charge:    1.7146    magn:    0.0071    constr:    0.0000
     atom:   37    charge:    1.7246    magn:   -0.0129    constr:    0.0000
     atom:   38    charge:    1.7164    magn:    0.0582    constr:    0.0000
     atom:   39    charge:    1.8768    magn:   -0.0287    constr:    0.0000
     atom:   40    charge:    1.7120    magn:    0.0607    constr:    0.0000
     atom:   41    charge:    1.7234    magn:   -0.0137    constr:    0.0000
     atom:   42    charge:    1.7143    magn:    0.0061    constr:    0.0000
     atom:   43    charge:    1.7176    magn:   -0.0095    constr:    0.0000
     atom:   44    charge:    1.7143    magn:    0.0121    constr:    0.0000
     atom:   45    charge:    1.7229    magn:   -0.0064    constr:    0.0000
     atom:   46    charge:    1.7143    magn:    0.0119    constr:    0.0000
     atom:   47    charge:    1.7173    magn:   -0.0089    constr:    0.0000
     atom:   48    charge:    1.7157    magn:    0.0184    constr:    0.0000
     atom:   49    charge:    1.7140    magn:   -0.0136    constr:    0.0000
     atom:   50    charge:    1.7161    magn:    0.0447    constr:    0.0000
     atom:   51    charge:    1.7145    magn:   -0.0145    constr:    0.0000
     atom:   52    charge:    1.7155    magn:    0.0178    constr:    0.0000

     total cpu time spent up to now is     2151.4 secs

     End of self-consistent calculation

 ------ SPIN UP ------------


          k = 0.0000 0.0000 0.0000 ( 87777 PWs)   bands (ev):

   -80.6815 -50.1993 -50.1881 -49.0927 -19.7913 -18.9525 -18.9487 -18.8702
   -18.8544 -18.8393 -18.5091 -17.1010 -17.0878 -17.0839 -17.0195 -17.0032
   -16.7000 -16.2493 -16.2449 -16.1433 -16.0878 -16.0749 -15.3835 -14.1355
   -14.1323 -14.0689 -14.0069 -14.0020 -13.3453 -13.0881 -13.0755 -13.0511
   -12.7630 -12.7458 -12.3330 -11.8588 -11.8554 -11.6788 -11.4083 -11.3951
   -10.4933  -9.6950  -9.6866  -9.4467  -9.3432  -9.3311  -9.2371  -9.2155
    -9.2109  -9.1984  -8.7356  -8.7057  -8.4602  -8.1794  -8.1763  -8.0569
    -7.8437  -7.7851  -7.4378  -7.4341  -7.2190  -7.2081  -6.9894  -6.9296
    -6.9281  -6.8447  -6.8382  -6.7568  -6.7216  -6.5778  -6.5705  -6.5458
    -6.5366  -6.5337  -6.4925  -5.9905  -5.6686  -5.5407  -5.5332  -5.3556
    -5.3321  -5.3282  -5.0176  -4.9917  -4.8965  -4.7643  -4.7420  -4.6728
    -4.3059  -4.2500  -4.2443  -4.2165  -4.2124  -3.9057  -3.8519  -3.7824
    -3.6820  -3.6811  -3.0743  -2.7907  -2.7659  -1.9240  -1.8219  -1.8143
    -1.1819  -1.1389  -1.0694  -0.9049   0.8750   0.9534   0.9637   1.5453
     1.5521   1.5667   2.4766   2.7386   2.7426   2.8263   2.9826   3.0560
     3.4250   3.4598   3.4704   3.6656   3.7167   3.7241   3.7411   3.7437

     occupation numbers 
     1.0000   1.0000   1.0000   1.0000   1.0000   1.0000   1.0000   1.0000
     1.0000   1.0000   1.0000   1.0000   1.0000   1.0000   1.0000   1.0000
     1.0000   1.0000   1.0000   1.0000   1.0000   1.0000   1.0000   1.0000
     1.0000   1.0000   1.0000   1.0000   1.0000   1.0000   1.0000   1.0000
     1.0000   1.0000   1.0000   1.0000   1.0000   1.0000   1.0000   1.0000
     1.0000   1.0000   1.0000   1.0000   1.0000   1.0000   1.0000   1.0000
     1.0000   1.0000   1.0000   1.0000   1.0000   1.0000   1.0000   1.0000
     1.0000   1.0000   1.0000   1.0000   1.0000   1.0000   1.0000   1.0000
     1.0000   1.0000   1.0000   1.0000   1.0000   1.0000   1.0000   1.0000
     1.0000   1.0000   1.0000   1.0000   1.0000   1.0000   1.0000   1.0000
     1.0000   1.0000   1.0000   1.0000   1.0000   1.0000   1.0000   1.0000
     1.0000   1.0000   1.0000   1.0000   1.0000   1.0000   1.0000   1.0000
     1.0000   1.0000   1.0000   1.0000   1.0000   1.0000   1.0000   1.0000
     1.0000   1.0000   1.0000   1.0006   0.0000   0.0000   0.0000   0.0000
     0.0000   0.0000   0.0000   0.0000   0.0000   0.0000   0.0000   0.0000
     0.0000   0.0000   0.0000   0.0000   0.0000   0.0000   0.0000   0.0000

 ------ SPIN DOWN ----------


          k = 0.0000 0.0000 0.0000 ( 87777 PWs)   bands (ev):

   -79.3529 -49.1380 -49.1222 -47.3501 -19.7496 -18.9025 -18.9016 -18.8369
   -18.8237 -18.8120 -18.4448 -17.0628 -17.0545 -17.0505 -16.9635 -16.9481
   -16.6702 -16.1988 -16.1950 -16.1114 -16.0452 -16.0319 -15.3527 -14.0637
   -14.0584 -14.0006 -13.9960 -13.9912 -13.3513 -13.0613 -13.0496 -13.0183
   -12.7440 -12.7267 -12.2952 -11.8169 -11.8130 -11.6538 -11.3836 -11.3708
   -10.4555  -9.6273  -9.6192  -9.4164  -9.3069  -9.2961  -9.2208  -9.1902
    -9.1862  -9.1804  -8.7094  -8.6897  -8.3150  -8.1300  -8.1240  -8.0136
    -7.8257  -7.6681  -7.4215  -7.4094  -7.1539  -7.0220  -6.8759  -6.8674
    -6.8439  -6.7804  -6.7586  -6.7057  -6.6810  -6.5586  -6.5516  -6.5344
    -6.5236  -6.5197  -6.4746  -5.8353  -5.4978  -5.4928  -5.3883  -5.2584
    -5.2521  -5.0828  -4.9781  -4.8852  -4.6882  -4.6817  -4.6500  -4.5689
    -4.2199  -4.1192  -4.1143  -4.0110  -4.0054  -3.7691  -3.7288  -3.6824
    -3.6628  -3.6541  -2.9651  -2.5369  -2.5084  -1.7941  -1.7890  -1.7525
    -0.8737  -0.5448  -0.5178   0.1499   0.9949   1.0239   1.0314   1.7143
     1.7309   1.7330   2.5081   2.8763   2.8806   2.9076   3.2557   3.3429
     3.5774   3.6441   3.6488   3.7222   3.7412   3.7492   3.7559   3.7901

     occupation numbers 
     1.0000   1.0000   1.0000   1.0000   1.0000   1.0000   1.0000   1.0000
     1.0000   1.0000   1.0000   1.0000   1.0000   1.0000   1.0000   1.0000
     1.0000   1.0000   1.0000   1.0000   1.0000   1.0000   1.0000   1.0000
     1.0000   1.0000   1.0000   1.0000   1.0000   1.0000   1.0000   1.0000
     1.0000   1.0000   1.0000   1.0000   1.0000   1.0000   1.0000   1.0000
     1.0000   1.0000   1.0000   1.0000   1.0000   1.0000   1.0000   1.0000
     1.0000   1.0000   1.0000   1.0000   1.0000   1.0000   1.0000   1.0000
     1.0000   1.0000   1.0000   1.0000   1.0000   1.0000   1.0000   1.0000
     1.0000   1.0000   1.0000   1.0000   1.0000   1.0000   1.0000   1.0000
     1.0000   1.0000   1.0000   1.0000   1.0000   1.0000   1.0000   1.0000
     1.0000   1.0000   1.0000   1.0000   1.0000   1.0000   1.0000   1.0000
     1.0000   1.0000   1.0000   1.0000   1.0000   1.0000   1.0000   1.0000
     1.0000   1.0000   1.0000   1.0000   1.0000   1.0000   1.0000   1.0000
     0.9994   0.0000   0.0000   0.0000   0.0000   0.0000   0.0000   0.0000
     0.0000   0.0000   0.0000   0.0000   0.0000   0.0000   0.0000   0.0000
     0.0000   0.0000   0.0000   0.0000   0.0000   0.0000   0.0000   0.0000

     the Fermi energy is    -0.8612 ev

!    total energy              =    -825.88608955 Ry
     Harris-Foulkes estimate   =    -825.88608979 Ry
     estimated scf accuracy    <       0.00000086 Ry

     The total energy is the sum of the following terms:

     one-electron contribution =   -2752.06051942 Ry
     hartree contribution      =    1420.83386482 Ry
     xc contribution           =    -259.75381504 Ry
     ewald contribution        =     765.09429717 Ry
     smearing contrib. (-TS)   =       0.00008292 Ry

     total magnetization       =     3.00 Bohr mag/cell
     absolute magnetization    =     4.28 Bohr mag/cell

     convergence has been achieved in  17 iterations

     Writing output data file manganeso-sixhollow-distance-1.8.save/

     init_run     :     72.73s CPU     74.13s WALL (       1 calls)
     electrons    :   2042.59s CPU   2076.22s WALL (       1 calls)

     Called by init_run:
     wfcinit      :     43.54s CPU     43.85s WALL (       1 calls)
     wfcinit:atom :      0.05s CPU      0.07s WALL (       2 calls)
     wfcinit:wfcr :     43.15s CPU     43.36s WALL (       2 calls)
     potinit      :     12.29s CPU     12.71s WALL (       1 calls)
     hinit0       :      8.05s CPU      8.07s WALL (       1 calls)

     Called by electrons:
     c_bands      :   1408.96s CPU   1416.70s WALL (      17 calls)
     sum_band     :    368.48s CPU    379.35s WALL (      17 calls)
     v_of_rho     :    134.11s CPU    140.32s WALL (      18 calls)
     v_h          :      1.47s CPU      1.51s WALL (      18 calls)
     v_xc         :    132.64s CPU    138.81s WALL (      18 calls)
     newd         :    134.56s CPU    143.98s WALL (      18 calls)
     mix_rho      :      7.36s CPU      7.53s WALL (      17 calls)

     Called by c_bands:
     init_us_2    :      3.29s CPU      3.34s WALL (      70 calls)
     cegterg      :   1400.64s CPU   1408.32s WALL (      34 calls)

     Called by sum_band:
     sum_band:bec :      0.03s CPU      0.03s WALL (      34 calls)
     addusdens    :    227.37s CPU    237.25s WALL (      17 calls)

     Called by *egterg:
     h_psi        :    719.81s CPU    725.34s WALL (     164 calls)
     s_psi        :    242.58s CPU    242.72s WALL (     164 calls)
     g_psi        :      0.85s CPU      0.85s WALL (     128 calls)
     cdiaghg      :     14.61s CPU     14.62s WALL (     162 calls)
     cegterg:over :    189.28s CPU    189.36s WALL (     128 calls)
     cegterg:upda :    129.28s CPU    130.07s WALL (     128 calls)
     cegterg:last :     82.48s CPU     82.49s WALL (      36 calls)

     Called by h_psi:
     h_psi:pot    :    718.94s CPU    723.64s WALL (     164 calls)
     h_psi:calbec :    238.26s CPU    238.38s WALL (     164 calls)
     vloc_psi     :    238.12s CPU    242.61s WALL (     164 calls)
     add_vuspsi   :    242.56s CPU    242.65s WALL (     164 calls)

     General routines
     calbec       :    323.17s CPU    323.34s WALL (     198 calls)
     fft          :     77.98s CPU     80.64s WALL (    1344 calls)
     ffts         :      1.35s CPU      1.44s WALL (      70 calls)
     fftw         :    244.76s CPU    249.49s WALL (   28814 calls)
     interpolate  :      3.16s CPU      3.29s WALL (      36 calls)

     Parallel routines
     fft_scatt_xy :     59.42s CPU     60.24s WALL (   30228 calls)
     fft_scatt_yz :    106.00s CPU    111.40s WALL (   30228 calls)

     PWSCF        :  35m16.72s CPU  35m52.14s WALL


   This run was terminated on:   6:28:26  20Sep2022            

=------------------------------------------------------------------------------=
   JOB DONE.
=------------------------------------------------------------------------------=
