
     Program PWSCF v.6.4.1 starts on 20Sep2022 at  0:40:49 

     This program is part of the open-source Quantum ESPRESSO suite
     for quantum simulation of materials; please cite
         "P. Giannozzi et al., J. Phys.:Condens. Matter 21 395502 (2009);
         "P. Giannozzi et al., J. Phys.:Condens. Matter 29 465901 (2017);
          URL http://www.quantum-espresso.org", 
     in publications or presentations arising from this work. More details at
     http://www.quantum-espresso.org/quote

     Parallel version (MPI), running on     6 processors

     MPI processes distributed on     1 nodes
     R & G space division:  proc/nbgrp/npool/nimage =       6
     Reading input from distance-4.0.in

     Current dimensions of program PWSCF are:
     Max number of different atomic species (ntypx) = 10
     Max number of k-points (npk) =  40000
     Max angular momentum in pseudopotentials (lmaxx) =  3

     IMPORTANT: XC functional enforced from input :
     Exchange-correlation      = RVV10 ( 1  4 13  4 3 0)
     Any further DFT definition will be discarded
     Please, verify this is what you really want

               file H.pbe-rrkjus.UPF: wavefunction(s)  1S renormalized
               file Mn.pbe-spn-rrkjus_psl.0.3.1.UPF: wavefunction(s)  3D renormalized

     Subspace diagonalization in iterative solution of the eigenvalue problem:
     a serial algorithm will be used


     Parallelization info
     --------------------
     sticks:   dense  smooth     PW     G-vecs:    dense   smooth      PW
     Min        3051    1746    432               270999   117096   14629
     Max        3053    1747    437               271001   117099   14630
     Sum       18313   10477   2611              1626001   702581   87777



     bravais-lattice index     =            4
     lattice parameter (alat)  =      23.2937  a.u.
     unit-cell volume          =    8879.8548 (a.u.)^3
     number of atoms/cell      =           52
     number of atomic types    =            3
     number of electrons       =       213.00
     number of Kohn-Sham states=          128
     kinetic-energy cutoff     =      70.0000  Ry
     charge density cutoff     =     490.0000  Ry
     convergence threshold     =      1.0E-06
     mixing beta               =       0.7000
     number of iterations used =            8  plain     mixing
     Exchange-correlation      = RVV10 ( 1  4 13  4 3 0)

     celldm(1)=  23.293684  celldm(2)=   0.000000  celldm(3)=   0.811261
     celldm(4)=   0.000000  celldm(5)=   0.000000  celldm(6)=   0.000000

     crystal axes: (cart. coord. in units of alat)
               a(1) = (   1.000000   0.000000   0.000000 )  
               a(2) = (  -0.500000   0.866025   0.000000 )  
               a(3) = (   0.000000   0.000000   0.811261 )  

     reciprocal axes: (cart. coord. in units 2 pi/alat)
               b(1) = (  1.000000  0.577350 -0.000000 )  
               b(2) = (  0.000000  1.154701  0.000000 )  
               b(3) = (  0.000000 -0.000000  1.232649 )  


     PseudoPot. # 1 for H  read from file:
     /home/cristian/Escritorio/Proyecto_Grafeno/pseudopotenciales/H.pbe-rrkjus.UPF
     MD5 check sum: 7cc9d459525c9a0585f487a71c3c9563
     Pseudo is Ultrasoft, Zval =  1.0
     Generated by new atomic code, or converted to UPF format
     Using radial grid of 1061 points,  2 beta functions with: 
                l(1) =   0
                l(2) =   0
     Q(r) pseudized with 0 coefficients 


     PseudoPot. # 2 for C  read from file:
     /home/cristian/Escritorio/Proyecto_Grafeno/pseudopotenciales/C.pbe-n-rrkjus_psl.1.0.0.UPF
     MD5 check sum: 1fdd950c42eb37d8afe3dd2f8d12311e
     Pseudo is Ultrasoft + core correction, Zval =  4.0
     Generated using "atomic" code by A. Dal Corso v.6.3MaX
     Using radial grid of 1073 points,  4 beta functions with: 
                l(1) =   0
                l(2) =   0
                l(3) =   1
                l(4) =   1
     Q(r) pseudized with 0 coefficients 


     PseudoPot. # 3 for Mn read from file:
     /home/cristian/Escritorio/Proyecto_Grafeno/pseudopotenciales/Mn.pbe-spn-rrkjus_psl.0.3.1.UPF
     MD5 check sum: e1cac159bdd2ba70c18e85765a5d4279
     Pseudo is Ultrasoft + core correction, Zval = 15.0
     Generated using "atomic" code by A. Dal Corso v.6.2.2
     Using radial grid of 1187 points,  6 beta functions with: 
                l(1) =   0
                l(2) =   0
                l(3) =   1
                l(4) =   1
                l(5) =   2
                l(6) =   2
     Q(r) pseudized with 0 coefficients 


     vdW kernel table read from file rVV10_kernel_table
     MD5 check sum: b8e2538accc0c0b3206b45ba4daaba6c

     atomic species   valence    mass     pseudopotential
        H              1.00     1.00794     H ( 1.00)
        C              4.00    12.01070     C ( 1.00)
        Mn            15.00    54.93804     Mn( 1.00)

     Starting magnetic structure 
     atomic species   magnetization
        H            0.500
        C            0.300
        Mn           0.800

     No symmetry found


                                    s                        frac. trans.

      isym =  1     identity                                     

 cryst.   s( 1) = (     1          0          0      )
                  (     0          1          0      )
                  (     0          0          1      )

 cart.    s( 1) = (  1.0000000  0.0000000  0.0000000 )
                  (  0.0000000  1.0000000  0.0000000 )
                  (  0.0000000  0.0000000  1.0000000 )


     point group C_1 (1)    
     there are  1 classes
     the character table:

       E    
A      1.00

     the symmetry operations in each class and the name of the first element:

     E        1
          identity                                               

   Cartesian axes

     site n.     atom                  positions (alat units)
         1           H   tau(   1) = (   0.2694937   0.4041452   0.3245045  )
         2           H   tau(   2) = (   0.3305063   0.4041452   0.3245045  )
         3           C   tau(   3) = (   0.0000000   0.0000000   0.0000000  )
         4           C   tau(   4) = (   0.0000000   0.1154701   0.0000000  )
         5           C   tau(   5) = (  -0.1000000   0.1732051   0.0000000  )
         6           C   tau(   6) = (  -0.1000000   0.2886751   0.0000000  )
         7           C   tau(   7) = (  -0.2000000   0.3464102   0.0000000  )
         8           C   tau(   8) = (  -0.2000000   0.4618802   0.0000000  )
         9           C   tau(   9) = (  -0.3000000   0.5196152   0.0000000  )
        10           C   tau(  10) = (  -0.3000000   0.6350853   0.0000000  )
        11           C   tau(  11) = (  -0.4000000   0.6928203   0.0000000  )
        12           C   tau(  12) = (  -0.4000000   0.8082904   0.0000000  )
        13           C   tau(  13) = (   0.2000000   0.0000000   0.0000000  )
        14           C   tau(  14) = (   0.2000000   0.1154701   0.0000000  )
        15           C   tau(  15) = (   0.1000000   0.1732051   0.0000000  )
        16           C   tau(  16) = (   0.1000000   0.2886751   0.0000000  )
        17           C   tau(  17) = (   0.0000000   0.3464102   0.0000000  )
        18           C   tau(  18) = (   0.0000000   0.4618802   0.0000000  )
        19           C   tau(  19) = (  -0.1000000   0.5196152   0.0000000  )
        20           C   tau(  20) = (  -0.1000000   0.6350853   0.0000000  )
        21           C   tau(  21) = (  -0.2000000   0.6928203   0.0000000  )
        22           C   tau(  22) = (  -0.2000000   0.8082904   0.0000000  )
        23           C   tau(  23) = (   0.4000000   0.0000000   0.0000000  )
        24           C   tau(  24) = (   0.4000000   0.1154701   0.0000000  )
        25           C   tau(  25) = (   0.3000000   0.1732051   0.0000000  )
        26           C   tau(  26) = (   0.3000000   0.2886751   0.0000000  )
        27           C   tau(  27) = (   0.2000000   0.3464102   0.0000000  )
        28           Mn  tau(  28) = (   0.2000000   0.4618802   0.0000000  )
        29           C   tau(  29) = (   0.1000000   0.5196152   0.0000000  )
        30           C   tau(  30) = (   0.1000000   0.6350853   0.0000000  )
        31           C   tau(  31) = (   0.0000000   0.6928203   0.0000000  )
        32           C   tau(  32) = (   0.0000000   0.8082904   0.0000000  )
        33           C   tau(  33) = (   0.6000000   0.0000000   0.0000000  )
        34           C   tau(  34) = (   0.6000000   0.1154701   0.0000000  )
        35           C   tau(  35) = (   0.5000000   0.1732051   0.0000000  )
        36           C   tau(  36) = (   0.5000000   0.2886751   0.0000000  )
        37           C   tau(  37) = (   0.4000000   0.3464102   0.0000000  )
        38           C   tau(  38) = (   0.4000000   0.4618802   0.0000000  )
        39           C   tau(  39) = (   0.3000000   0.5196152   0.0000000  )
        40           C   tau(  40) = (   0.3000000   0.6350853   0.0000000  )
        41           C   tau(  41) = (   0.2000000   0.6928203   0.0000000  )
        42           C   tau(  42) = (   0.2000000   0.8082904   0.0000000  )
        43           C   tau(  43) = (   0.8000000   0.0000000   0.0000000  )
        44           C   tau(  44) = (   0.8000000   0.1154701   0.0000000  )
        45           C   tau(  45) = (   0.7000000   0.1732051   0.0000000  )
        46           C   tau(  46) = (   0.7000000   0.2886751   0.0000000  )
        47           C   tau(  47) = (   0.6000000   0.3464102   0.0000000  )
        48           C   tau(  48) = (   0.6000000   0.4618802   0.0000000  )
        49           C   tau(  49) = (   0.5000000   0.5196152   0.0000000  )
        50           C   tau(  50) = (   0.5000000   0.6350853   0.0000000  )
        51           C   tau(  51) = (   0.4000000   0.6928203   0.0000000  )
        52           C   tau(  52) = (   0.4000000   0.8082904   0.0000000  )

   Crystallographic axes

     site n.     atom                  positions (cryst. coord.)
         1           H   tau(   1) = (  0.5028270  0.4666667  0.4000000  )
         2           H   tau(   2) = (  0.5638397  0.4666667  0.4000000  )
         3           C   tau(   3) = (  0.0000000  0.0000000  0.0000000  )
         4           C   tau(   4) = (  0.0666667  0.1333333  0.0000000  )
         5           C   tau(   5) = (  0.0000000  0.2000000  0.0000000  )
         6           C   tau(   6) = (  0.0666667  0.3333333  0.0000000  )
         7           C   tau(   7) = (  0.0000000  0.4000000  0.0000000  )
         8           C   tau(   8) = (  0.0666667  0.5333333  0.0000000  )
         9           C   tau(   9) = (  0.0000000  0.6000000  0.0000000  )
        10           C   tau(  10) = (  0.0666667  0.7333333  0.0000000  )
        11           C   tau(  11) = (  0.0000000  0.8000000  0.0000000  )
        12           C   tau(  12) = (  0.0666667  0.9333333  0.0000000  )
        13           C   tau(  13) = (  0.2000000  0.0000000  0.0000000  )
        14           C   tau(  14) = (  0.2666667  0.1333333  0.0000000  )
        15           C   tau(  15) = (  0.2000000  0.2000000  0.0000000  )
        16           C   tau(  16) = (  0.2666667  0.3333333  0.0000000  )
        17           C   tau(  17) = (  0.2000000  0.4000000  0.0000000  )
        18           C   tau(  18) = (  0.2666667  0.5333333  0.0000000  )
        19           C   tau(  19) = (  0.2000000  0.6000000  0.0000000  )
        20           C   tau(  20) = (  0.2666667  0.7333333  0.0000000  )
        21           C   tau(  21) = (  0.2000000  0.8000000  0.0000000  )
        22           C   tau(  22) = (  0.2666667  0.9333333  0.0000000  )
        23           C   tau(  23) = (  0.4000000  0.0000000  0.0000000  )
        24           C   tau(  24) = (  0.4666667  0.1333333  0.0000000  )
        25           C   tau(  25) = (  0.4000000  0.2000000  0.0000000  )
        26           C   tau(  26) = (  0.4666667  0.3333333  0.0000000  )
        27           C   tau(  27) = (  0.4000000  0.4000000  0.0000000  )
        28           Mn  tau(  28) = (  0.4666667  0.5333333  0.0000000  )
        29           C   tau(  29) = (  0.4000000  0.6000000  0.0000000  )
        30           C   tau(  30) = (  0.4666667  0.7333333  0.0000000  )
        31           C   tau(  31) = (  0.4000000  0.8000000  0.0000000  )
        32           C   tau(  32) = (  0.4666667  0.9333333  0.0000000  )
        33           C   tau(  33) = (  0.6000000  0.0000000  0.0000000  )
        34           C   tau(  34) = (  0.6666667  0.1333333  0.0000000  )
        35           C   tau(  35) = (  0.6000000  0.2000000  0.0000000  )
        36           C   tau(  36) = (  0.6666667  0.3333333  0.0000000  )
        37           C   tau(  37) = (  0.6000000  0.4000000  0.0000000  )
        38           C   tau(  38) = (  0.6666667  0.5333333  0.0000000  )
        39           C   tau(  39) = (  0.6000000  0.6000000  0.0000000  )
        40           C   tau(  40) = (  0.6666667  0.7333333  0.0000000  )
        41           C   tau(  41) = (  0.6000000  0.8000000  0.0000000  )
        42           C   tau(  42) = (  0.6666667  0.9333333  0.0000000  )
        43           C   tau(  43) = (  0.8000000  0.0000000  0.0000000  )
        44           C   tau(  44) = (  0.8666667  0.1333333  0.0000000  )
        45           C   tau(  45) = (  0.8000000  0.2000000  0.0000000  )
        46           C   tau(  46) = (  0.8666667  0.3333333  0.0000000  )
        47           C   tau(  47) = (  0.8000000  0.4000000  0.0000000  )
        48           C   tau(  48) = (  0.8666667  0.5333333  0.0000000  )
        49           C   tau(  49) = (  0.8000000  0.6000000  0.0000000  )
        50           C   tau(  50) = (  0.8666667  0.7333333  0.0000000  )
        51           C   tau(  51) = (  0.8000000  0.8000000  0.0000000  )
        52           C   tau(  52) = (  0.8666667  0.9333333  0.0000000  )

     number of k points=     1  Marzari-Vanderbilt smearing, width (Ry)=  0.0010
                       cart. coord. in units 2pi/alat
        k(    1) = (   0.0000000   0.0000000   0.0000000), wk =   1.0000000

                       cryst. coord.
        k(    1) = (   0.0000000   0.0000000   0.0000000), wk =   1.0000000

     Dense  grid:  1626001 G-vectors     FFT dimensions: ( 180, 180, 135)

     Smooth grid:   702581 G-vectors     FFT dimensions: ( 125, 125, 108)

     Dynamical RAM for                 wfc:      28.59 MB

     Dynamical RAM for     wfc (w. buffer):      85.76 MB

     Dynamical RAM for           str. fact:      12.41 MB

     Dynamical RAM for           local pot:       0.00 MB

     Dynamical RAM for          nlocal pot:      92.46 MB

     Dynamical RAM for                qrad:      19.73 MB

     Dynamical RAM for          rho,v,vnew:      58.92 MB

     Dynamical RAM for               rhoin:      19.64 MB

     Dynamical RAM for            rho*nmix:     132.32 MB

     Dynamical RAM for           G-vectors:      16.40 MB

     Dynamical RAM for          h,s,v(r/c):      12.00 MB

     Dynamical RAM for          <psi|beta>:       0.81 MB

     Dynamical RAM for                 psi:     114.35 MB

     Dynamical RAM for                hpsi:     114.35 MB

     Dynamical RAM for                spsi:     114.35 MB

     Dynamical RAM for      wfcinit/wfcrot:      93.90 MB

     Dynamical RAM for           addusdens:     975.89 MB

     Estimated static dynamical RAM per process >     488.30 MB

     Estimated max dynamical RAM per process >       1.43 GB

     Estimated total dynamical RAM >       8.58 GB
     Generating pointlists ...
     new r_m :   0.0252 (alat units)  0.5862 (a.u.) for type    1
     new r_m :   0.0476 (alat units)  1.1095 (a.u.) for type    2
     new r_m :   0.0476 (alat units)  1.1095 (a.u.) for type    3

     Check: negative core charge=   -0.000002

     Initial potential from superposition of free atoms

     starting charge  212.80506, renormalised to  213.00000

     negative rho (up, down):  6.090E-05 7.983E-03


---------------------------------------------------------------------------------
Carrying out rVV10 run using the following parameters:
Nqs =      20    Nr_points =    1024   r_max =   100.000
b_value =  6.30000    beta =  0.00901
     q_mesh =  0.00010000  0.00030000  0.00058939  0.00100810
               0.00161396  0.00249058  0.00375900  0.00559430
               0.00824984  0.01209221  0.01765183  0.02569619
               0.03733578  0.05417739  0.07854596  0.11380545
               0.16482331  0.23864234  0.34545298  0.50000000

Gradients computed in Reciprocal space

---------------------------------------------------------------------------------


     Starting wfcs are  208 randomized atomic wfcs

     total cpu time spent up to now is       88.7 secs

     Self-consistent Calculation

     iteration #  1     ecut=    70.00 Ry     beta= 0.70
     Davidson diagonalization with overlap
     ethr =  1.00E-02,  avg # of iterations =  3.5

     negative rho (up, down):  1.141E-04 7.734E-03

     total cpu time spent up to now is      254.8 secs

     total energy              =    -823.53226629 Ry
     Harris-Foulkes estimate   =    -824.89786794 Ry
     estimated scf accuracy    <       9.71261516 Ry

     total magnetization       =     5.00 Bohr mag/cell
     absolute magnetization    =     5.89 Bohr mag/cell

     iteration #  2     ecut=    70.00 Ry     beta= 0.70
     Davidson diagonalization with overlap
     ethr =  4.56E-03,  avg # of iterations =  6.5

     negative rho (up, down):  1.371E-04 7.778E-03

     total cpu time spent up to now is      401.7 secs

     total energy              =    -818.02150130 Ry
     Harris-Foulkes estimate   =    -827.12058832 Ry
     estimated scf accuracy    <      24.91125004 Ry

     total magnetization       =     6.25 Bohr mag/cell
     absolute magnetization    =     6.33 Bohr mag/cell

     iteration #  3     ecut=    70.00 Ry     beta= 0.70
     Davidson diagonalization with overlap
     ethr =  4.56E-03,  avg # of iterations =  4.0

     negative rho (up, down):  1.896E-04 7.886E-03

     total cpu time spent up to now is      592.2 secs

     total energy              =    -822.54781300 Ry
     Harris-Foulkes estimate   =    -830.19737223 Ry
     estimated scf accuracy    <      47.25846092 Ry

     total magnetization       =     1.00 Bohr mag/cell
     absolute magnetization    =     1.53 Bohr mag/cell

     iteration #  4     ecut=    70.00 Ry     beta= 0.70
     Davidson diagonalization with overlap
     ethr =  4.56E-03,  avg # of iterations =  3.0

     negative rho (up, down):  2.238E-04 1.201E-02

     total cpu time spent up to now is      717.3 secs

     total energy              =    -825.69085537 Ry
     Harris-Foulkes estimate   =    -826.05248789 Ry
     estimated scf accuracy    <       0.90273571 Ry

     total magnetization       =     3.00 Bohr mag/cell
     absolute magnetization    =     3.35 Bohr mag/cell

     iteration #  5     ecut=    70.00 Ry     beta= 0.70
     Davidson diagonalization with overlap
     ethr =  4.24E-04,  avg # of iterations =  5.0

     negative rho (up, down):  2.740E-04 1.666E-02

     total cpu time spent up to now is      873.5 secs

     total energy              =    -825.76258123 Ry
     Harris-Foulkes estimate   =    -826.02835370 Ry
     estimated scf accuracy    <       1.51613672 Ry

     total magnetization       =     2.94 Bohr mag/cell
     absolute magnetization    =     3.12 Bohr mag/cell

     iteration #  6     ecut=    70.00 Ry     beta= 0.70
     Davidson diagonalization with overlap
     ethr =  4.24E-04,  avg # of iterations =  4.0

     negative rho (up, down):  6.068E-04 5.950E-03

     total cpu time spent up to now is      996.4 secs

     total energy              =    -825.92044955 Ry
     Harris-Foulkes estimate   =    -825.95179614 Ry
     estimated scf accuracy    <       0.12885571 Ry

     total magnetization       =     3.00 Bohr mag/cell
     absolute magnetization    =     3.38 Bohr mag/cell

     iteration #  7     ecut=    70.00 Ry     beta= 0.70
     Davidson diagonalization with overlap
     ethr =  6.05E-05,  avg # of iterations =  8.5

     negative rho (up, down):  6.402E-04 7.538E-03

     total cpu time spent up to now is     1141.2 secs

     total energy              =    -825.93588552 Ry
     Harris-Foulkes estimate   =    -825.94653261 Ry
     estimated scf accuracy    <       0.04464203 Ry

     total magnetization       =     3.00 Bohr mag/cell
     absolute magnetization    =     3.57 Bohr mag/cell

     iteration #  8     ecut=    70.00 Ry     beta= 0.70
     Davidson diagonalization with overlap
     ethr =  2.10E-05,  avg # of iterations =  3.5

     negative rho (up, down):  6.066E-04 6.516E-03

     total cpu time spent up to now is     1270.1 secs

     total energy              =    -825.93936906 Ry
     Harris-Foulkes estimate   =    -825.94304838 Ry
     estimated scf accuracy    <       0.02410524 Ry

     total magnetization       =     3.00 Bohr mag/cell
     absolute magnetization    =     3.67 Bohr mag/cell

     iteration #  9     ecut=    70.00 Ry     beta= 0.70
     Davidson diagonalization with overlap
     ethr =  1.13E-05,  avg # of iterations =  2.5

     negative rho (up, down):  5.775E-04 6.538E-03

     total cpu time spent up to now is     1390.3 secs

     total energy              =    -825.94151539 Ry
     Harris-Foulkes estimate   =    -825.94152731 Ry
     estimated scf accuracy    <       0.00551519 Ry

     total magnetization       =     3.00 Bohr mag/cell
     absolute magnetization    =     3.74 Bohr mag/cell

     iteration # 10     ecut=    70.00 Ry     beta= 0.70
     Davidson diagonalization with overlap
     ethr =  2.59E-06,  avg # of iterations =  6.5

     negative rho (up, down):  5.715E-04 6.963E-03

     total cpu time spent up to now is     1519.4 secs

     total energy              =    -825.94235105 Ry
     Harris-Foulkes estimate   =    -825.94216196 Ry
     estimated scf accuracy    <       0.00093359 Ry

     total magnetization       =     3.00 Bohr mag/cell
     absolute magnetization    =     3.89 Bohr mag/cell

     iteration # 11     ecut=    70.00 Ry     beta= 0.70
     Davidson diagonalization with overlap
     ethr =  4.38E-07,  avg # of iterations =  3.0

     negative rho (up, down):  5.759E-04 6.978E-03

     total cpu time spent up to now is     1651.1 secs

     total energy              =    -825.94261784 Ry
     Harris-Foulkes estimate   =    -825.94255619 Ry
     estimated scf accuracy    <       0.00026919 Ry

     total magnetization       =     3.00 Bohr mag/cell
     absolute magnetization    =     4.01 Bohr mag/cell

     iteration # 12     ecut=    70.00 Ry     beta= 0.70
     Davidson diagonalization with overlap
     ethr =  1.26E-07,  avg # of iterations =  3.0

     negative rho (up, down):  5.733E-04 7.002E-03

     total cpu time spent up to now is     1798.5 secs

     total energy              =    -825.94272740 Ry
     Harris-Foulkes estimate   =    -825.94271542 Ry
     estimated scf accuracy    <       0.00012518 Ry

     total magnetization       =     3.00 Bohr mag/cell
     absolute magnetization    =     4.10 Bohr mag/cell

     iteration # 13     ecut=    70.00 Ry     beta= 0.70
     Davidson diagonalization with overlap
     ethr =  5.88E-08,  avg # of iterations =  3.0

     negative rho (up, down):  5.802E-04 6.901E-03

     total cpu time spent up to now is     1955.4 secs

     total energy              =    -825.94279120 Ry
     Harris-Foulkes estimate   =    -825.94278639 Ry
     estimated scf accuracy    <       0.00004184 Ry

     total magnetization       =     3.00 Bohr mag/cell
     absolute magnetization    =     4.18 Bohr mag/cell

     iteration # 14     ecut=    70.00 Ry     beta= 0.70
     Davidson diagonalization with overlap
     ethr =  1.96E-08,  avg # of iterations =  3.0

     negative rho (up, down):  5.833E-04 6.821E-03

     total cpu time spent up to now is     2100.2 secs

     total energy              =    -825.94281273 Ry
     Harris-Foulkes estimate   =    -825.94280228 Ry
     estimated scf accuracy    <       0.00000656 Ry

     total magnetization       =     3.00 Bohr mag/cell
     absolute magnetization    =     4.22 Bohr mag/cell

     iteration # 15     ecut=    70.00 Ry     beta= 0.70
     Davidson diagonalization with overlap
     ethr =  3.08E-09,  avg # of iterations =  3.5

     negative rho (up, down):  5.831E-04 6.834E-03

     total cpu time spent up to now is     2271.4 secs

     total energy              =    -825.94282267 Ry
     Harris-Foulkes estimate   =    -825.94281985 Ry
     estimated scf accuracy    <       0.00000317 Ry

     total magnetization       =     3.00 Bohr mag/cell
     absolute magnetization    =     4.27 Bohr mag/cell

     iteration # 16     ecut=    70.00 Ry     beta= 0.70
     Davidson diagonalization with overlap
     ethr =  1.49E-09,  avg # of iterations =  3.5

     negative rho (up, down):  5.833E-04 6.843E-03

     total cpu time spent up to now is     2441.0 secs

     total energy              =    -825.94282645 Ry
     Harris-Foulkes estimate   =    -825.94282608 Ry
     estimated scf accuracy    <       0.00000279 Ry

     total magnetization       =     3.00 Bohr mag/cell
     absolute magnetization    =     4.29 Bohr mag/cell

     iteration # 17     ecut=    70.00 Ry     beta= 0.70
     Davidson diagonalization with overlap
     ethr =  1.31E-09,  avg # of iterations =  3.0

     negative rho (up, down):  5.831E-04 6.861E-03

     total cpu time spent up to now is     2608.8 secs

     total energy              =    -825.94282810 Ry
     Harris-Foulkes estimate   =    -825.94282808 Ry
     estimated scf accuracy    <       0.00000111 Ry

     total magnetization       =     3.00 Bohr mag/cell
     absolute magnetization    =     4.31 Bohr mag/cell

     iteration # 18     ecut=    70.00 Ry     beta= 0.70
     Davidson diagonalization with overlap
     ethr =  5.20E-10,  avg # of iterations =  3.0

     negative rho (up, down):  5.826E-04 6.879E-03

     Magnetic moment per site:
     atom:    1    charge:    0.2116    magn:    0.0001    constr:    0.0000
     atom:    2    charge:    0.2116    magn:    0.0002    constr:    0.0000
     atom:    3    charge:    1.7170    magn:   -0.0129    constr:    0.0000
     atom:    4    charge:    1.7156    magn:    0.0180    constr:    0.0000
     atom:    5    charge:    1.7177    magn:   -0.0098    constr:    0.0000
     atom:    6    charge:    1.7143    magn:    0.0063    constr:    0.0000
     atom:    7    charge:    1.7177    magn:   -0.0098    constr:    0.0000
     atom:    8    charge:    1.7156    magn:    0.0180    constr:    0.0000
     atom:    9    charge:    1.7170    magn:   -0.0129    constr:    0.0000
     atom:   10    charge:    1.7155    magn:    0.0576    constr:    0.0000
     atom:   11    charge:    1.7175    magn:   -0.0180    constr:    0.0000
     atom:   12    charge:    1.7155    magn:    0.0576    constr:    0.0000
     atom:   13    charge:    1.7175    magn:   -0.0180    constr:    0.0000
     atom:   14    charge:    1.7159    magn:    0.0461    constr:    0.0000
     atom:   15    charge:    1.7144    magn:   -0.0149    constr:    0.0000
     atom:   16    charge:    1.7124    magn:    0.0616    constr:    0.0000
     atom:   17    charge:    1.7236    magn:   -0.0141    constr:    0.0000
     atom:   18    charge:    1.7124    magn:    0.0616    constr:    0.0000
     atom:   19    charge:    1.7144    magn:   -0.0149    constr:    0.0000
     atom:   20    charge:    1.7159    magn:    0.0461    constr:    0.0000
     atom:   21    charge:    1.7175    magn:   -0.0180    constr:    0.0000
     atom:   22    charge:    1.7155    magn:    0.0576    constr:    0.0000
     atom:   23    charge:    1.7170    magn:   -0.0129    constr:    0.0000
     atom:   24    charge:    1.7156    magn:    0.0181    constr:    0.0000
     atom:   25    charge:    1.7144    magn:   -0.0149    constr:    0.0000
     atom:   26    charge:    1.7123    magn:    0.0617    constr:    0.0000
     atom:   27    charge:    1.8739    magn:   -0.0300    constr:    0.0000
     atom:   28    charge:   10.0208    magn:    0.7888    constr:    0.0000
     atom:   29    charge:    1.8739    magn:   -0.0301    constr:    0.0000
     atom:   30    charge:    1.7124    magn:    0.0616    constr:    0.0000
     atom:   31    charge:    1.7144    magn:   -0.0149    constr:    0.0000
     atom:   32    charge:    1.7156    magn:    0.0181    constr:    0.0000
     atom:   33    charge:    1.7177    magn:   -0.0098    constr:    0.0000
     atom:   34    charge:    1.7142    magn:    0.0127    constr:    0.0000
     atom:   35    charge:    1.7177    magn:   -0.0098    constr:    0.0000
     atom:   36    charge:    1.7142    magn:    0.0063    constr:    0.0000
     atom:   37    charge:    1.7235    magn:   -0.0141    constr:    0.0000
     atom:   38    charge:    1.7123    magn:    0.0616    constr:    0.0000
     atom:   39    charge:    1.8738    magn:   -0.0301    constr:    0.0000
     atom:   40    charge:    1.7124    magn:    0.0616    constr:    0.0000
     atom:   41    charge:    1.7236    magn:   -0.0141    constr:    0.0000
     atom:   42    charge:    1.7143    magn:    0.0063    constr:    0.0000
     atom:   43    charge:    1.7177    magn:   -0.0098    constr:    0.0000
     atom:   44    charge:    1.7142    magn:    0.0127    constr:    0.0000
     atom:   45    charge:    1.7233    magn:   -0.0070    constr:    0.0000
     atom:   46    charge:    1.7142    magn:    0.0127    constr:    0.0000
     atom:   47    charge:    1.7177    magn:   -0.0098    constr:    0.0000
     atom:   48    charge:    1.7156    magn:    0.0181    constr:    0.0000
     atom:   49    charge:    1.7144    magn:   -0.0149    constr:    0.0000
     atom:   50    charge:    1.7159    magn:    0.0461    constr:    0.0000
     atom:   51    charge:    1.7144    magn:   -0.0149    constr:    0.0000
     atom:   52    charge:    1.7155    magn:    0.0181    constr:    0.0000

     total cpu time spent up to now is     2774.8 secs

     End of self-consistent calculation

 ------ SPIN UP ------------


          k = 0.0000 0.0000 0.0000 ( 87777 PWs)   bands (ev):

   -80.7177 -50.2211 -50.2210 -49.1388 -19.7757 -18.9401 -18.9398 -18.8486
   -18.8282 -18.8277 -18.4841 -17.0773 -17.0772 -17.0718 -16.9926 -16.9924
   -16.6811 -16.2324 -16.2323 -16.1241 -16.0628 -16.0626 -15.3619 -14.1221
   -14.1218 -14.0557 -13.9901 -13.9899 -13.3234 -13.0638 -13.0637 -13.0365
   -12.7341 -12.7340 -12.3169 -11.8418 -11.8416 -11.6574 -11.3819 -11.3819
   -10.4687  -9.6741  -9.6739  -9.4361  -9.3177  -9.3176  -9.2238  -9.1965
    -9.1964  -9.1820  -8.6928  -8.6928  -8.1657  -8.1655  -8.0598  -7.9398
    -7.8309  -7.4255  -7.4253  -7.1937  -7.1920  -7.1918  -6.9180  -6.9178
    -6.8372  -6.8254  -6.8248  -6.7123  -6.5611  -6.5610  -6.5607  -6.5302
    -6.5203  -6.5202  -6.4746  -6.4724  -5.6414  -5.6410  -5.5227  -5.5227
    -5.3193  -5.3192  -5.0343  -4.9807  -4.8811  -4.7485  -4.7281  -4.7277
    -4.4062  -4.2294  -4.2291  -4.2172  -4.2170  -3.8879  -3.8876  -3.7908
    -3.6669  -3.6668  -3.1484  -2.7554  -2.7551  -1.8982  -1.8020  -1.8017
    -1.4637  -1.1156  -1.1150  -0.8525   0.9042   0.9660   0.9662   1.5674
     1.5675   1.5785   2.5094   2.7590   2.7593   2.8566   3.0266   3.0380
     3.4536   3.4745   3.4750   3.5003   3.6407   3.7210   3.7374   3.7389

     occupation numbers 
     1.0000   1.0000   1.0000   1.0000   1.0000   1.0000   1.0000   1.0000
     1.0000   1.0000   1.0000   1.0000   1.0000   1.0000   1.0000   1.0000
     1.0000   1.0000   1.0000   1.0000   1.0000   1.0000   1.0000   1.0000
     1.0000   1.0000   1.0000   1.0000   1.0000   1.0000   1.0000   1.0000
     1.0000   1.0000   1.0000   1.0000   1.0000   1.0000   1.0000   1.0000
     1.0000   1.0000   1.0000   1.0000   1.0000   1.0000   1.0000   1.0000
     1.0000   1.0000   1.0000   1.0000   1.0000   1.0000   1.0000   1.0000
     1.0000   1.0000   1.0000   1.0000   1.0000   1.0000   1.0000   1.0000
     1.0000   1.0000   1.0000   1.0000   1.0000   1.0000   1.0000   1.0000
     1.0000   1.0000   1.0000   1.0000   1.0000   1.0000   1.0000   1.0000
     1.0000   1.0000   1.0000   1.0000   1.0000   1.0000   1.0000   1.0000
     1.0000   1.0000   1.0000   1.0000   1.0000   1.0000   1.0000   1.0000
     1.0000   1.0000   1.0000   1.0000   1.0000   1.0000   1.0000   1.0000
     1.0000   1.0000   1.0000   1.0000   0.0000   0.0000   0.0000   0.0000
     0.0000   0.0000   0.0000   0.0000   0.0000   0.0000   0.0000   0.0000
     0.0000   0.0000   0.0000   0.0000   0.0000   0.0000   0.0000   0.0000

 ------ SPIN DOWN ----------


          k = 0.0000 0.0000 0.0000 ( 87777 PWs)   bands (ev):

   -79.3737 -49.1475 -49.1472 -47.3682 -19.7341 -18.8920 -18.8917 -18.8113
   -18.8016 -18.8011 -18.4189 -17.0426 -17.0399 -17.0399 -16.9366 -16.9365
   -16.6515 -16.1824 -16.1823 -16.0931 -16.0191 -16.0189 -15.3309 -14.0488
   -14.0484 -13.9873 -13.9800 -13.9798 -13.3303 -13.0374 -13.0373 -13.0039
   -12.7151 -12.7150 -12.2798 -11.7997 -11.7996 -11.6324 -11.3578 -11.3578
   -10.4310  -9.6061  -9.6059  -9.4052  -9.2828  -9.2827  -9.2078  -9.1720
    -9.1720  -9.1646  -8.6770  -8.6770  -8.1158  -8.1156  -8.0285  -7.8430
    -7.8129  -7.4093  -7.4092  -7.1354  -6.9990  -6.9970  -6.8561  -6.8559
    -6.7687  -6.7681  -6.7393  -6.6963  -6.5419  -6.5416  -6.5189  -6.5097
    -6.5072  -6.5072  -6.4572  -6.3700  -5.4845  -5.4844  -5.3528  -5.3525
    -5.2421  -5.2420  -4.9672  -4.8698  -4.6821  -4.6738  -4.6369  -4.6365
    -4.3294  -4.0990  -4.0987  -4.0098  -4.0096  -3.7520  -3.7518  -3.7034
    -3.6481  -3.6480  -3.0759  -2.4960  -2.4957  -1.7769  -1.7766  -1.7289
    -0.8178  -0.5156  -0.5150  -0.0628   1.0081   1.0084   1.0610   1.7431
     1.7465   1.7467   2.5437   2.8963   2.8966   2.9255   3.2982   3.3299
     3.5420   3.6445   3.6616   3.6619   3.6863   3.7448   3.7494   3.7544

     occupation numbers 
     1.0000   1.0000   1.0000   1.0000   1.0000   1.0000   1.0000   1.0000
     1.0000   1.0000   1.0000   1.0000   1.0000   1.0000   1.0000   1.0000
     1.0000   1.0000   1.0000   1.0000   1.0000   1.0000   1.0000   1.0000
     1.0000   1.0000   1.0000   1.0000   1.0000   1.0000   1.0000   1.0000
     1.0000   1.0000   1.0000   1.0000   1.0000   1.0000   1.0000   1.0000
     1.0000   1.0000   1.0000   1.0000   1.0000   1.0000   1.0000   1.0000
     1.0000   1.0000   1.0000   1.0000   1.0000   1.0000   1.0000   1.0000
     1.0000   1.0000   1.0000   1.0000   1.0000   1.0000   1.0000   1.0000
     1.0000   1.0000   1.0000   1.0000   1.0000   1.0000   1.0000   1.0000
     1.0000   1.0000   1.0000   1.0000   1.0000   1.0000   1.0000   1.0000
     1.0000   1.0000   1.0000   1.0000   1.0000   1.0000   1.0000   1.0000
     1.0000   1.0000   1.0000   1.0000   1.0000   1.0000   1.0000   1.0000
     1.0000   1.0000   1.0000   1.0000   1.0000   1.0000   1.0000   1.0000
     1.0000   0.0000   0.0000   0.0000   0.0000   0.0000   0.0000   0.0000
     0.0000   0.0000   0.0000   0.0000   0.0000   0.0000   0.0000   0.0000
     0.0000   0.0000   0.0000   0.0000   0.0000   0.0000   0.0000   0.0000

     the Fermi energy is    -0.6758 ev

!    total energy              =    -825.94282871 Ry
     Harris-Foulkes estimate   =    -825.94282871 Ry
     estimated scf accuracy    <       0.00000012 Ry

     The total energy is the sum of the following terms:

     one-electron contribution =   -2707.50702535 Ry
     hartree contribution      =    1398.59613476 Ry
     xc contribution           =    -259.64075055 Ry
     ewald contribution        =     742.60881242 Ry
     smearing contrib. (-TS)   =       0.00000000 Ry

     total magnetization       =     3.00 Bohr mag/cell
     absolute magnetization    =     4.32 Bohr mag/cell

     convergence has been achieved in  18 iterations

     Writing output data file manganeso-sixhollow-distance-4.0.save/

     init_run     :     85.67s CPU     87.43s WALL (       1 calls)
     electrons    :   2643.07s CPU   2686.28s WALL (       1 calls)

     Called by init_run:
     wfcinit      :     54.74s CPU     55.15s WALL (       1 calls)
     wfcinit:atom :      0.07s CPU      0.11s WALL (       2 calls)
     wfcinit:wfcr :     54.24s CPU     54.52s WALL (       2 calls)
     potinit      :     12.90s CPU     13.42s WALL (       1 calls)
     hinit0       :      6.81s CPU      6.83s WALL (       1 calls)

     Called by electrons:
     c_bands      :   1771.60s CPU   1781.07s WALL (      18 calls)
     sum_band     :    524.08s CPU    538.13s WALL (      18 calls)
     v_of_rho     :    165.57s CPU    173.52s WALL (      19 calls)
     v_h          :      1.78s CPU      1.83s WALL (      19 calls)
     v_xc         :    163.79s CPU    171.69s WALL (      19 calls)
     newd         :    185.17s CPU    197.84s WALL (      19 calls)
     mix_rho      :      9.95s CPU     10.11s WALL (      18 calls)

     Called by c_bands:
     init_us_2    :      4.34s CPU      4.40s WALL (      74 calls)
     cegterg      :   1761.25s CPU   1770.66s WALL (      36 calls)

     Called by sum_band:
     sum_band:bec :      0.04s CPU      0.04s WALL (      36 calls)
     addusdens    :    337.34s CPU    350.21s WALL (      18 calls)

     Called by *egterg:
     h_psi        :    920.65s CPU    927.52s WALL (     182 calls)
     s_psi        :    298.25s CPU    298.42s WALL (     182 calls)
     g_psi        :      0.95s CPU      0.95s WALL (     144 calls)
     cdiaghg      :     17.30s CPU     17.31s WALL (     180 calls)
     cegterg:over :    242.35s CPU    242.46s WALL (     144 calls)
     cegterg:upda :    158.79s CPU    159.63s WALL (     144 calls)
     cegterg:last :     89.22s CPU     89.25s WALL (      36 calls)

     Called by h_psi:
     h_psi:pot    :    919.59s CPU    925.24s WALL (     182 calls)
     h_psi:calbec :    300.03s CPU    300.17s WALL (     182 calls)
     vloc_psi     :    317.63s CPU    323.04s WALL (     182 calls)
     add_vuspsi   :    301.93s CPU    302.03s WALL (     182 calls)

     General routines
     calbec       :    410.71s CPU    410.90s WALL (     218 calls)
     fft          :    101.05s CPU    104.39s WALL (    1419 calls)
     ffts         :      1.85s CPU      1.91s WALL (      74 calls)
     fftw         :    324.72s CPU    330.30s WALL (   29520 calls)
     interpolate  :      4.22s CPU      4.31s WALL (      38 calls)

     Parallel routines
     fft_scatt_xy :     87.59s CPU     88.38s WALL (   31013 calls)
     fft_scatt_yz :    120.51s CPU    127.06s WALL (   31013 calls)

     PWSCF        :  45m30.18s CPU  46m15.64s WALL


   This run was terminated on:   1:27: 5  20Sep2022            

=------------------------------------------------------------------------------=
   JOB DONE.
=------------------------------------------------------------------------------=
