
     Program PWSCF v.6.4.1 starts on 13Oct2022 at 16:48:19 

     This program is part of the open-source Quantum ESPRESSO suite
     for quantum simulation of materials; please cite
         "P. Giannozzi et al., J. Phys.:Condens. Matter 21 395502 (2009);
         "P. Giannozzi et al., J. Phys.:Condens. Matter 29 465901 (2017);
          URL http://www.quantum-espresso.org", 
     in publications or presentations arising from this work. More details at
     http://www.quantum-espresso.org/quote

     Parallel version (MPI), running on     6 processors

     MPI processes distributed on     1 nodes
     R & G space division:  proc/nbgrp/npool/nimage =       6
     Reading input from rotate-30.in

     Current dimensions of program PWSCF are:
     Max number of different atomic species (ntypx) = 10
     Max number of k-points (npk) =  40000
     Max angular momentum in pseudopotentials (lmaxx) =  3

     IMPORTANT: XC functional enforced from input :
     Exchange-correlation      = RVV10 ( 1  4 13  4 3 0)
     Any further DFT definition will be discarded
     Please, verify this is what you really want

               file H.pbe-rrkjus.UPF: wavefunction(s)  1S renormalized
               file V.pbe-spnl-rrkjus_psl.1.0.0.UPF: wavefunction(s)  3P 3D renormalized

     Subspace diagonalization in iterative solution of the eigenvalue problem:
     a serial algorithm will be used


     Parallelization info
     --------------------
     sticks:   dense  smooth     PW     G-vecs:    dense   smooth      PW
     Min        3051    1746    432               270999   117096   14629
     Max        3053    1747    437               271001   117099   14630
     Sum       18313   10477   2611              1626001   702581   87777



     bravais-lattice index     =            4
     lattice parameter (alat)  =      23.2937  a.u.
     unit-cell volume          =    8879.8548 (a.u.)^3
     number of atoms/cell      =           52
     number of atomic types    =            3
     number of electrons       =       211.00
     number of Kohn-Sham states=          127
     kinetic-energy cutoff     =      70.0000  Ry
     charge density cutoff     =     490.0000  Ry
     convergence threshold     =      1.0E-06
     mixing beta               =       0.7000
     number of iterations used =            8  plain     mixing
     Exchange-correlation      = RVV10 ( 1  4 13  4 3 0)

     celldm(1)=  23.293684  celldm(2)=   0.000000  celldm(3)=   0.811261
     celldm(4)=   0.000000  celldm(5)=   0.000000  celldm(6)=   0.000000

     crystal axes: (cart. coord. in units of alat)
               a(1) = (   1.000000   0.000000   0.000000 )  
               a(2) = (  -0.500000   0.866025   0.000000 )  
               a(3) = (   0.000000   0.000000   0.811261 )  

     reciprocal axes: (cart. coord. in units 2 pi/alat)
               b(1) = (  1.000000  0.577350 -0.000000 )  
               b(2) = (  0.000000  1.154701  0.000000 )  
               b(3) = (  0.000000 -0.000000  1.232649 )  


     PseudoPot. # 1 for H  read from file:
     /home/cristian/Escritorio/Proyecto_Grafeno/pseudopotenciales/H.pbe-rrkjus.UPF
     MD5 check sum: 7cc9d459525c9a0585f487a71c3c9563
     Pseudo is Ultrasoft, Zval =  1.0
     Generated by new atomic code, or converted to UPF format
     Using radial grid of 1061 points,  2 beta functions with: 
                l(1) =   0
                l(2) =   0
     Q(r) pseudized with 0 coefficients 


     PseudoPot. # 2 for C  read from file:
     /home/cristian/Escritorio/Proyecto_Grafeno/pseudopotenciales/C.pbe-n-rrkjus_psl.1.0.0.UPF
     MD5 check sum: 1fdd950c42eb37d8afe3dd2f8d12311e
     Pseudo is Ultrasoft + core correction, Zval =  4.0
     Generated using "atomic" code by A. Dal Corso v.6.3MaX
     Using radial grid of 1073 points,  4 beta functions with: 
                l(1) =   0
                l(2) =   0
                l(3) =   1
                l(4) =   1
     Q(r) pseudized with 0 coefficients 


     PseudoPot. # 3 for V  read from file:
     /home/cristian/Escritorio/Proyecto_Grafeno/pseudopotenciales/V.pbe-spnl-rrkjus_psl.1.0.0.UPF
     MD5 check sum: 79b3eb63147daf0b665d9f1bcc691206
     Pseudo is Ultrasoft + core correction, Zval = 13.0
     Generated using "atomic" code by A. Dal Corso v.6.2.2
     Using radial grid of 1181 points,  6 beta functions with: 
                l(1) =   0
                l(2) =   0
                l(3) =   1
                l(4) =   1
                l(5) =   2
                l(6) =   2
     Q(r) pseudized with 0 coefficients 


     vdW kernel table read from file rVV10_kernel_table
     MD5 check sum: b8e2538accc0c0b3206b45ba4daaba6c

     atomic species   valence    mass     pseudopotential
        H              1.00     1.00794     H ( 1.00)
        C              4.00    12.01070     C ( 1.00)
        V             13.00    50.94150     V ( 1.00)

     Starting magnetic structure 
     atomic species   magnetization
        H            0.500
        C            0.300
        V            0.800

     No symmetry found


                                    s                        frac. trans.

      isym =  1     identity                                     

 cryst.   s( 1) = (     1          0          0      )
                  (     0          1          0      )
                  (     0          0          1      )

 cart.    s( 1) = (  1.0000000  0.0000000  0.0000000 )
                  (  0.0000000  1.0000000  0.0000000 )
                  (  0.0000000  0.0000000  1.0000000 )


     point group C_1 (1)    
     there are  1 classes
     the character table:

       E    
A      1.00

     the symmetry operations in each class and the name of the first element:

     E        1
          identity                                               

   Cartesian axes

     site n.     atom                  positions (alat units)
         1           H   tau(   1) = (   0.2264193   0.4771334   0.2271531  )
         2           H   tau(   2) = (   0.1735807   0.4466271   0.2271531  )
         3           C   tau(   3) = (   0.0000000   0.0000000   0.0000000  )
         4           C   tau(   4) = (   0.0000000   0.1154701   0.0000000  )
         5           C   tau(   5) = (  -0.1000000   0.1732051   0.0000000  )
         6           C   tau(   6) = (  -0.1000000   0.2886751   0.0000000  )
         7           C   tau(   7) = (  -0.2000000   0.3464102   0.0000000  )
         8           C   tau(   8) = (  -0.2000000   0.4618802   0.0000000  )
         9           C   tau(   9) = (  -0.3000000   0.5196152   0.0000000  )
        10           C   tau(  10) = (  -0.3000000   0.6350853   0.0000000  )
        11           C   tau(  11) = (  -0.4000000   0.6928203   0.0000000  )
        12           C   tau(  12) = (  -0.4000000   0.8082904   0.0000000  )
        13           C   tau(  13) = (   0.2000000   0.0000000   0.0000000  )
        14           C   tau(  14) = (   0.2000000   0.1154701   0.0000000  )
        15           C   tau(  15) = (   0.1000000   0.1732051   0.0000000  )
        16           C   tau(  16) = (   0.1000000   0.2886751   0.0000000  )
        17           C   tau(  17) = (   0.0000000   0.3464102   0.0000000  )
        18           C   tau(  18) = (   0.0000000   0.4618802   0.0000000  )
        19           C   tau(  19) = (  -0.1000000   0.5196152   0.0000000  )
        20           C   tau(  20) = (  -0.1000000   0.6350853   0.0000000  )
        21           C   tau(  21) = (  -0.2000000   0.6928203   0.0000000  )
        22           C   tau(  22) = (  -0.2000000   0.8082904   0.0000000  )
        23           C   tau(  23) = (   0.4000000   0.0000000   0.0000000  )
        24           C   tau(  24) = (   0.4000000   0.1154701   0.0000000  )
        25           C   tau(  25) = (   0.3000000   0.1732051   0.0000000  )
        26           C   tau(  26) = (   0.3000000   0.2886751   0.0000000  )
        27           C   tau(  27) = (   0.2000000   0.3464102   0.0000000  )
        28           V   tau(  28) = (   0.2000000   0.4618802   0.0000000  )
        29           C   tau(  29) = (   0.1000000   0.5196152   0.0000000  )
        30           C   tau(  30) = (   0.1000000   0.6350853   0.0000000  )
        31           C   tau(  31) = (   0.0000000   0.6928203   0.0000000  )
        32           C   tau(  32) = (   0.0000000   0.8082904   0.0000000  )
        33           C   tau(  33) = (   0.6000000   0.0000000   0.0000000  )
        34           C   tau(  34) = (   0.6000000   0.1154701   0.0000000  )
        35           C   tau(  35) = (   0.5000000   0.1732051   0.0000000  )
        36           C   tau(  36) = (   0.5000000   0.2886751   0.0000000  )
        37           C   tau(  37) = (   0.4000000   0.3464102   0.0000000  )
        38           C   tau(  38) = (   0.4000000   0.4618802   0.0000000  )
        39           C   tau(  39) = (   0.3000000   0.5196152   0.0000000  )
        40           C   tau(  40) = (   0.3000000   0.6350853   0.0000000  )
        41           C   tau(  41) = (   0.2000000   0.6928203   0.0000000  )
        42           C   tau(  42) = (   0.2000000   0.8082904   0.0000000  )
        43           C   tau(  43) = (   0.8000000   0.0000000   0.0000000  )
        44           C   tau(  44) = (   0.8000000   0.1154701   0.0000000  )
        45           C   tau(  45) = (   0.7000000   0.1732051   0.0000000  )
        46           C   tau(  46) = (   0.7000000   0.2886751   0.0000000  )
        47           C   tau(  47) = (   0.6000000   0.3464102   0.0000000  )
        48           C   tau(  48) = (   0.6000000   0.4618802   0.0000000  )
        49           C   tau(  49) = (   0.5000000   0.5196152   0.0000000  )
        50           C   tau(  50) = (   0.5000000   0.6350853   0.0000000  )
        51           C   tau(  51) = (   0.4000000   0.6928203   0.0000000  )
        52           C   tau(  52) = (   0.4000000   0.8082904   0.0000000  )

   Crystallographic axes

     site n.     atom                  positions (cryst. coord.)
         1           H   tau(   1) = (  0.5018923  0.5509461  0.2800000  )
         2           H   tau(   2) = (  0.4314410  0.5157205  0.2800000  )
         3           C   tau(   3) = (  0.0000000  0.0000000  0.0000000  )
         4           C   tau(   4) = (  0.0666667  0.1333333  0.0000000  )
         5           C   tau(   5) = (  0.0000000  0.2000000  0.0000000  )
         6           C   tau(   6) = (  0.0666667  0.3333333  0.0000000  )
         7           C   tau(   7) = (  0.0000000  0.4000000  0.0000000  )
         8           C   tau(   8) = (  0.0666667  0.5333333  0.0000000  )
         9           C   tau(   9) = (  0.0000000  0.6000000  0.0000000  )
        10           C   tau(  10) = (  0.0666667  0.7333333  0.0000000  )
        11           C   tau(  11) = (  0.0000000  0.8000000  0.0000000  )
        12           C   tau(  12) = (  0.0666667  0.9333333  0.0000000  )
        13           C   tau(  13) = (  0.2000000  0.0000000  0.0000000  )
        14           C   tau(  14) = (  0.2666667  0.1333333  0.0000000  )
        15           C   tau(  15) = (  0.2000000  0.2000000  0.0000000  )
        16           C   tau(  16) = (  0.2666667  0.3333333  0.0000000  )
        17           C   tau(  17) = (  0.2000000  0.4000000  0.0000000  )
        18           C   tau(  18) = (  0.2666667  0.5333333  0.0000000  )
        19           C   tau(  19) = (  0.2000000  0.6000000  0.0000000  )
        20           C   tau(  20) = (  0.2666667  0.7333333  0.0000000  )
        21           C   tau(  21) = (  0.2000000  0.8000000  0.0000000  )
        22           C   tau(  22) = (  0.2666667  0.9333333  0.0000000  )
        23           C   tau(  23) = (  0.4000000  0.0000000  0.0000000  )
        24           C   tau(  24) = (  0.4666667  0.1333333  0.0000000  )
        25           C   tau(  25) = (  0.4000000  0.2000000  0.0000000  )
        26           C   tau(  26) = (  0.4666667  0.3333333  0.0000000  )
        27           C   tau(  27) = (  0.4000000  0.4000000  0.0000000  )
        28           V   tau(  28) = (  0.4666667  0.5333333  0.0000000  )
        29           C   tau(  29) = (  0.4000000  0.6000000  0.0000000  )
        30           C   tau(  30) = (  0.4666667  0.7333333  0.0000000  )
        31           C   tau(  31) = (  0.4000000  0.8000000  0.0000000  )
        32           C   tau(  32) = (  0.4666667  0.9333333  0.0000000  )
        33           C   tau(  33) = (  0.6000000  0.0000000  0.0000000  )
        34           C   tau(  34) = (  0.6666667  0.1333333  0.0000000  )
        35           C   tau(  35) = (  0.6000000  0.2000000  0.0000000  )
        36           C   tau(  36) = (  0.6666667  0.3333333  0.0000000  )
        37           C   tau(  37) = (  0.6000000  0.4000000  0.0000000  )
        38           C   tau(  38) = (  0.6666667  0.5333333  0.0000000  )
        39           C   tau(  39) = (  0.6000000  0.6000000  0.0000000  )
        40           C   tau(  40) = (  0.6666667  0.7333333  0.0000000  )
        41           C   tau(  41) = (  0.6000000  0.8000000  0.0000000  )
        42           C   tau(  42) = (  0.6666667  0.9333333  0.0000000  )
        43           C   tau(  43) = (  0.8000000  0.0000000  0.0000000  )
        44           C   tau(  44) = (  0.8666667  0.1333333  0.0000000  )
        45           C   tau(  45) = (  0.8000000  0.2000000  0.0000000  )
        46           C   tau(  46) = (  0.8666667  0.3333333  0.0000000  )
        47           C   tau(  47) = (  0.8000000  0.4000000  0.0000000  )
        48           C   tau(  48) = (  0.8666667  0.5333333  0.0000000  )
        49           C   tau(  49) = (  0.8000000  0.6000000  0.0000000  )
        50           C   tau(  50) = (  0.8666667  0.7333333  0.0000000  )
        51           C   tau(  51) = (  0.8000000  0.8000000  0.0000000  )
        52           C   tau(  52) = (  0.8666667  0.9333333  0.0000000  )

     number of k points=     1  Marzari-Vanderbilt smearing, width (Ry)=  0.0010
                       cart. coord. in units 2pi/alat
        k(    1) = (   0.0000000   0.0000000   0.0000000), wk =   1.0000000

                       cryst. coord.
        k(    1) = (   0.0000000   0.0000000   0.0000000), wk =   1.0000000

     Dense  grid:  1626001 G-vectors     FFT dimensions: ( 180, 180, 135)

     Smooth grid:   702581 G-vectors     FFT dimensions: ( 125, 125, 108)

     Dynamical RAM for                 wfc:      28.36 MB

     Dynamical RAM for     wfc (w. buffer):      85.09 MB

     Dynamical RAM for           str. fact:      12.41 MB

     Dynamical RAM for           local pot:       0.00 MB

     Dynamical RAM for          nlocal pot:      92.46 MB

     Dynamical RAM for                qrad:      19.73 MB

     Dynamical RAM for          rho,v,vnew:      58.92 MB

     Dynamical RAM for               rhoin:      19.64 MB

     Dynamical RAM for            rho*nmix:     132.32 MB

     Dynamical RAM for           G-vectors:      16.40 MB

     Dynamical RAM for          h,s,v(r/c):      11.81 MB

     Dynamical RAM for          <psi|beta>:       0.80 MB

     Dynamical RAM for                 psi:     113.46 MB

     Dynamical RAM for                hpsi:     113.46 MB

     Dynamical RAM for                spsi:     113.46 MB

     Dynamical RAM for      wfcinit/wfcrot:      93.90 MB

     Dynamical RAM for           addusdens:     975.89 MB

     Estimated static dynamical RAM per process >     487.63 MB

     Estimated max dynamical RAM per process >       1.43 GB

     Estimated total dynamical RAM >       8.58 GB
     Generating pointlists ...
     new r_m :   0.0252 (alat units)  0.5862 (a.u.) for type    1
     new r_m :   0.0476 (alat units)  1.1095 (a.u.) for type    2
     new r_m :   0.0476 (alat units)  1.1095 (a.u.) for type    3

     Check: negative core charge=   -0.000002

     Initial potential from superposition of free atoms

     starting charge  210.80465, renormalised to  211.00000

     negative rho (up, down):  1.167E-04 1.530E-02


---------------------------------------------------------------------------------
Carrying out rVV10 run using the following parameters:
Nqs =      20    Nr_points =    1024   r_max =   100.000
b_value =  6.30000    beta =  0.00901
     q_mesh =  0.00010000  0.00030000  0.00058939  0.00100810
               0.00161396  0.00249058  0.00375900  0.00559430
               0.00824984  0.01209221  0.01765183  0.02569619
               0.03733578  0.05417739  0.07854596  0.11380545
               0.16482331  0.23864234  0.34545298  0.50000000

Gradients computed in Reciprocal space

---------------------------------------------------------------------------------


     Starting wfcs are  208 randomized atomic wfcs

     total cpu time spent up to now is       78.8 secs

     Self-consistent Calculation

     iteration #  1     ecut=    70.00 Ry     beta= 0.70
     Davidson diagonalization with overlap
     ethr =  1.00E-02,  avg # of iterations =  3.0

     negative rho (up, down):  2.385E-04 1.285E-02

     total cpu time spent up to now is      207.6 secs

     total energy              =    -752.94644433 Ry
     Harris-Foulkes estimate   =    -756.95750821 Ry
     estimated scf accuracy    <      11.85587926 Ry

     total magnetization       =     5.00 Bohr mag/cell
     absolute magnetization    =     6.01 Bohr mag/cell

     iteration #  2     ecut=    70.00 Ry     beta= 0.70
     Davidson diagonalization with overlap
     ethr =  5.62E-03,  avg # of iterations =  7.5

     negative rho (up, down):  3.081E-03 1.855E-01

     total cpu time spent up to now is      328.9 secs

     total energy              =    -746.67623702 Ry
     Harris-Foulkes estimate   =    -767.98920560 Ry
     estimated scf accuracy    <      73.43170015 Ry

     total magnetization       =     3.00 Bohr mag/cell
     absolute magnetization    =     3.36 Bohr mag/cell

     iteration #  3     ecut=    70.00 Ry     beta= 0.70
     Davidson diagonalization with overlap
     ethr =  5.62E-03,  avg # of iterations =  5.0

     negative rho (up, down):  1.240E-03 1.958E-02

     total cpu time spent up to now is      492.0 secs

     total energy              =    -755.75950215 Ry
     Harris-Foulkes estimate   =    -758.07451178 Ry
     estimated scf accuracy    <      10.61415595 Ry

     total magnetization       =     5.00 Bohr mag/cell
     absolute magnetization    =     5.84 Bohr mag/cell

     iteration #  4     ecut=    70.00 Ry     beta= 0.70
     Davidson diagonalization with overlap
     ethr =  5.03E-03,  avg # of iterations =  3.0

     negative rho (up, down):  4.208E-02 2.159E-02

     total cpu time spent up to now is      587.8 secs

     total energy              =    -757.10582577 Ry
     Harris-Foulkes estimate   =    -757.45893987 Ry
     estimated scf accuracy    <       1.09354388 Ry

     total magnetization       =     1.00 Bohr mag/cell
     absolute magnetization    =     1.76 Bohr mag/cell

     iteration #  5     ecut=    70.00 Ry     beta= 0.70
     Davidson diagonalization with overlap
     ethr =  5.18E-04,  avg # of iterations =  7.5

     negative rho (up, down):  2.421E-02 2.196E-02

     total cpu time spent up to now is      701.3 secs

     total energy              =    -757.29553415 Ry
     Harris-Foulkes estimate   =    -757.28989804 Ry
     estimated scf accuracy    <       0.10545623 Ry

     total magnetization       =     1.00 Bohr mag/cell
     absolute magnetization    =     1.50 Bohr mag/cell

     iteration #  6     ecut=    70.00 Ry     beta= 0.70
     Davidson diagonalization with overlap
     ethr =  5.00E-05,  avg # of iterations =  8.0

     negative rho (up, down):  4.116E-02 1.083E-02

     total cpu time spent up to now is      825.6 secs

     total energy              =    -757.29130250 Ry
     Harris-Foulkes estimate   =    -757.34326824 Ry
     estimated scf accuracy    <       0.15547937 Ry

     total magnetization       =     1.00 Bohr mag/cell
     absolute magnetization    =     1.43 Bohr mag/cell

     iteration #  7     ecut=    70.00 Ry     beta= 0.70
     Davidson diagonalization with overlap
     ethr =  5.00E-05,  avg # of iterations =  4.0

     negative rho (up, down):  3.541E-02 1.563E-02

     total cpu time spent up to now is      939.4 secs

     total energy              =    -757.31783803 Ry
     Harris-Foulkes estimate   =    -757.33786901 Ry
     estimated scf accuracy    <       0.08656851 Ry

     total magnetization       =     1.00 Bohr mag/cell
     absolute magnetization    =     1.40 Bohr mag/cell

     iteration #  8     ecut=    70.00 Ry     beta= 0.70
     Davidson diagonalization with overlap
     ethr =  4.10E-05,  avg # of iterations =  3.0

     negative rho (up, down):  3.102E-02 2.470E-02

     total cpu time spent up to now is     1039.6 secs

     total energy              =    -757.32917484 Ry
     Harris-Foulkes estimate   =    -757.34018109 Ry
     estimated scf accuracy    <       0.06313549 Ry

     total magnetization       =     1.00 Bohr mag/cell
     absolute magnetization    =     1.39 Bohr mag/cell

     iteration #  9     ecut=    70.00 Ry     beta= 0.70
     Davidson diagonalization with overlap
     ethr =  2.99E-05,  avg # of iterations =  3.0

     negative rho (up, down):  3.451E-02 1.911E-02

     total cpu time spent up to now is     1137.5 secs

     total energy              =    -757.33540861 Ry
     Harris-Foulkes estimate   =    -757.33653782 Ry
     estimated scf accuracy    <       0.00781560 Ry

     total magnetization       =     1.00 Bohr mag/cell
     absolute magnetization    =     1.41 Bohr mag/cell

     iteration # 10     ecut=    70.00 Ry     beta= 0.70
     Davidson diagonalization with overlap
     ethr =  3.70E-06,  avg # of iterations =  4.0

     negative rho (up, down):  3.549E-02 1.628E-02

     total cpu time spent up to now is     1235.9 secs

     total energy              =    -757.33598060 Ry
     Harris-Foulkes estimate   =    -757.33629865 Ry
     estimated scf accuracy    <       0.00225067 Ry

     total magnetization       =     1.00 Bohr mag/cell
     absolute magnetization    =     1.42 Bohr mag/cell

     iteration # 11     ecut=    70.00 Ry     beta= 0.70
     Davidson diagonalization with overlap
     ethr =  1.07E-06,  avg # of iterations =  3.0

     negative rho (up, down):  3.497E-02 1.682E-02

     total cpu time spent up to now is     1330.0 secs

     total energy              =    -757.33616631 Ry
     Harris-Foulkes estimate   =    -757.33697216 Ry
     estimated scf accuracy    <       0.01411905 Ry

     total magnetization       =     1.00 Bohr mag/cell
     absolute magnetization    =     1.45 Bohr mag/cell

     iteration # 12     ecut=    70.00 Ry     beta= 0.70
     Davidson diagonalization with overlap
     ethr =  1.07E-06,  avg # of iterations =  2.5

     negative rho (up, down):  3.337E-02 7.122E-03

     total cpu time spent up to now is     1423.7 secs

     total energy              =    -757.33785991 Ry
     Harris-Foulkes estimate   =    -757.33677387 Ry
     estimated scf accuracy    <       0.00065796 Ry

     total magnetization       =     1.00 Bohr mag/cell
     absolute magnetization    =     1.45 Bohr mag/cell

     iteration # 13     ecut=    70.00 Ry     beta= 0.70
     Davidson diagonalization with overlap
     ethr =  3.12E-07,  avg # of iterations =  4.0

     negative rho (up, down):  3.366E-02 7.501E-03

     total cpu time spent up to now is     1522.7 secs

     total energy              =    -757.33791846 Ry
     Harris-Foulkes estimate   =    -757.33796909 Ry
     estimated scf accuracy    <       0.00013932 Ry

     total magnetization       =     1.00 Bohr mag/cell
     absolute magnetization    =     1.47 Bohr mag/cell

     iteration # 14     ecut=    70.00 Ry     beta= 0.70
     Davidson diagonalization with overlap
     ethr =  6.60E-08,  avg # of iterations =  2.0

     negative rho (up, down):  3.396E-02 2.886E-03

     total cpu time spent up to now is     1625.7 secs

     total energy              =    -757.33797907 Ry
     Harris-Foulkes estimate   =    -757.33795259 Ry
     estimated scf accuracy    <       0.00004299 Ry

     total magnetization       =     1.00 Bohr mag/cell
     absolute magnetization    =     1.48 Bohr mag/cell

     iteration # 15     ecut=    70.00 Ry     beta= 0.70
     Davidson diagonalization with overlap
     ethr =  2.04E-08,  avg # of iterations =  3.0

     negative rho (up, down):  3.402E-02 2.473E-03

     total cpu time spent up to now is     1728.8 secs

     total energy              =    -757.33799059 Ry
     Harris-Foulkes estimate   =    -757.33798828 Ry
     estimated scf accuracy    <       0.00001400 Ry

     total magnetization       =     1.00 Bohr mag/cell
     absolute magnetization    =     1.49 Bohr mag/cell

     iteration # 16     ecut=    70.00 Ry     beta= 0.70
     Davidson diagonalization with overlap
     ethr =  6.64E-09,  avg # of iterations =  2.0

     negative rho (up, down):  3.404E-02 1.989E-03

     total cpu time spent up to now is     1822.8 secs

     total energy              =    -757.33799310 Ry
     Harris-Foulkes estimate   =    -757.33799197 Ry
     estimated scf accuracy    <       0.00001349 Ry

     total magnetization       =     1.00 Bohr mag/cell
     absolute magnetization    =     1.50 Bohr mag/cell

     iteration # 17     ecut=    70.00 Ry     beta= 0.70
     Davidson diagonalization with overlap
     ethr =  6.39E-09,  avg # of iterations =  1.5

     negative rho (up, down):  3.405E-02 1.973E-03

     total cpu time spent up to now is     1915.2 secs

     total energy              =    -757.33799366 Ry
     Harris-Foulkes estimate   =    -757.33799382 Ry
     estimated scf accuracy    <       0.00000945 Ry

     total magnetization       =     1.00 Bohr mag/cell
     absolute magnetization    =     1.51 Bohr mag/cell

     iteration # 18     ecut=    70.00 Ry     beta= 0.70
     Davidson diagonalization with overlap
     ethr =  4.48E-09,  avg # of iterations =  1.0

     negative rho (up, down):  3.408E-02 2.220E-03

     total cpu time spent up to now is     2007.4 secs

     total energy              =    -757.33799332 Ry
     Harris-Foulkes estimate   =    -757.33799444 Ry
     estimated scf accuracy    <       0.00001394 Ry

     total magnetization       =     1.00 Bohr mag/cell
     absolute magnetization    =     1.51 Bohr mag/cell

     iteration # 19     ecut=    70.00 Ry     beta= 0.70
     Davidson diagonalization with overlap
     ethr =  4.48E-09,  avg # of iterations =  1.0

     negative rho (up, down):  3.409E-02 2.323E-03

     total cpu time spent up to now is     2099.7 secs

     total energy              =    -757.33799342 Ry
     Harris-Foulkes estimate   =    -757.33799375 Ry
     estimated scf accuracy    <       0.00000533 Ry

     total magnetization       =     1.00 Bohr mag/cell
     absolute magnetization    =     1.52 Bohr mag/cell

     iteration # 20     ecut=    70.00 Ry     beta= 0.70
     Davidson diagonalization with overlap
     ethr =  2.53E-09,  avg # of iterations =  2.0

     negative rho (up, down):  3.403E-02 2.058E-03

     total cpu time spent up to now is     2192.2 secs

     total energy              =    -757.33799451 Ry
     Harris-Foulkes estimate   =    -757.33799364 Ry
     estimated scf accuracy    <       0.00000342 Ry

     total magnetization       =     1.00 Bohr mag/cell
     absolute magnetization    =     1.52 Bohr mag/cell

     iteration # 21     ecut=    70.00 Ry     beta= 0.70
     Davidson diagonalization with overlap
     ethr =  1.62E-09,  avg # of iterations =  3.0

     negative rho (up, down):  3.407E-02 1.904E-03

     total cpu time spent up to now is     2296.4 secs

     total energy              =    -757.33799457 Ry
     Harris-Foulkes estimate   =    -757.33799553 Ry
     estimated scf accuracy    <       0.00000132 Ry

     total magnetization       =     1.00 Bohr mag/cell
     absolute magnetization    =     1.53 Bohr mag/cell

     iteration # 22     ecut=    70.00 Ry     beta= 0.70
     Davidson diagonalization with overlap
     ethr =  6.25E-10,  avg # of iterations =  3.5

     negative rho (up, down):  3.405E-02 1.849E-03

     Magnetic moment per site:
     atom:    1    charge:    0.2100    magn:   -0.0000    constr:    0.0000
     atom:    2    charge:    0.2100    magn:   -0.0000    constr:    0.0000
     atom:    3    charge:    1.7177    magn:   -0.0067    constr:    0.0000
     atom:    4    charge:    1.7157    magn:    0.0092    constr:    0.0000
     atom:    5    charge:    1.7184    magn:   -0.0041    constr:    0.0000
     atom:    6    charge:    1.7141    magn:    0.0025    constr:    0.0000
     atom:    7    charge:    1.7184    magn:   -0.0040    constr:    0.0000
     atom:    8    charge:    1.7157    magn:    0.0090    constr:    0.0000
     atom:    9    charge:    1.7177    magn:   -0.0066    constr:    0.0000
     atom:   10    charge:    1.7141    magn:    0.0296    constr:    0.0000
     atom:   11    charge:    1.7186    magn:   -0.0089    constr:    0.0000
     atom:   12    charge:    1.7143    magn:    0.0303    constr:    0.0000
     atom:   13    charge:    1.7186    magn:   -0.0089    constr:    0.0000
     atom:   14    charge:    1.7144    magn:    0.0221    constr:    0.0000
     atom:   15    charge:    1.7170    magn:   -0.0075    constr:    0.0000
     atom:   16    charge:    1.7107    magn:    0.0275    constr:    0.0000
     atom:   17    charge:    1.7272    magn:   -0.0048    constr:    0.0000
     atom:   18    charge:    1.7107    magn:    0.0277    constr:    0.0000
     atom:   19    charge:    1.7170    magn:   -0.0076    constr:    0.0000
     atom:   20    charge:    1.7144    magn:    0.0226    constr:    0.0000
     atom:   21    charge:    1.7186    magn:   -0.0089    constr:    0.0000
     atom:   22    charge:    1.7149    magn:    0.0329    constr:    0.0000
     atom:   23    charge:    1.7176    magn:   -0.0069    constr:    0.0000
     atom:   24    charge:    1.7158    magn:    0.0098    constr:    0.0000
     atom:   25    charge:    1.7169    magn:   -0.0078    constr:    0.0000
     atom:   26    charge:    1.7111    magn:    0.0300    constr:    0.0000
     atom:   27    charge:    1.9149    magn:   -0.0005    constr:    0.0000
     atom:   28    charge:    7.8603    magn:    0.1017    constr:    0.0000
     atom:   29    charge:    1.9149    magn:   -0.0005    constr:    0.0000
     atom:   30    charge:    1.7112    magn:    0.0308    constr:    0.0000
     atom:   31    charge:    1.7169    magn:   -0.0080    constr:    0.0000
     atom:   32    charge:    1.7158    magn:    0.0098    constr:    0.0000
     atom:   33    charge:    1.7183    magn:   -0.0042    constr:    0.0000
     atom:   34    charge:    1.7139    magn:    0.0071    constr:    0.0000
     atom:   35    charge:    1.7183    magn:   -0.0042    constr:    0.0000
     atom:   36    charge:    1.7141    magn:    0.0025    constr:    0.0000
     atom:   37    charge:    1.7269    magn:   -0.0052    constr:    0.0000
     atom:   38    charge:    1.7113    magn:    0.0307    constr:    0.0000
     atom:   39    charge:    1.9149    magn:   -0.0000    constr:    0.0000
     atom:   40    charge:    1.7113    magn:    0.0313    constr:    0.0000
     atom:   41    charge:    1.7269    magn:   -0.0054    constr:    0.0000
     atom:   42    charge:    1.7140    magn:    0.0026    constr:    0.0000
     atom:   43    charge:    1.7183    magn:   -0.0041    constr:    0.0000
     atom:   44    charge:    1.7138    magn:    0.0066    constr:    0.0000
     atom:   45    charge:    1.7246    magn:   -0.0030    constr:    0.0000
     atom:   46    charge:    1.7138    magn:    0.0065    constr:    0.0000
     atom:   47    charge:    1.7184    magn:   -0.0041    constr:    0.0000
     atom:   48    charge:    1.7156    magn:    0.0090    constr:    0.0000
     atom:   49    charge:    1.7169    magn:   -0.0080    constr:    0.0000
     atom:   50    charge:    1.7148    magn:    0.0245    constr:    0.0000
     atom:   51    charge:    1.7169    magn:   -0.0081    constr:    0.0000
     atom:   52    charge:    1.7156    magn:    0.0091    constr:    0.0000

     total cpu time spent up to now is     2401.6 secs

     End of self-consistent calculation

 ------ SPIN UP ------------


          k = 0.0000 0.0000 0.0000 ( 87777 PWs)   bands (ev):

   -62.8177 -37.9049 -37.9009 -36.5800 -19.6189 -18.7784 -18.7736 -18.7062
   -18.6619 -18.6583 -18.2225 -16.9215 -16.9198 -16.9195 -16.7832 -16.7818
   -16.5003 -16.0668 -16.0666 -15.9729 -15.8173 -15.8164 -15.0651 -13.8783
   -13.8724 -13.8700 -13.8464 -13.8460 -13.1163 -12.9015 -12.9010 -12.8836
   -12.4889 -12.4886 -12.0969 -11.6289 -11.6282 -11.5044 -11.1226 -11.1224
   -10.1347  -9.3204  -9.3192  -9.2397  -9.1662  -9.1658  -9.0766  -9.0523
    -9.0517  -9.0360  -8.4473  -8.4469  -7.8778  -7.8766  -7.8468  -7.8238
    -7.6600  -7.5062  -7.2386  -7.2369  -6.9489  -6.9455  -6.8779  -6.6850
    -6.6847  -6.6829  -6.5746  -6.5736  -6.5275  -6.4201  -6.4172  -6.3742
    -6.3704  -6.3694  -6.3173  -6.2431  -5.2438  -5.2427  -5.1419  -5.1372
    -4.9288  -4.9285  -4.8180  -4.7301  -4.6057  -4.5941  -4.5937  -4.2199
    -3.9698  -3.9697  -3.7451  -3.7446  -3.6441  -3.6036  -3.4824  -3.4820
    -2.8611  -2.2446  -2.2421  -2.1997  -2.1976  -1.7326  -1.6676  -1.6662
    -0.5008  -0.2230  -0.2216   1.0645   1.0938   1.0961   1.1648   1.8316
     2.0663   2.0669   2.5408   2.9058   2.9114   2.9910   3.1545   3.4693
     3.6713   3.7456   3.7472   3.7918   3.9639   4.0113   4.0170

     occupation numbers 
     1.0000   1.0000   1.0000   1.0000   1.0000   1.0000   1.0000   1.0000
     1.0000   1.0000   1.0000   1.0000   1.0000   1.0000   1.0000   1.0000
     1.0000   1.0000   1.0000   1.0000   1.0000   1.0000   1.0000   1.0000
     1.0000   1.0000   1.0000   1.0000   1.0000   1.0000   1.0000   1.0000
     1.0000   1.0000   1.0000   1.0000   1.0000   1.0000   1.0000   1.0000
     1.0000   1.0000   1.0000   1.0000   1.0000   1.0000   1.0000   1.0000
     1.0000   1.0000   1.0000   1.0000   1.0000   1.0000   1.0000   1.0000
     1.0000   1.0000   1.0000   1.0000   1.0000   1.0000   1.0000   1.0000
     1.0000   1.0000   1.0000   1.0000   1.0000   1.0000   1.0000   1.0000
     1.0000   1.0000   1.0000   1.0000   1.0000   1.0000   1.0000   1.0000
     1.0000   1.0000   1.0000   1.0000   1.0000   1.0000   1.0000   1.0000
     1.0000   1.0000   1.0000   1.0000   1.0000   1.0000   1.0000   1.0000
     1.0000   1.0000   1.0000   1.0000   1.0000   1.0000   1.0000   1.0000
     1.0000   0.5360   0.4640   0.0000   0.0000   0.0000   0.0000   0.0000
     0.0000   0.0000   0.0000   0.0000   0.0000   0.0000   0.0000   0.0000
     0.0000   0.0000   0.0000   0.0000   0.0000   0.0000   0.0000

 ------ SPIN DOWN ----------


          k = 0.0000 0.0000 0.0000 ( 87777 PWs)   bands (ev):

   -62.6215 -37.7488 -37.7334 -36.3114 -19.5970 -18.7575 -18.7512 -18.6860
   -18.6455 -18.6414 -18.1905 -16.9053 -16.9012 -16.9003 -16.7553 -16.7529
   -16.4862 -16.0399 -16.0390 -15.9571 -15.7961 -15.7953 -15.0503 -13.8434
   -13.8426 -13.8412 -13.8323 -13.8272 -13.1193 -12.8910 -12.8903 -12.8679
   -12.4807 -12.4805 -12.0785 -11.6108 -11.6105 -11.4912 -11.1102 -11.1098
   -10.1201  -9.3036  -9.3019  -9.2268  -9.1489  -9.1481  -9.0684  -9.0378
    -9.0377  -9.0267  -8.4407  -8.4400  -7.8663  -7.8650  -7.8381  -7.7784
    -7.6515  -7.4978  -7.2297  -7.2280  -6.8703  -6.8687  -6.8575  -6.6528
    -6.6514  -6.6326  -6.5631  -6.5623  -6.5179  -6.4106  -6.4076  -6.3685
    -6.3636  -6.3628  -6.3091  -6.1661  -5.2356  -5.2342  -5.0553  -5.0539
    -4.9188  -4.9186  -4.8122  -4.7240  -4.5638  -4.5433  -4.5422  -4.1823
    -3.9196  -3.9171  -3.6707  -3.6704  -3.5978  -3.5734  -3.4758  -3.4752
    -2.8269  -2.1761  -2.1751  -2.1346  -2.1309  -1.6518  -1.6510  -1.6378
    -0.4958  -0.0026   0.0116   1.1150   1.1170   1.1420   1.2428   1.9016
     2.1353   2.1389   2.5472   2.9752   2.9826   3.0327   3.1643   3.4763
     3.7066   3.7478   3.7498   3.8003   3.9844   4.0830   4.0868

     occupation numbers 
     1.0000   1.0000   1.0000   1.0000   1.0000   1.0000   1.0000   1.0000
     1.0000   1.0000   1.0000   1.0000   1.0000   1.0000   1.0000   1.0000
     1.0000   1.0000   1.0000   1.0000   1.0000   1.0000   1.0000   1.0000
     1.0000   1.0000   1.0000   1.0000   1.0000   1.0000   1.0000   1.0000
     1.0000   1.0000   1.0000   1.0000   1.0000   1.0000   1.0000   1.0000
     1.0000   1.0000   1.0000   1.0000   1.0000   1.0000   1.0000   1.0000
     1.0000   1.0000   1.0000   1.0000   1.0000   1.0000   1.0000   1.0000
     1.0000   1.0000   1.0000   1.0000   1.0000   1.0000   1.0000   1.0000
     1.0000   1.0000   1.0000   1.0000   1.0000   1.0000   1.0000   1.0000
     1.0000   1.0000   1.0000   1.0000   1.0000   1.0000   1.0000   1.0000
     1.0000   1.0000   1.0000   1.0000   1.0000   1.0000   1.0000   1.0000
     1.0000   1.0000   1.0000   1.0000   1.0000   1.0000   1.0000   1.0000
     1.0000   1.0000   1.0000   1.0000   1.0000   1.0000   1.0000   1.0000
     1.0000   0.0000   0.0000   0.0000   0.0000   0.0000   0.0000   0.0000
     0.0000   0.0000   0.0000   0.0000   0.0000   0.0000   0.0000   0.0000
     0.0000   0.0000   0.0000   0.0000   0.0000   0.0000   0.0000

     the Fermi energy is    -0.2204 ev

!    total energy              =    -757.33799525 Ry
     Harris-Foulkes estimate   =    -757.33799495 Ry
     estimated scf accuracy    <       0.00000072 Ry

     The total energy is the sum of the following terms:

     one-electron contribution =   -2590.54754455 Ry
     hartree contribution      =    1342.20226083 Ry
     xc contribution           =    -252.67609799 Ry
     ewald contribution        =     743.68371287 Ry
     smearing contrib. (-TS)   =      -0.00032642 Ry

     total magnetization       =     1.00 Bohr mag/cell
     absolute magnetization    =     1.54 Bohr mag/cell

     convergence has been achieved in  22 iterations

     Writing output data file rotate-30.save/

     init_run     :     76.51s CPU     77.69s WALL (       1 calls)
     electrons    :   2285.02s CPU   2322.99s WALL (       1 calls)

     Called by init_run:
     wfcinit      :     42.63s CPU     42.90s WALL (       1 calls)
     wfcinit:atom :      0.04s CPU      0.08s WALL (       2 calls)
     wfcinit:wfcr :     42.24s CPU     42.41s WALL (       2 calls)
     potinit      :     13.93s CPU     14.34s WALL (       1 calls)
     hinit0       :     11.42s CPU     11.45s WALL (       1 calls)

     Called by electrons:
     c_bands      :   1490.60s CPU   1498.25s WALL (      22 calls)
     sum_band     :    460.88s CPU    473.38s WALL (      22 calls)
     v_of_rho     :    166.58s CPU    173.87s WALL (      23 calls)
     v_h          :      1.84s CPU      1.89s WALL (      23 calls)
     v_xc         :    164.74s CPU    171.98s WALL (      23 calls)
     newd         :    166.30s CPU    177.33s WALL (      23 calls)
     mix_rho      :      9.95s CPU     10.09s WALL (      22 calls)

     Called by c_bands:
     init_us_2    :      4.17s CPU      4.21s WALL (      90 calls)
     cegterg      :   1479.78s CPU   1487.39s WALL (      44 calls)

     Called by sum_band:
     sum_band:bec :      0.03s CPU      0.03s WALL (      44 calls)
     addusdens    :    283.87s CPU    295.40s WALL (      22 calls)

     Called by *egterg:
     h_psi        :    780.47s CPU    785.81s WALL (     199 calls)
     s_psi        :    262.50s CPU    262.57s WALL (     199 calls)
     g_psi        :      0.82s CPU      0.82s WALL (     153 calls)
     cdiaghg      :     14.97s CPU     14.97s WALL (     197 calls)
     cegterg:over :    184.92s CPU    184.97s WALL (     153 calls)
     cegterg:upda :    119.91s CPU    120.55s WALL (     153 calls)
     cegterg:last :     76.58s CPU     76.59s WALL (      44 calls)

     Called by h_psi:
     h_psi:pot    :    779.58s CPU    783.98s WALL (     199 calls)
     h_psi:calbec :    263.04s CPU    263.11s WALL (     199 calls)
     vloc_psi     :    253.67s CPU    257.94s WALL (     199 calls)
     add_vuspsi   :    262.87s CPU    262.93s WALL (     199 calls)

     General routines
     calbec       :    370.53s CPU    370.62s WALL (     243 calls)
     fft          :     98.63s CPU    101.39s WALL (    1719 calls)
     ffts         :      1.60s CPU      1.66s WALL (      90 calls)
     fftw         :    266.10s CPU    270.70s WALL (   33024 calls)
     interpolate  :      4.02s CPU      4.12s WALL (      46 calls)

     Parallel routines
     fft_scatt_xy :     64.61s CPU     65.40s WALL (   34833 calls)
     fft_scatt_yz :    124.36s CPU    129.90s WALL (   34833 calls)

     PWSCF        :  39m22.82s CPU  40m 2.29s WALL


   This run was terminated on:  17:28:22  13Oct2022            

=------------------------------------------------------------------------------=
   JOB DONE.
=------------------------------------------------------------------------------=
