
     Program PWSCF v.6.4.1 starts on 19Jul2022 at  4: 5:15 

     This program is part of the open-source Quantum ESPRESSO suite
     for quantum simulation of materials; please cite
         "P. Giannozzi et al., J. Phys.:Condens. Matter 21 395502 (2009);
         "P. Giannozzi et al., J. Phys.:Condens. Matter 29 465901 (2017);
          URL http://www.quantum-espresso.org", 
     in publications or presentations arising from this work. More details at
     http://www.quantum-espresso.org/quote

     Parallel version (MPI), running on     6 processors

     MPI processes distributed on     1 nodes
     R & G space division:  proc/nbgrp/npool/nimage =       6
     Reading input from distance-2.4.in

     Current dimensions of program PWSCF are:
     Max number of different atomic species (ntypx) = 10
     Max number of k-points (npk) =  40000
     Max angular momentum in pseudopotentials (lmaxx) =  3

     IMPORTANT: XC functional enforced from input :
     Exchange-correlation      = RVV10 ( 1  4 13  4 3 0)
     Any further DFT definition will be discarded
     Please, verify this is what you really want

               file H.pbe-rrkjus.UPF: wavefunction(s)  1S renormalized
               file Cu.pbe-dn-rrkjus_psl.1.0.0.UPF: wavefunction(s)  3D renormalized

     Subspace diagonalization in iterative solution of the eigenvalue problem:
     a serial algorithm will be used


     Parallelization info
     --------------------
     sticks:   dense  smooth     PW     G-vecs:    dense   smooth      PW
     Min        3051    1746    432               270999   117096   14629
     Max        3053    1747    437               271001   117099   14630
     Sum       18313   10477   2611              1626001   702581   87777



     bravais-lattice index     =            4
     lattice parameter (alat)  =      23.2937  a.u.
     unit-cell volume          =    8879.8548 (a.u.)^3
     number of atoms/cell      =           52
     number of atomic types    =            3
     number of electrons       =       209.00
     number of Kohn-Sham states=          126
     kinetic-energy cutoff     =      70.0000  Ry
     charge density cutoff     =     490.0000  Ry
     convergence threshold     =      1.0E-06
     mixing beta               =       0.7000
     number of iterations used =            8  plain     mixing
     Exchange-correlation      = RVV10 ( 1  4 13  4 3 0)

     celldm(1)=  23.293684  celldm(2)=   0.000000  celldm(3)=   0.811261
     celldm(4)=   0.000000  celldm(5)=   0.000000  celldm(6)=   0.000000

     crystal axes: (cart. coord. in units of alat)
               a(1) = (   1.000000   0.000000   0.000000 )  
               a(2) = (  -0.500000   0.866025   0.000000 )  
               a(3) = (   0.000000   0.000000   0.811261 )  

     reciprocal axes: (cart. coord. in units 2 pi/alat)
               b(1) = (  1.000000  0.577350 -0.000000 )  
               b(2) = (  0.000000  1.154701  0.000000 )  
               b(3) = (  0.000000 -0.000000  1.232649 )  


     PseudoPot. # 1 for H  read from file:
     /home/cristian/Escritorio/Proyecto_Grafeno/pseudopotenciales/H.pbe-rrkjus.UPF
     MD5 check sum: 7cc9d459525c9a0585f487a71c3c9563
     Pseudo is Ultrasoft, Zval =  1.0
     Generated by new atomic code, or converted to UPF format
     Using radial grid of 1061 points,  2 beta functions with: 
                l(1) =   0
                l(2) =   0
     Q(r) pseudized with 0 coefficients 


     PseudoPot. # 2 for C  read from file:
     /home/cristian/Escritorio/Proyecto_Grafeno/pseudopotenciales/C.pbe-n-rrkjus_psl.1.0.0.UPF
     MD5 check sum: 1fdd950c42eb37d8afe3dd2f8d12311e
     Pseudo is Ultrasoft + core correction, Zval =  4.0
     Generated using "atomic" code by A. Dal Corso v.6.3MaX
     Using radial grid of 1073 points,  4 beta functions with: 
                l(1) =   0
                l(2) =   0
                l(3) =   1
                l(4) =   1
     Q(r) pseudized with 0 coefficients 


     PseudoPot. # 3 for Cu read from file:
     /home/cristian/Escritorio/Proyecto_Grafeno/pseudopotenciales/Cu.pbe-dn-rrkjus_psl.1.0.0.UPF
     MD5 check sum: ba3d6c84e19846e79d48cdc68ff7152b
     Pseudo is Ultrasoft + core correction, Zval = 11.0
     Generated using "atomic" code by A. Dal Corso v.6.3
     Using radial grid of 1199 points,  6 beta functions with: 
                l(1) =   0
                l(2) =   0
                l(3) =   1
                l(4) =   1
                l(5) =   2
                l(6) =   2
     Q(r) pseudized with 0 coefficients 


     vdW kernel table read from file rVV10_kernel_table
     MD5 check sum: b8e2538accc0c0b3206b45ba4daaba6c

     atomic species   valence    mass     pseudopotential
        H              1.00     1.00794     H ( 1.00)
        C              4.00    12.01070     C ( 1.00)
        Cu            11.00    63.54600     Cu( 1.00)

     No symmetry found


                                    s                        frac. trans.

      isym =  1     identity                                     

 cryst.   s( 1) = (     1          0          0      )
                  (     0          1          0      )
                  (     0          0          1      )

 cart.    s( 1) = (  1.0000000  0.0000000  0.0000000 )
                  (  0.0000000  1.0000000  0.0000000 )
                  (  0.0000000  0.0000000  1.0000000 )


     point group C_1 (1)    
     there are  1 classes
     the character table:

       E    
A      1.00

     the symmetry operations in each class and the name of the first element:

     E        1
          identity                                               

   Cartesian axes

     site n.     atom                  positions (alat units)
         1           H   tau(   1) = (   0.2500000   0.4907477   0.1947027  )
         2           H   tau(   2) = (   0.2500000   0.4907477   0.2557154  )
         3           C   tau(   3) = (   0.0000000   0.0000000   0.0000000  )
         4           C   tau(   4) = (   0.0000000   0.1154701   0.0000000  )
         5           C   tau(   5) = (  -0.1000000   0.1732051   0.0000000  )
         6           C   tau(   6) = (  -0.1000000   0.2886751   0.0000000  )
         7           C   tau(   7) = (  -0.2000000   0.3464102   0.0000000  )
         8           C   tau(   8) = (  -0.2000000   0.4618802   0.0000000  )
         9           C   tau(   9) = (  -0.3000000   0.5196152   0.0000000  )
        10           C   tau(  10) = (  -0.3000000   0.6350853   0.0000000  )
        11           C   tau(  11) = (  -0.4000000   0.6928203   0.0000000  )
        12           C   tau(  12) = (  -0.4000000   0.8082904   0.0000000  )
        13           C   tau(  13) = (   0.2000000   0.0000000   0.0000000  )
        14           C   tau(  14) = (   0.2000000   0.1154701   0.0000000  )
        15           C   tau(  15) = (   0.1000000   0.1732051   0.0000000  )
        16           C   tau(  16) = (   0.1000000   0.2886751   0.0000000  )
        17           C   tau(  17) = (   0.0000000   0.3464102   0.0000000  )
        18           C   tau(  18) = (   0.0000000   0.4618802   0.0000000  )
        19           C   tau(  19) = (  -0.1000000   0.5196152   0.0000000  )
        20           C   tau(  20) = (  -0.1000000   0.6350853   0.0000000  )
        21           C   tau(  21) = (  -0.2000000   0.6928203   0.0000000  )
        22           C   tau(  22) = (  -0.2000000   0.8082904   0.0000000  )
        23           C   tau(  23) = (   0.4000000   0.0000000   0.0000000  )
        24           C   tau(  24) = (   0.4000000   0.1154701   0.0000000  )
        25           C   tau(  25) = (   0.3000000   0.1732051   0.0000000  )
        26           C   tau(  26) = (   0.3000000   0.2886751   0.0000000  )
        27           C   tau(  27) = (   0.2000000   0.3464102   0.0000000  )
        28           Cu  tau(  28) = (   0.2000000   0.4618802   0.0000000  )
        29           C   tau(  29) = (   0.1000000   0.5196152   0.0000000  )
        30           C   tau(  30) = (   0.1000000   0.6350853   0.0000000  )
        31           C   tau(  31) = (   0.0000000   0.6928203   0.0000000  )
        32           C   tau(  32) = (   0.0000000   0.8082904   0.0000000  )
        33           C   tau(  33) = (   0.6000000   0.0000000   0.0000000  )
        34           C   tau(  34) = (   0.6000000   0.1154701   0.0000000  )
        35           C   tau(  35) = (   0.5000000   0.1732051   0.0000000  )
        36           C   tau(  36) = (   0.5000000   0.2886751   0.0000000  )
        37           C   tau(  37) = (   0.4000000   0.3464102   0.0000000  )
        38           C   tau(  38) = (   0.4000000   0.4618802   0.0000000  )
        39           C   tau(  39) = (   0.3000000   0.5196152   0.0000000  )
        40           C   tau(  40) = (   0.3000000   0.6350853   0.0000000  )
        41           C   tau(  41) = (   0.2000000   0.6928203   0.0000000  )
        42           C   tau(  42) = (   0.2000000   0.8082904   0.0000000  )
        43           C   tau(  43) = (   0.8000000   0.0000000   0.0000000  )
        44           C   tau(  44) = (   0.8000000   0.1154701   0.0000000  )
        45           C   tau(  45) = (   0.7000000   0.1732051   0.0000000  )
        46           C   tau(  46) = (   0.7000000   0.2886751   0.0000000  )
        47           C   tau(  47) = (   0.6000000   0.3464102   0.0000000  )
        48           C   tau(  48) = (   0.6000000   0.4618802   0.0000000  )
        49           C   tau(  49) = (   0.5000000   0.5196152   0.0000000  )
        50           C   tau(  50) = (   0.5000000   0.6350853   0.0000000  )
        51           C   tau(  51) = (   0.4000000   0.6928203   0.0000000  )
        52           C   tau(  52) = (   0.4000000   0.8082904   0.0000000  )

   Crystallographic axes

     site n.     atom                  positions (cryst. coord.)
         1           H   tau(   1) = (  0.5333333  0.5666667  0.2400000  )
         2           H   tau(   2) = (  0.5333333  0.5666667  0.3152072  )
         3           C   tau(   3) = (  0.0000000  0.0000000  0.0000000  )
         4           C   tau(   4) = (  0.0666667  0.1333333  0.0000000  )
         5           C   tau(   5) = (  0.0000000  0.2000000  0.0000000  )
         6           C   tau(   6) = (  0.0666667  0.3333333  0.0000000  )
         7           C   tau(   7) = (  0.0000000  0.4000000  0.0000000  )
         8           C   tau(   8) = (  0.0666667  0.5333333  0.0000000  )
         9           C   tau(   9) = (  0.0000000  0.6000000  0.0000000  )
        10           C   tau(  10) = (  0.0666667  0.7333333  0.0000000  )
        11           C   tau(  11) = (  0.0000000  0.8000000  0.0000000  )
        12           C   tau(  12) = (  0.0666667  0.9333333  0.0000000  )
        13           C   tau(  13) = (  0.2000000  0.0000000  0.0000000  )
        14           C   tau(  14) = (  0.2666667  0.1333333  0.0000000  )
        15           C   tau(  15) = (  0.2000000  0.2000000  0.0000000  )
        16           C   tau(  16) = (  0.2666667  0.3333333  0.0000000  )
        17           C   tau(  17) = (  0.2000000  0.4000000  0.0000000  )
        18           C   tau(  18) = (  0.2666667  0.5333333  0.0000000  )
        19           C   tau(  19) = (  0.2000000  0.6000000  0.0000000  )
        20           C   tau(  20) = (  0.2666667  0.7333333  0.0000000  )
        21           C   tau(  21) = (  0.2000000  0.8000000  0.0000000  )
        22           C   tau(  22) = (  0.2666667  0.9333333  0.0000000  )
        23           C   tau(  23) = (  0.4000000  0.0000000  0.0000000  )
        24           C   tau(  24) = (  0.4666667  0.1333333  0.0000000  )
        25           C   tau(  25) = (  0.4000000  0.2000000  0.0000000  )
        26           C   tau(  26) = (  0.4666667  0.3333333  0.0000000  )
        27           C   tau(  27) = (  0.4000000  0.4000000  0.0000000  )
        28           Cu  tau(  28) = (  0.4666667  0.5333333  0.0000000  )
        29           C   tau(  29) = (  0.4000000  0.6000000  0.0000000  )
        30           C   tau(  30) = (  0.4666667  0.7333333  0.0000000  )
        31           C   tau(  31) = (  0.4000000  0.8000000  0.0000000  )
        32           C   tau(  32) = (  0.4666667  0.9333333  0.0000000  )
        33           C   tau(  33) = (  0.6000000  0.0000000  0.0000000  )
        34           C   tau(  34) = (  0.6666667  0.1333333  0.0000000  )
        35           C   tau(  35) = (  0.6000000  0.2000000  0.0000000  )
        36           C   tau(  36) = (  0.6666667  0.3333333  0.0000000  )
        37           C   tau(  37) = (  0.6000000  0.4000000  0.0000000  )
        38           C   tau(  38) = (  0.6666667  0.5333333  0.0000000  )
        39           C   tau(  39) = (  0.6000000  0.6000000  0.0000000  )
        40           C   tau(  40) = (  0.6666667  0.7333333  0.0000000  )
        41           C   tau(  41) = (  0.6000000  0.8000000  0.0000000  )
        42           C   tau(  42) = (  0.6666667  0.9333333  0.0000000  )
        43           C   tau(  43) = (  0.8000000  0.0000000  0.0000000  )
        44           C   tau(  44) = (  0.8666667  0.1333333  0.0000000  )
        45           C   tau(  45) = (  0.8000000  0.2000000  0.0000000  )
        46           C   tau(  46) = (  0.8666667  0.3333333  0.0000000  )
        47           C   tau(  47) = (  0.8000000  0.4000000  0.0000000  )
        48           C   tau(  48) = (  0.8666667  0.5333333  0.0000000  )
        49           C   tau(  49) = (  0.8000000  0.6000000  0.0000000  )
        50           C   tau(  50) = (  0.8666667  0.7333333  0.0000000  )
        51           C   tau(  51) = (  0.8000000  0.8000000  0.0000000  )
        52           C   tau(  52) = (  0.8666667  0.9333333  0.0000000  )

     number of k points=     1  Marzari-Vanderbilt smearing, width (Ry)=  0.0010
                       cart. coord. in units 2pi/alat
        k(    1) = (   0.0000000   0.0000000   0.0000000), wk =   2.0000000

                       cryst. coord.
        k(    1) = (   0.0000000   0.0000000   0.0000000), wk =   2.0000000

     Dense  grid:  1626001 G-vectors     FFT dimensions: ( 180, 180, 135)

     Smooth grid:   702581 G-vectors     FFT dimensions: ( 125, 125, 108)

     Dynamical RAM for                 wfc:      28.14 MB

     Dynamical RAM for     wfc (w. buffer):      28.14 MB

     Dynamical RAM for           str. fact:      12.41 MB

     Dynamical RAM for           local pot:       0.00 MB

     Dynamical RAM for          nlocal pot:      92.46 MB

     Dynamical RAM for                qrad:      19.73 MB

     Dynamical RAM for          rho,v,vnew:      29.46 MB

     Dynamical RAM for               rhoin:       9.82 MB

     Dynamical RAM for            rho*nmix:      66.16 MB

     Dynamical RAM for           G-vectors:      16.40 MB

     Dynamical RAM for          h,s,v(r/c):      11.63 MB

     Dynamical RAM for          <psi|beta>:       0.80 MB

     Dynamical RAM for                 psi:     112.56 MB

     Dynamical RAM for                hpsi:     112.56 MB

     Dynamical RAM for                spsi:     112.56 MB

     Dynamical RAM for      wfcinit/wfcrot:      93.45 MB

     Dynamical RAM for           addusdens:     971.75 MB

     Estimated static dynamical RAM per process >     319.55 MB

     Estimated max dynamical RAM per process >       1.26 GB

     Estimated total dynamical RAM >       7.57 GB

     Check: negative core charge=   -0.000002

     Initial potential from superposition of free atoms

     starting charge  208.80532, renormalised to  209.00000

     negative rho (up, down):  6.483E-05 0.000E+00


---------------------------------------------------------------------------------
Carrying out rVV10 run using the following parameters:
Nqs =      20    Nr_points =    1024   r_max =   100.000
b_value =  6.30000    beta =  0.00901
     q_mesh =  0.00010000  0.00030000  0.00058939  0.00100810
               0.00161396  0.00249058  0.00375900  0.00559430
               0.00824984  0.01209221  0.01765183  0.02569619
               0.03733578  0.05417739  0.07854596  0.11380545
               0.16482331  0.23864234  0.34545298  0.50000000

Gradients computed in Reciprocal space

---------------------------------------------------------------------------------


     Starting wfcs are  207 randomized atomic wfcs

     total cpu time spent up to now is       49.7 secs

     Self-consistent Calculation

     iteration #  1     ecut=    70.00 Ry     beta= 0.70
     Davidson diagonalization with overlap
     ethr =  1.00E-02,  avg # of iterations =  6.0

     negative rho (up, down):  1.560E-04 0.000E+00

     total cpu time spent up to now is      117.7 secs

     total energy              =    -732.37894210 Ry
     Harris-Foulkes estimate   =    -737.60456177 Ry
     estimated scf accuracy    <       7.81724353 Ry

     iteration #  2     ecut=    70.00 Ry     beta= 0.70
     Davidson diagonalization with overlap
     ethr =  3.74E-03,  avg # of iterations =  4.0

     negative rho (up, down):  1.905E-04 0.000E+00

     total cpu time spent up to now is      182.4 secs

     total energy              =    -731.71567812 Ry
     Harris-Foulkes estimate   =    -737.51142504 Ry
     estimated scf accuracy    <      11.81704562 Ry

     iteration #  3     ecut=    70.00 Ry     beta= 0.70
     Davidson diagonalization with overlap
     ethr =  3.74E-03,  avg # of iterations =  4.0

     negative rho (up, down):  2.501E-04 0.000E+00

     total cpu time spent up to now is      236.2 secs

     total energy              =    -730.99356172 Ry
     Harris-Foulkes estimate   =    -736.22346501 Ry
     estimated scf accuracy    <      22.67124149 Ry

     iteration #  4     ecut=    70.00 Ry     beta= 0.70
     Davidson diagonalization with overlap
     ethr =  3.74E-03,  avg # of iterations =  3.0

     negative rho (up, down):  2.716E-04 0.000E+00

     total cpu time spent up to now is      291.4 secs

     total energy              =    -734.30701345 Ry
     Harris-Foulkes estimate   =    -735.33324037 Ry
     estimated scf accuracy    <       6.32279402 Ry

     iteration #  5     ecut=    70.00 Ry     beta= 0.70
     Davidson diagonalization with overlap
     ethr =  3.03E-03,  avg # of iterations =  1.0

     negative rho (up, down):  2.910E-04 0.000E+00

     total cpu time spent up to now is      340.4 secs

     total energy              =    -734.72433964 Ry
     Harris-Foulkes estimate   =    -734.86153658 Ry
     estimated scf accuracy    <       0.53601363 Ry

     iteration #  6     ecut=    70.00 Ry     beta= 0.70
     Davidson diagonalization with overlap
     ethr =  2.56E-04,  avg # of iterations = 11.0

     negative rho (up, down):  3.072E-04 0.000E+00

     total cpu time spent up to now is      396.5 secs

     total energy              =    -734.74326698 Ry
     Harris-Foulkes estimate   =    -734.79073879 Ry
     estimated scf accuracy    <       0.19021148 Ry

     iteration #  7     ecut=    70.00 Ry     beta= 0.70
     Davidson diagonalization with overlap
     ethr =  9.10E-05,  avg # of iterations =  2.0

     negative rho (up, down):  3.456E-04 0.000E+00

     total cpu time spent up to now is      446.4 secs

     total energy              =    -734.74699010 Ry
     Harris-Foulkes estimate   =    -734.76746027 Ry
     estimated scf accuracy    <       0.09523554 Ry

     iteration #  8     ecut=    70.00 Ry     beta= 0.70
     Davidson diagonalization with overlap
     ethr =  4.56E-05,  avg # of iterations =  2.0

     negative rho (up, down):  3.983E-04 0.000E+00

     total cpu time spent up to now is      495.9 secs

     total energy              =    -734.74680200 Ry
     Harris-Foulkes estimate   =    -734.75831579 Ry
     estimated scf accuracy    <       0.05080935 Ry

     iteration #  9     ecut=    70.00 Ry     beta= 0.70
     Davidson diagonalization with overlap
     ethr =  2.43E-05,  avg # of iterations =  2.0

     negative rho (up, down):  5.792E-04 0.000E+00

     total cpu time spent up to now is      545.7 secs

     total energy              =    -734.74665165 Ry
     Harris-Foulkes estimate   =    -734.75300826 Ry
     estimated scf accuracy    <       0.03239681 Ry

     iteration # 10     ecut=    70.00 Ry     beta= 0.70
     Davidson diagonalization with overlap
     ethr =  1.55E-05,  avg # of iterations = 12.0

     negative rho (up, down):  5.983E-04 0.000E+00

     total cpu time spent up to now is      599.4 secs

     total energy              =    -734.74864128 Ry
     Harris-Foulkes estimate   =    -734.74920417 Ry
     estimated scf accuracy    <       0.00202850 Ry

     iteration # 11     ecut=    70.00 Ry     beta= 0.70
     Davidson diagonalization with overlap
     ethr =  9.71E-07,  avg # of iterations =  3.0

     negative rho (up, down):  6.572E-04 0.000E+00

     total cpu time spent up to now is      652.9 secs

     total energy              =    -734.74854216 Ry
     Harris-Foulkes estimate   =    -734.75049331 Ry
     estimated scf accuracy    <       0.02313334 Ry

     iteration # 12     ecut=    70.00 Ry     beta= 0.70
     Davidson diagonalization with overlap
     ethr =  9.71E-07,  avg # of iterations =  2.0

     negative rho (up, down):  6.259E-04 0.000E+00

     total cpu time spent up to now is      702.7 secs

     total energy              =    -734.74883059 Ry
     Harris-Foulkes estimate   =    -734.74918509 Ry
     estimated scf accuracy    <       0.00294156 Ry

     iteration # 13     ecut=    70.00 Ry     beta= 0.70
     Davidson diagonalization with overlap
     ethr =  9.71E-07,  avg # of iterations =  2.0

     negative rho (up, down):  6.299E-04 0.000E+00

     total cpu time spent up to now is      752.3 secs

     total energy              =    -734.74887582 Ry
     Harris-Foulkes estimate   =    -734.74911522 Ry
     estimated scf accuracy    <       0.00362363 Ry

     iteration # 14     ecut=    70.00 Ry     beta= 0.70
     Davidson diagonalization with overlap
     ethr =  9.71E-07,  avg # of iterations =  2.0

     negative rho (up, down):  6.323E-04 0.000E+00

     total cpu time spent up to now is      801.9 secs

     total energy              =    -734.74889543 Ry
     Harris-Foulkes estimate   =    -734.74919074 Ry
     estimated scf accuracy    <       0.00242185 Ry

     iteration # 15     ecut=    70.00 Ry     beta= 0.70
     Davidson diagonalization with overlap
     ethr =  9.71E-07,  avg # of iterations =  2.0

     negative rho (up, down):  6.350E-04 0.000E+00

     total cpu time spent up to now is      851.1 secs

     total energy              =    -734.74902754 Ry
     Harris-Foulkes estimate   =    -734.74903585 Ry
     estimated scf accuracy    <       0.00011290 Ry

     iteration # 16     ecut=    70.00 Ry     beta= 0.70
     Davidson diagonalization with overlap
     ethr =  5.40E-08,  avg # of iterations =  3.0

     negative rho (up, down):  6.381E-04 0.000E+00

     total cpu time spent up to now is      901.6 secs

     total energy              =    -734.74903493 Ry
     Harris-Foulkes estimate   =    -734.74903885 Ry
     estimated scf accuracy    <       0.00009309 Ry

     iteration # 17     ecut=    70.00 Ry     beta= 0.70
     Davidson diagonalization with overlap
     ethr =  4.45E-08,  avg # of iterations =  1.0

     negative rho (up, down):  6.399E-04 0.000E+00

     total cpu time spent up to now is      950.8 secs

     total energy              =    -734.74903658 Ry
     Harris-Foulkes estimate   =    -734.74903713 Ry
     estimated scf accuracy    <       0.00000141 Ry

     iteration # 18     ecut=    70.00 Ry     beta= 0.70
     Davidson diagonalization with overlap
     ethr =  6.76E-10,  avg # of iterations =  3.0

     negative rho (up, down):  6.403E-04 0.000E+00

     total cpu time spent up to now is     1005.5 secs

     End of self-consistent calculation

          k = 0.0000 0.0000 0.0000 ( 87777 PWs)   bands (ev):

   -19.8410 -18.9957 -18.9948 -18.9132 -18.9129 -18.8523 -18.7418 -17.1615
   -17.1602 -17.1369 -17.0913 -17.0904 -16.8057 -16.3233 -16.3219 -16.1854
   -16.1852 -16.1701 -15.7459 -14.3942 -14.3917 -14.1304 -14.0432 -14.0428
   -13.5696 -13.1669 -13.1669 -13.0866 -12.9324 -12.9321 -12.6130 -12.2741
   -12.2737 -11.7174 -11.6051 -11.6050 -11.1487 -10.8897 -10.8893  -9.5165
    -9.3679  -9.3675  -9.2520  -9.2419  -9.2417  -9.2303  -9.0632  -9.0465
    -9.0456  -9.0441  -8.9186  -8.7107  -8.7105  -7.9895  -7.8974  -7.8465
    -7.6530  -7.6525  -7.5392  -7.5387  -7.1420  -6.8601  -6.8528  -6.8525
    -6.8105  -6.7924  -6.7219  -6.7201  -6.6215  -6.6205  -6.5832  -6.5786
    -6.5783  -6.5315  -6.3914  -6.3911  -6.3236  -5.6128  -5.6118  -5.0324
    -4.9649  -4.8891  -4.8887  -4.8545  -4.7716  -4.7374  -4.7366  -4.5487
    -4.5454  -4.4510  -3.8619  -3.8619  -3.8182  -3.8181  -3.7948  -3.6429
    -3.6410  -3.3766  -1.8933  -1.8376  -1.8373  -1.7377  -1.7336  -1.2122
    -0.6593  -0.6592   0.9005   0.9366   0.9376   1.0888   1.0933   1.4877
     2.5657   2.7803   2.7832   2.8272   2.9233   2.9293   3.3861   3.6762
     3.6794   3.8041   3.8079   3.8246   3.9528   4.2942

     occupation numbers 
     1.0000   1.0000   1.0000   1.0000   1.0000   1.0000   1.0000   1.0000
     1.0000   1.0000   1.0000   1.0000   1.0000   1.0000   1.0000   1.0000
     1.0000   1.0000   1.0000   1.0000   1.0000   1.0000   1.0000   1.0000
     1.0000   1.0000   1.0000   1.0000   1.0000   1.0000   1.0000   1.0000
     1.0000   1.0000   1.0000   1.0000   1.0000   1.0000   1.0000   1.0000
     1.0000   1.0000   1.0000   1.0000   1.0000   1.0000   1.0000   1.0000
     1.0000   1.0000   1.0000   1.0000   1.0000   1.0000   1.0000   1.0000
     1.0000   1.0000   1.0000   1.0000   1.0000   1.0000   1.0000   1.0000
     1.0000   1.0000   1.0000   1.0000   1.0000   1.0000   1.0000   1.0000
     1.0000   1.0000   1.0000   1.0000   1.0000   1.0000   1.0000   1.0000
     1.0000   1.0000   1.0000   1.0000   1.0000   1.0000   1.0000   1.0000
     1.0000   1.0000   1.0000   1.0000   1.0000   1.0000   1.0000   1.0000
     1.0000   1.0000   1.0000   1.0000   1.0000   1.0000   1.0000   1.0000
     0.2525   0.2475   0.0000   0.0000   0.0000   0.0000   0.0000   0.0000
     0.0000   0.0000   0.0000   0.0000   0.0000   0.0000   0.0000   0.0000
     0.0000   0.0000   0.0000   0.0000   0.0000   0.0000

     the Fermi energy is    -0.6626 ev

!    total energy              =    -734.74903610 Ry
     Harris-Foulkes estimate   =    -734.74903681 Ry
     estimated scf accuracy    <       0.00000078 Ry

     The total energy is the sum of the following terms:

     one-electron contribution =   -2497.29266710 Ry
     hartree contribution      =    1304.29201005 Ry
     xc contribution           =    -275.93347739 Ry
     ewald contribution        =     734.18571181 Ry
     smearing contrib. (-TS)   =      -0.00061347 Ry

     convergence has been achieved in  18 iterations

     Writing output data file gr-12.save/

     init_run     :     47.41s CPU     48.56s WALL (       1 calls)
     electrons    :    925.85s CPU    955.89s WALL (       1 calls)

     Called by init_run:
     wfcinit      :     20.97s CPU     21.14s WALL (       1 calls)
     wfcinit:atom :      0.03s CPU      0.05s WALL (       1 calls)
     wfcinit:wfcr :     20.77s CPU     20.89s WALL (       1 calls)
     potinit      :     11.83s CPU     12.22s WALL (       1 calls)
     hinit0       :      9.94s CPU      9.98s WALL (       1 calls)

     Called by electrons:
     c_bands      :    550.12s CPU    553.81s WALL (      18 calls)
     sum_band     :    184.97s CPU    194.89s WALL (      18 calls)
     v_of_rho     :    117.25s CPU    124.41s WALL (      19 calls)
     v_h          :      1.31s CPU      1.35s WALL (      19 calls)
     v_xc         :    115.94s CPU    123.06s WALL (      19 calls)
     newd         :     78.13s CPU     88.11s WALL (      19 calls)
     mix_rho      :      3.51s CPU      3.58s WALL (      18 calls)

     Called by c_bands:
     init_us_2    :      1.61s CPU      1.64s WALL (      37 calls)
     cegterg      :    546.13s CPU    549.80s WALL (      18 calls)

     Called by sum_band:
     sum_band:bec :      0.01s CPU      0.01s WALL (      18 calls)
     addusdens    :    114.90s CPU    124.36s WALL (      18 calls)

     Called by *egterg:
     h_psi        :    297.66s CPU    300.12s WALL (      84 calls)
     s_psi        :     99.38s CPU     99.50s WALL (      84 calls)
     g_psi        :      0.30s CPU      0.30s WALL (      65 calls)
     cdiaghg      :      5.57s CPU      5.58s WALL (      83 calls)
     cegterg:over :     63.80s CPU     63.88s WALL (      65 calls)
     cegterg:upda :     38.12s CPU     38.49s WALL (      65 calls)
     cegterg:last :     28.49s CPU     28.52s WALL (      18 calls)

     Called by h_psi:
     h_psi:pot    :    297.30s CPU    299.39s WALL (      84 calls)
     h_psi:calbec :     98.99s CPU     99.10s WALL (      84 calls)
     vloc_psi     :     99.00s CPU    100.88s WALL (      84 calls)
     add_vuspsi   :     99.30s CPU     99.41s WALL (      84 calls)

     General routines
     calbec       :    141.55s CPU    141.69s WALL (     102 calls)
     fft          :     65.17s CPU     67.75s WALL (    1195 calls)
     ffts         :      0.70s CPU      0.72s WALL (      37 calls)
     fftw         :    105.50s CPU    107.51s WALL (   12816 calls)
     interpolate  :      1.63s CPU      1.67s WALL (      19 calls)

     Parallel routines
     fft_scatt_xy :     29.60s CPU     29.99s WALL (   14048 calls)
     fft_scatt_yz :     58.95s CPU     62.12s WALL (   14048 calls)

     PWSCF        :  16m14.49s CPU  16m45.92s WALL


   This run was terminated on:   4:22: 0  19Jul2022            

=------------------------------------------------------------------------------=
   JOB DONE.
=------------------------------------------------------------------------------=
