
     Program PWSCF v.6.4.1 starts on 19Jul2022 at  3:48:36 

     This program is part of the open-source Quantum ESPRESSO suite
     for quantum simulation of materials; please cite
         "P. Giannozzi et al., J. Phys.:Condens. Matter 21 395502 (2009);
         "P. Giannozzi et al., J. Phys.:Condens. Matter 29 465901 (2017);
          URL http://www.quantum-espresso.org", 
     in publications or presentations arising from this work. More details at
     http://www.quantum-espresso.org/quote

     Parallel version (MPI), running on     6 processors

     MPI processes distributed on     1 nodes
     R & G space division:  proc/nbgrp/npool/nimage =       6
     Reading input from distance-2.6.in

     Current dimensions of program PWSCF are:
     Max number of different atomic species (ntypx) = 10
     Max number of k-points (npk) =  40000
     Max angular momentum in pseudopotentials (lmaxx) =  3

     IMPORTANT: XC functional enforced from input :
     Exchange-correlation      = RVV10 ( 1  4 13  4 3 0)
     Any further DFT definition will be discarded
     Please, verify this is what you really want

               file H.pbe-rrkjus.UPF: wavefunction(s)  1S renormalized
               file Cu.pbe-dn-rrkjus_psl.1.0.0.UPF: wavefunction(s)  3D renormalized

     Subspace diagonalization in iterative solution of the eigenvalue problem:
     a serial algorithm will be used


     Parallelization info
     --------------------
     sticks:   dense  smooth     PW     G-vecs:    dense   smooth      PW
     Min        3051    1746    432               270999   117096   14629
     Max        3053    1747    437               271001   117099   14630
     Sum       18313   10477   2611              1626001   702581   87777



     bravais-lattice index     =            4
     lattice parameter (alat)  =      23.2937  a.u.
     unit-cell volume          =    8879.8548 (a.u.)^3
     number of atoms/cell      =           52
     number of atomic types    =            3
     number of electrons       =       209.00
     number of Kohn-Sham states=          126
     kinetic-energy cutoff     =      70.0000  Ry
     charge density cutoff     =     490.0000  Ry
     convergence threshold     =      1.0E-06
     mixing beta               =       0.7000
     number of iterations used =            8  plain     mixing
     Exchange-correlation      = RVV10 ( 1  4 13  4 3 0)

     celldm(1)=  23.293684  celldm(2)=   0.000000  celldm(3)=   0.811261
     celldm(4)=   0.000000  celldm(5)=   0.000000  celldm(6)=   0.000000

     crystal axes: (cart. coord. in units of alat)
               a(1) = (   1.000000   0.000000   0.000000 )  
               a(2) = (  -0.500000   0.866025   0.000000 )  
               a(3) = (   0.000000   0.000000   0.811261 )  

     reciprocal axes: (cart. coord. in units 2 pi/alat)
               b(1) = (  1.000000  0.577350 -0.000000 )  
               b(2) = (  0.000000  1.154701  0.000000 )  
               b(3) = (  0.000000 -0.000000  1.232649 )  


     PseudoPot. # 1 for H  read from file:
     /home/cristian/Escritorio/Proyecto_Grafeno/pseudopotenciales/H.pbe-rrkjus.UPF
     MD5 check sum: 7cc9d459525c9a0585f487a71c3c9563
     Pseudo is Ultrasoft, Zval =  1.0
     Generated by new atomic code, or converted to UPF format
     Using radial grid of 1061 points,  2 beta functions with: 
                l(1) =   0
                l(2) =   0
     Q(r) pseudized with 0 coefficients 


     PseudoPot. # 2 for C  read from file:
     /home/cristian/Escritorio/Proyecto_Grafeno/pseudopotenciales/C.pbe-n-rrkjus_psl.1.0.0.UPF
     MD5 check sum: 1fdd950c42eb37d8afe3dd2f8d12311e
     Pseudo is Ultrasoft + core correction, Zval =  4.0
     Generated using "atomic" code by A. Dal Corso v.6.3MaX
     Using radial grid of 1073 points,  4 beta functions with: 
                l(1) =   0
                l(2) =   0
                l(3) =   1
                l(4) =   1
     Q(r) pseudized with 0 coefficients 


     PseudoPot. # 3 for Cu read from file:
     /home/cristian/Escritorio/Proyecto_Grafeno/pseudopotenciales/Cu.pbe-dn-rrkjus_psl.1.0.0.UPF
     MD5 check sum: ba3d6c84e19846e79d48cdc68ff7152b
     Pseudo is Ultrasoft + core correction, Zval = 11.0
     Generated using "atomic" code by A. Dal Corso v.6.3
     Using radial grid of 1199 points,  6 beta functions with: 
                l(1) =   0
                l(2) =   0
                l(3) =   1
                l(4) =   1
                l(5) =   2
                l(6) =   2
     Q(r) pseudized with 0 coefficients 


     vdW kernel table read from file rVV10_kernel_table
     MD5 check sum: b8e2538accc0c0b3206b45ba4daaba6c

     atomic species   valence    mass     pseudopotential
        H              1.00     1.00794     H ( 1.00)
        C              4.00    12.01070     C ( 1.00)
        Cu            11.00    63.54600     Cu( 1.00)

     No symmetry found


                                    s                        frac. trans.

      isym =  1     identity                                     

 cryst.   s( 1) = (     1          0          0      )
                  (     0          1          0      )
                  (     0          0          1      )

 cart.    s( 1) = (  1.0000000  0.0000000  0.0000000 )
                  (  0.0000000  1.0000000  0.0000000 )
                  (  0.0000000  0.0000000  1.0000000 )


     point group C_1 (1)    
     there are  1 classes
     the character table:

       E    
A      1.00

     the symmetry operations in each class and the name of the first element:

     E        1
          identity                                               

   Cartesian axes

     site n.     atom                  positions (alat units)
         1           H   tau(   1) = (   0.2500000   0.4907477   0.2109279  )
         2           H   tau(   2) = (   0.2500000   0.4907477   0.2719406  )
         3           C   tau(   3) = (   0.0000000   0.0000000   0.0000000  )
         4           C   tau(   4) = (   0.0000000   0.1154701   0.0000000  )
         5           C   tau(   5) = (  -0.1000000   0.1732051   0.0000000  )
         6           C   tau(   6) = (  -0.1000000   0.2886751   0.0000000  )
         7           C   tau(   7) = (  -0.2000000   0.3464102   0.0000000  )
         8           C   tau(   8) = (  -0.2000000   0.4618802   0.0000000  )
         9           C   tau(   9) = (  -0.3000000   0.5196152   0.0000000  )
        10           C   tau(  10) = (  -0.3000000   0.6350853   0.0000000  )
        11           C   tau(  11) = (  -0.4000000   0.6928203   0.0000000  )
        12           C   tau(  12) = (  -0.4000000   0.8082904   0.0000000  )
        13           C   tau(  13) = (   0.2000000   0.0000000   0.0000000  )
        14           C   tau(  14) = (   0.2000000   0.1154701   0.0000000  )
        15           C   tau(  15) = (   0.1000000   0.1732051   0.0000000  )
        16           C   tau(  16) = (   0.1000000   0.2886751   0.0000000  )
        17           C   tau(  17) = (   0.0000000   0.3464102   0.0000000  )
        18           C   tau(  18) = (   0.0000000   0.4618802   0.0000000  )
        19           C   tau(  19) = (  -0.1000000   0.5196152   0.0000000  )
        20           C   tau(  20) = (  -0.1000000   0.6350853   0.0000000  )
        21           C   tau(  21) = (  -0.2000000   0.6928203   0.0000000  )
        22           C   tau(  22) = (  -0.2000000   0.8082904   0.0000000  )
        23           C   tau(  23) = (   0.4000000   0.0000000   0.0000000  )
        24           C   tau(  24) = (   0.4000000   0.1154701   0.0000000  )
        25           C   tau(  25) = (   0.3000000   0.1732051   0.0000000  )
        26           C   tau(  26) = (   0.3000000   0.2886751   0.0000000  )
        27           C   tau(  27) = (   0.2000000   0.3464102   0.0000000  )
        28           Cu  tau(  28) = (   0.2000000   0.4618802   0.0000000  )
        29           C   tau(  29) = (   0.1000000   0.5196152   0.0000000  )
        30           C   tau(  30) = (   0.1000000   0.6350853   0.0000000  )
        31           C   tau(  31) = (   0.0000000   0.6928203   0.0000000  )
        32           C   tau(  32) = (   0.0000000   0.8082904   0.0000000  )
        33           C   tau(  33) = (   0.6000000   0.0000000   0.0000000  )
        34           C   tau(  34) = (   0.6000000   0.1154701   0.0000000  )
        35           C   tau(  35) = (   0.5000000   0.1732051   0.0000000  )
        36           C   tau(  36) = (   0.5000000   0.2886751   0.0000000  )
        37           C   tau(  37) = (   0.4000000   0.3464102   0.0000000  )
        38           C   tau(  38) = (   0.4000000   0.4618802   0.0000000  )
        39           C   tau(  39) = (   0.3000000   0.5196152   0.0000000  )
        40           C   tau(  40) = (   0.3000000   0.6350853   0.0000000  )
        41           C   tau(  41) = (   0.2000000   0.6928203   0.0000000  )
        42           C   tau(  42) = (   0.2000000   0.8082904   0.0000000  )
        43           C   tau(  43) = (   0.8000000   0.0000000   0.0000000  )
        44           C   tau(  44) = (   0.8000000   0.1154701   0.0000000  )
        45           C   tau(  45) = (   0.7000000   0.1732051   0.0000000  )
        46           C   tau(  46) = (   0.7000000   0.2886751   0.0000000  )
        47           C   tau(  47) = (   0.6000000   0.3464102   0.0000000  )
        48           C   tau(  48) = (   0.6000000   0.4618802   0.0000000  )
        49           C   tau(  49) = (   0.5000000   0.5196152   0.0000000  )
        50           C   tau(  50) = (   0.5000000   0.6350853   0.0000000  )
        51           C   tau(  51) = (   0.4000000   0.6928203   0.0000000  )
        52           C   tau(  52) = (   0.4000000   0.8082904   0.0000000  )

   Crystallographic axes

     site n.     atom                  positions (cryst. coord.)
         1           H   tau(   1) = (  0.5333333  0.5666667  0.2600000  )
         2           H   tau(   2) = (  0.5333333  0.5666667  0.3352072  )
         3           C   tau(   3) = (  0.0000000  0.0000000  0.0000000  )
         4           C   tau(   4) = (  0.0666667  0.1333333  0.0000000  )
         5           C   tau(   5) = (  0.0000000  0.2000000  0.0000000  )
         6           C   tau(   6) = (  0.0666667  0.3333333  0.0000000  )
         7           C   tau(   7) = (  0.0000000  0.4000000  0.0000000  )
         8           C   tau(   8) = (  0.0666667  0.5333333  0.0000000  )
         9           C   tau(   9) = (  0.0000000  0.6000000  0.0000000  )
        10           C   tau(  10) = (  0.0666667  0.7333333  0.0000000  )
        11           C   tau(  11) = (  0.0000000  0.8000000  0.0000000  )
        12           C   tau(  12) = (  0.0666667  0.9333333  0.0000000  )
        13           C   tau(  13) = (  0.2000000  0.0000000  0.0000000  )
        14           C   tau(  14) = (  0.2666667  0.1333333  0.0000000  )
        15           C   tau(  15) = (  0.2000000  0.2000000  0.0000000  )
        16           C   tau(  16) = (  0.2666667  0.3333333  0.0000000  )
        17           C   tau(  17) = (  0.2000000  0.4000000  0.0000000  )
        18           C   tau(  18) = (  0.2666667  0.5333333  0.0000000  )
        19           C   tau(  19) = (  0.2000000  0.6000000  0.0000000  )
        20           C   tau(  20) = (  0.2666667  0.7333333  0.0000000  )
        21           C   tau(  21) = (  0.2000000  0.8000000  0.0000000  )
        22           C   tau(  22) = (  0.2666667  0.9333333  0.0000000  )
        23           C   tau(  23) = (  0.4000000  0.0000000  0.0000000  )
        24           C   tau(  24) = (  0.4666667  0.1333333  0.0000000  )
        25           C   tau(  25) = (  0.4000000  0.2000000  0.0000000  )
        26           C   tau(  26) = (  0.4666667  0.3333333  0.0000000  )
        27           C   tau(  27) = (  0.4000000  0.4000000  0.0000000  )
        28           Cu  tau(  28) = (  0.4666667  0.5333333  0.0000000  )
        29           C   tau(  29) = (  0.4000000  0.6000000  0.0000000  )
        30           C   tau(  30) = (  0.4666667  0.7333333  0.0000000  )
        31           C   tau(  31) = (  0.4000000  0.8000000  0.0000000  )
        32           C   tau(  32) = (  0.4666667  0.9333333  0.0000000  )
        33           C   tau(  33) = (  0.6000000  0.0000000  0.0000000  )
        34           C   tau(  34) = (  0.6666667  0.1333333  0.0000000  )
        35           C   tau(  35) = (  0.6000000  0.2000000  0.0000000  )
        36           C   tau(  36) = (  0.6666667  0.3333333  0.0000000  )
        37           C   tau(  37) = (  0.6000000  0.4000000  0.0000000  )
        38           C   tau(  38) = (  0.6666667  0.5333333  0.0000000  )
        39           C   tau(  39) = (  0.6000000  0.6000000  0.0000000  )
        40           C   tau(  40) = (  0.6666667  0.7333333  0.0000000  )
        41           C   tau(  41) = (  0.6000000  0.8000000  0.0000000  )
        42           C   tau(  42) = (  0.6666667  0.9333333  0.0000000  )
        43           C   tau(  43) = (  0.8000000  0.0000000  0.0000000  )
        44           C   tau(  44) = (  0.8666667  0.1333333  0.0000000  )
        45           C   tau(  45) = (  0.8000000  0.2000000  0.0000000  )
        46           C   tau(  46) = (  0.8666667  0.3333333  0.0000000  )
        47           C   tau(  47) = (  0.8000000  0.4000000  0.0000000  )
        48           C   tau(  48) = (  0.8666667  0.5333333  0.0000000  )
        49           C   tau(  49) = (  0.8000000  0.6000000  0.0000000  )
        50           C   tau(  50) = (  0.8666667  0.7333333  0.0000000  )
        51           C   tau(  51) = (  0.8000000  0.8000000  0.0000000  )
        52           C   tau(  52) = (  0.8666667  0.9333333  0.0000000  )

     number of k points=     1  Marzari-Vanderbilt smearing, width (Ry)=  0.0010
                       cart. coord. in units 2pi/alat
        k(    1) = (   0.0000000   0.0000000   0.0000000), wk =   2.0000000

                       cryst. coord.
        k(    1) = (   0.0000000   0.0000000   0.0000000), wk =   2.0000000

     Dense  grid:  1626001 G-vectors     FFT dimensions: ( 180, 180, 135)

     Smooth grid:   702581 G-vectors     FFT dimensions: ( 125, 125, 108)

     Dynamical RAM for                 wfc:      28.14 MB

     Dynamical RAM for     wfc (w. buffer):      28.14 MB

     Dynamical RAM for           str. fact:      12.41 MB

     Dynamical RAM for           local pot:       0.00 MB

     Dynamical RAM for          nlocal pot:      92.46 MB

     Dynamical RAM for                qrad:      19.73 MB

     Dynamical RAM for          rho,v,vnew:      29.46 MB

     Dynamical RAM for               rhoin:       9.82 MB

     Dynamical RAM for            rho*nmix:      66.16 MB

     Dynamical RAM for           G-vectors:      16.40 MB

     Dynamical RAM for          h,s,v(r/c):      11.63 MB

     Dynamical RAM for          <psi|beta>:       0.80 MB

     Dynamical RAM for                 psi:     112.56 MB

     Dynamical RAM for                hpsi:     112.56 MB

     Dynamical RAM for                spsi:     112.56 MB

     Dynamical RAM for      wfcinit/wfcrot:      93.45 MB

     Dynamical RAM for           addusdens:     971.75 MB

     Estimated static dynamical RAM per process >     319.55 MB

     Estimated max dynamical RAM per process >       1.26 GB

     Estimated total dynamical RAM >       7.57 GB

     Check: negative core charge=   -0.000002

     Initial potential from superposition of free atoms

     starting charge  208.80532, renormalised to  209.00000

     negative rho (up, down):  6.245E-05 0.000E+00


---------------------------------------------------------------------------------
Carrying out rVV10 run using the following parameters:
Nqs =      20    Nr_points =    1024   r_max =   100.000
b_value =  6.30000    beta =  0.00901
     q_mesh =  0.00010000  0.00030000  0.00058939  0.00100810
               0.00161396  0.00249058  0.00375900  0.00559430
               0.00824984  0.01209221  0.01765183  0.02569619
               0.03733578  0.05417739  0.07854596  0.11380545
               0.16482331  0.23864234  0.34545298  0.50000000

Gradients computed in Reciprocal space

---------------------------------------------------------------------------------


     Starting wfcs are  207 randomized atomic wfcs

     total cpu time spent up to now is       47.3 secs

     Self-consistent Calculation

     iteration #  1     ecut=    70.00 Ry     beta= 0.70
     Davidson diagonalization with overlap
     ethr =  1.00E-02,  avg # of iterations =  2.0

     negative rho (up, down):  1.501E-04 0.000E+00

     total cpu time spent up to now is      113.7 secs

     total energy              =    -732.33520458 Ry
     Harris-Foulkes estimate   =    -737.60538861 Ry
     estimated scf accuracy    <       7.86431151 Ry

     iteration #  2     ecut=    70.00 Ry     beta= 0.70
     Davidson diagonalization with overlap
     ethr =  3.76E-03,  avg # of iterations =  5.0

     negative rho (up, down):  1.818E-04 0.000E+00

     total cpu time spent up to now is      179.3 secs

     total energy              =    -731.62612229 Ry
     Harris-Foulkes estimate   =    -737.68915852 Ry
     estimated scf accuracy    <      12.56515882 Ry

     iteration #  3     ecut=    70.00 Ry     beta= 0.70
     Davidson diagonalization with overlap
     ethr =  3.76E-03,  avg # of iterations =  6.0

     negative rho (up, down):  2.348E-04 0.000E+00

     total cpu time spent up to now is      234.7 secs

     total energy              =    -732.79481231 Ry
     Harris-Foulkes estimate   =    -736.18894979 Ry
     estimated scf accuracy    <      11.62753995 Ry

     iteration #  4     ecut=    70.00 Ry     beta= 0.70
     Davidson diagonalization with overlap
     ethr =  3.76E-03,  avg # of iterations =  3.0

     negative rho (up, down):  2.619E-04 0.000E+00

     total cpu time spent up to now is      289.7 secs

     total energy              =    -734.11499716 Ry
     Harris-Foulkes estimate   =    -735.08988652 Ry
     estimated scf accuracy    <       4.98046587 Ry

     iteration #  5     ecut=    70.00 Ry     beta= 0.70
     Davidson diagonalization with overlap
     ethr =  2.38E-03,  avg # of iterations =  1.0

     negative rho (up, down):  2.844E-04 0.000E+00

     total cpu time spent up to now is      338.7 secs

     total energy              =    -734.71614994 Ry
     Harris-Foulkes estimate   =    -734.80242973 Ry
     estimated scf accuracy    <       0.27954403 Ry

     iteration #  6     ecut=    70.00 Ry     beta= 0.70
     Davidson diagonalization with overlap
     ethr =  1.34E-04,  avg # of iterations =  8.0

     negative rho (up, down):  3.112E-04 0.000E+00

     total cpu time spent up to now is      397.7 secs

     total energy              =    -734.74194943 Ry
     Harris-Foulkes estimate   =    -734.78640752 Ry
     estimated scf accuracy    <       0.17630823 Ry

     iteration #  7     ecut=    70.00 Ry     beta= 0.70
     Davidson diagonalization with overlap
     ethr =  8.44E-05,  avg # of iterations =  9.0

     negative rho (up, down):  3.513E-04 0.000E+00

     total cpu time spent up to now is      449.7 secs

     total energy              =    -734.74998189 Ry
     Harris-Foulkes estimate   =    -734.76414393 Ry
     estimated scf accuracy    <       0.07925073 Ry

     iteration #  8     ecut=    70.00 Ry     beta= 0.70
     Davidson diagonalization with overlap
     ethr =  3.79E-05,  avg # of iterations =  3.0

     negative rho (up, down):  4.062E-04 0.000E+00

     total cpu time spent up to now is      500.0 secs

     total energy              =    -734.75072042 Ry
     Harris-Foulkes estimate   =    -734.76011167 Ry
     estimated scf accuracy    <       0.05329131 Ry

     iteration #  9     ecut=    70.00 Ry     beta= 0.70
     Davidson diagonalization with overlap
     ethr =  2.55E-05,  avg # of iterations =  2.0

     negative rho (up, down):  5.651E-04 0.000E+00

     total cpu time spent up to now is      549.4 secs

     total energy              =    -734.75084514 Ry
     Harris-Foulkes estimate   =    -734.75381019 Ry
     estimated scf accuracy    <       0.01423532 Ry

     iteration # 10     ecut=    70.00 Ry     beta= 0.70
     Davidson diagonalization with overlap
     ethr =  6.81E-06,  avg # of iterations = 10.0

     negative rho (up, down):  5.960E-04 0.000E+00

     total cpu time spent up to now is      604.7 secs

     total energy              =    -734.75153756 Ry
     Harris-Foulkes estimate   =    -734.75234150 Ry
     estimated scf accuracy    <       0.00999778 Ry

     iteration # 11     ecut=    70.00 Ry     beta= 0.70
     Davidson diagonalization with overlap
     ethr =  4.78E-06,  avg # of iterations =  1.0

     negative rho (up, down):  6.357E-04 0.000E+00

     total cpu time spent up to now is      654.1 secs

     total energy              =    -734.75166193 Ry
     Harris-Foulkes estimate   =    -734.75272187 Ry
     estimated scf accuracy    <       0.01917568 Ry

     iteration # 12     ecut=    70.00 Ry     beta= 0.70
     Davidson diagonalization with overlap
     ethr =  4.78E-06,  avg # of iterations =  1.0

     negative rho (up, down):  6.289E-04 0.000E+00

     total cpu time spent up to now is      703.3 secs

     total energy              =    -734.75178928 Ry
     Harris-Foulkes estimate   =    -734.75246691 Ry
     estimated scf accuracy    <       0.01542515 Ry

     iteration # 13     ecut=    70.00 Ry     beta= 0.70
     Davidson diagonalization with overlap
     ethr =  4.78E-06,  avg # of iterations =  1.0

     negative rho (up, down):  6.406E-04 0.000E+00

     total cpu time spent up to now is      752.5 secs

     total energy              =    -734.75205495 Ry
     Harris-Foulkes estimate   =    -734.75210804 Ry
     estimated scf accuracy    <       0.00029549 Ry

     iteration # 14     ecut=    70.00 Ry     beta= 0.70
     Davidson diagonalization with overlap
     ethr =  1.41E-07,  avg # of iterations =  2.0

     negative rho (up, down):  6.358E-04 0.000E+00

     total cpu time spent up to now is      801.9 secs

     total energy              =    -734.75207105 Ry
     Harris-Foulkes estimate   =    -734.75208658 Ry
     estimated scf accuracy    <       0.00023992 Ry

     iteration # 15     ecut=    70.00 Ry     beta= 0.70
     Davidson diagonalization with overlap
     ethr =  1.15E-07,  avg # of iterations =  1.0

     negative rho (up, down):  6.333E-04 0.000E+00

     total cpu time spent up to now is      851.1 secs

     total energy              =    -734.75207855 Ry
     Harris-Foulkes estimate   =    -734.75208752 Ry
     estimated scf accuracy    <       0.00021859 Ry

     iteration # 16     ecut=    70.00 Ry     beta= 0.70
     Davidson diagonalization with overlap
     ethr =  1.05E-07,  avg # of iterations =  1.0

     negative rho (up, down):  6.331E-04 0.000E+00

     total cpu time spent up to now is      900.1 secs

     total energy              =    -734.75208399 Ry
     Harris-Foulkes estimate   =    -734.75208493 Ry
     estimated scf accuracy    <       0.00003422 Ry

     iteration # 17     ecut=    70.00 Ry     beta= 0.70
     Davidson diagonalization with overlap
     ethr =  1.64E-08,  avg # of iterations =  1.0

     negative rho (up, down):  6.329E-04 0.000E+00

     total cpu time spent up to now is      949.1 secs

     total energy              =    -734.75208422 Ry
     Harris-Foulkes estimate   =    -734.75208446 Ry
     estimated scf accuracy    <       0.00000372 Ry

     iteration # 18     ecut=    70.00 Ry     beta= 0.70
     Davidson diagonalization with overlap
     ethr =  1.78E-09,  avg # of iterations =  2.0

     negative rho (up, down):  6.323E-04 0.000E+00

     total cpu time spent up to now is      998.2 secs

     End of self-consistent calculation

          k = 0.0000 0.0000 0.0000 ( 87777 PWs)   bands (ev):

   -19.8391 -18.9935 -18.9928 -18.9115 -18.9112 -18.8509 -18.7392 -17.1594
   -17.1586 -17.1351 -17.0892 -17.0886 -16.8039 -16.3212 -16.3203 -16.1836
   -16.1834 -16.1682 -15.7432 -14.3913 -14.3900 -14.1285 -14.0414 -14.0413
   -13.5674 -13.1650 -13.1650 -13.0848 -12.9303 -12.9301 -12.6109 -12.2719
   -12.2717 -11.7156 -11.6030 -11.6030 -11.1465 -10.8874 -10.8873  -9.5147
    -9.3659  -9.3657  -9.2504  -9.2404  -9.2402  -9.2287  -9.0480  -9.0439
    -9.0435  -9.0393  -8.9147  -8.7086  -8.7085  -7.9760  -7.8956  -7.8423
    -7.6511  -7.6509  -7.5371  -7.5369  -7.0428  -6.8523  -6.8512  -6.8485
    -6.8087  -6.7898  -6.7195  -6.7183  -6.6193  -6.6189  -6.5817  -6.5768
    -6.5766  -6.5299  -6.3903  -6.3894  -6.3841  -5.6109  -5.6104  -5.0306
    -4.9632  -4.8873  -4.8871  -4.8841  -4.7700  -4.7354  -4.7348  -4.5468
    -4.5452  -4.4606  -3.8601  -3.8600  -3.8165  -3.8164  -3.7932  -3.6410
    -3.6404  -3.3866  -1.8914  -1.8360  -1.8359  -1.7349  -1.7319  -1.2137
    -0.6548  -0.6547   0.9025   0.9387   0.9392   1.0924   1.0953   1.4896
     2.5654   2.7828   2.7848   2.8287   2.9285   2.9321   3.3875   3.6706
     3.6727   3.8041   3.8081   3.8250   3.9435   4.3051

     occupation numbers 
     1.0000   1.0000   1.0000   1.0000   1.0000   1.0000   1.0000   1.0000
     1.0000   1.0000   1.0000   1.0000   1.0000   1.0000   1.0000   1.0000
     1.0000   1.0000   1.0000   1.0000   1.0000   1.0000   1.0000   1.0000
     1.0000   1.0000   1.0000   1.0000   1.0000   1.0000   1.0000   1.0000
     1.0000   1.0000   1.0000   1.0000   1.0000   1.0000   1.0000   1.0000
     1.0000   1.0000   1.0000   1.0000   1.0000   1.0000   1.0000   1.0000
     1.0000   1.0000   1.0000   1.0000   1.0000   1.0000   1.0000   1.0000
     1.0000   1.0000   1.0000   1.0000   1.0000   1.0000   1.0000   1.0000
     1.0000   1.0000   1.0000   1.0000   1.0000   1.0000   1.0000   1.0000
     1.0000   1.0000   1.0000   1.0000   1.0000   1.0000   1.0000   1.0000
     1.0000   1.0000   1.0000   1.0000   1.0000   1.0000   1.0000   1.0000
     1.0000   1.0000   1.0000   1.0000   1.0000   1.0000   1.0000   1.0000
     1.0000   1.0000   1.0000   1.0000   1.0000   1.0000   1.0000   1.0000
     0.2515   0.2485   0.0000   0.0000   0.0000   0.0000   0.0000   0.0000
     0.0000   0.0000   0.0000   0.0000   0.0000   0.0000   0.0000   0.0000
     0.0000   0.0000   0.0000   0.0000   0.0000   0.0000

     the Fermi energy is    -0.6581 ev

!    total energy              =    -734.75208410 Ry
     Harris-Foulkes estimate   =    -734.75208446 Ry
     estimated scf accuracy    <       0.00000053 Ry

     The total energy is the sum of the following terms:

     one-electron contribution =   -2493.30587178 Ry
     hartree contribution      =    1302.30606975 Ry
     xc contribution           =    -275.92307524 Ry
     ewald contribution        =     732.17140666 Ry
     smearing contrib. (-TS)   =      -0.00061349 Ry

     convergence has been achieved in  18 iterations

     Writing output data file gr-12.save/

     init_run     :     44.96s CPU     46.12s WALL (       1 calls)
     electrons    :    920.74s CPU    951.02s WALL (       1 calls)

     Called by init_run:
     wfcinit      :     21.01s CPU     21.16s WALL (       1 calls)
     wfcinit:atom :      0.03s CPU      0.04s WALL (       1 calls)
     wfcinit:wfcr :     20.80s CPU     20.89s WALL (       1 calls)
     potinit      :     10.82s CPU     11.27s WALL (       1 calls)
     hinit0       :      8.41s CPU      8.42s WALL (       1 calls)

     Called by electrons:
     c_bands      :    545.34s CPU    548.65s WALL (      18 calls)
     sum_band     :    184.36s CPU    194.92s WALL (      18 calls)
     v_of_rho     :    117.66s CPU    124.65s WALL (      19 calls)
     v_h          :      1.24s CPU      1.30s WALL (      19 calls)
     v_xc         :    116.42s CPU    123.35s WALL (      19 calls)
     newd         :     78.00s CPU     88.21s WALL (      19 calls)
     mix_rho      :      3.51s CPU      3.56s WALL (      18 calls)

     Called by c_bands:
     init_us_2    :      1.62s CPU      1.66s WALL (      37 calls)
     cegterg      :    540.89s CPU    544.18s WALL (      18 calls)

     Called by sum_band:
     sum_band:bec :      0.01s CPU      0.01s WALL (      18 calls)
     addusdens    :    114.19s CPU    124.24s WALL (      18 calls)

     Called by *egterg:
     h_psi        :    294.55s CPU    296.92s WALL (      78 calls)
     s_psi        :     97.82s CPU     97.88s WALL (      78 calls)
     g_psi        :      0.30s CPU      0.30s WALL (      59 calls)
     cdiaghg      :      5.00s CPU      5.01s WALL (      77 calls)
     cegterg:over :     64.28s CPU     64.33s WALL (      59 calls)
     cegterg:upda :     37.30s CPU     37.55s WALL (      59 calls)
     cegterg:last :     28.02s CPU     28.05s WALL (      18 calls)

     Called by h_psi:
     h_psi:pot    :    294.21s CPU    296.23s WALL (      78 calls)
     h_psi:calbec :     98.30s CPU     98.37s WALL (      78 calls)
     vloc_psi     :     98.24s CPU    100.13s WALL (      78 calls)
     add_vuspsi   :     97.67s CPU     97.74s WALL (      78 calls)

     General routines
     calbec       :    141.00s CPU    141.09s WALL (      96 calls)
     fft          :     65.63s CPU     68.21s WALL (    1195 calls)
     ffts         :      0.66s CPU      0.68s WALL (      37 calls)
     fftw         :    104.91s CPU    107.01s WALL (   12722 calls)
     interpolate  :      1.56s CPU      1.62s WALL (      19 calls)

     Parallel routines
     fft_scatt_xy :     29.61s CPU     29.97s WALL (   13954 calls)
     fft_scatt_yz :     59.06s CPU     62.33s WALL (   13954 calls)

     PWSCF        :  16m 6.93s CPU  16m38.62s WALL


   This run was terminated on:   4: 5:14  19Jul2022            

=------------------------------------------------------------------------------=
   JOB DONE.
=------------------------------------------------------------------------------=
