
     Program PWSCF v.6.4.1 starts on 17Mar2022 at 10:17:39 

     This program is part of the open-source Quantum ESPRESSO suite
     for quantum simulation of materials; please cite
         "P. Giannozzi et al., J. Phys.:Condens. Matter 21 395502 (2009);
         "P. Giannozzi et al., J. Phys.:Condens. Matter 29 465901 (2017);
          URL http://www.quantum-espresso.org", 
     in publications or presentations arising from this work. More details at
     http://www.quantum-espresso.org/quote

     Parallel version (MPI), running on     6 processors

     MPI processes distributed on     1 nodes
     R & G space division:  proc/nbgrp/npool/nimage =       6
     Reading input from fe-100.in

     Current dimensions of program PWSCF are:
     Max number of different atomic species (ntypx) = 10
     Max number of k-points (npk) =  40000
     Max angular momentum in pseudopotentials (lmaxx) =  3

     Subspace diagonalization in iterative solution of the eigenvalue problem:
     a serial algorithm will be used

     Message from routine setup:
     DEPRECATED: symmetry with ibrav=0, use correct ibrav instead

     Parallelization info
     --------------------
     sticks:   dense  smooth     PW     G-vecs:    dense   smooth      PW
     Min         155     155     46                 3539     3539     566
     Max         156     156     47                 3542     3542     569
     Sum         933     933    277                21247    21247    3407



     bravais-lattice index     =            0
     lattice parameter (alat)  =       5.4046  a.u.
     unit-cell volume          =     157.8682 (a.u.)^3
     number of atoms/cell      =            2
     number of atomic types    =            2
     number of electrons       =        32.00
     number of Kohn-Sham states=           20
     kinetic-energy cutoff     =     100.0000  Ry
     charge density cutoff     =     400.0000  Ry
     convergence threshold     =      1.0E-06
     mixing beta               =       0.7000
     number of iterations used =            8  plain     mixing
     Exchange-correlation      = PBE ( 1  4  3  4 0 0)

     celldm(1)=   5.404617  celldm(2)=   0.000000  celldm(3)=   0.000000
     celldm(4)=   0.000000  celldm(5)=   0.000000  celldm(6)=   0.000000

     crystal axes: (cart. coord. in units of alat)
               a(1) = (   1.000000   0.000000   0.000000 )  
               a(2) = (   0.000000   1.000000   0.000000 )  
               a(3) = (   0.000000   0.000000   1.000000 )  

     reciprocal axes: (cart. coord. in units 2 pi/alat)
               b(1) = (  1.000000  0.000000  0.000000 )  
               b(2) = (  0.000000  1.000000  0.000000 )  
               b(3) = (  0.000000  0.000000  1.000000 )  


     PseudoPot. # 1 for Fe read from file:
     /home/cristian/Escritorio/Proyecto_Grafeno/pseudopotenciales/Fe.pbe-spn-rrkjus_psl.1.0.0.UPF
     MD5 check sum: 72ea77fed8e64ab3a2ccf2804dfc1862
     Pseudo is Ultrasoft + core correction, Zval = 16.0
     Generated using "atomic" code by A. Dal Corso v.6.3
     Using radial grid of 1191 points,  6 beta functions with: 
                l(1) =   0
                l(2) =   0
                l(3) =   1
                l(4) =   1
                l(5) =   2
                l(6) =   2
     Q(r) pseudized with 0 coefficients 


     PseudoPot. # 2 for Fe read from file:
     /home/cristian/Escritorio/Proyecto_Grafeno/pseudopotenciales/Fe.pbe-spn-rrkjus_psl.1.0.0.UPF
     MD5 check sum: 72ea77fed8e64ab3a2ccf2804dfc1862
     Pseudo is Ultrasoft + core correction, Zval = 16.0
     Generated using "atomic" code by A. Dal Corso v.6.3
     Using radial grid of 1191 points,  6 beta functions with: 
                l(1) =   0
                l(2) =   0
                l(3) =   1
                l(4) =   1
                l(5) =   2
                l(6) =   2
     Q(r) pseudized with 0 coefficients 


     atomic species   valence    mass     pseudopotential
        Fe1           16.00    55.84500     Fe( 1.00)
        Fe2           16.00    55.84500     Fe( 1.00)

     Starting magnetic structure 
     atomic species   magnetization
        Fe1          0.100
        Fe2         -0.100

     48 Sym. Ops., with inversion, found



   Cartesian axes

     site n.     atom                  positions (alat units)
         1           Fe1 tau(   1) = (   0.0000000   0.0000000   0.0000000  )
         2           Fe2 tau(   2) = (   0.5000000   0.5000000   0.5000000  )

     number of k points=    20  Methfessel-Paxton smearing, width (Ry)=  0.0300
                       cart. coord. in units 2pi/alat
        k(    1) = (   0.0625000   0.0625000   0.0625000), wk =   0.0156250
        k(    2) = (   0.0625000   0.0625000   0.1875000), wk =   0.0468750
        k(    3) = (   0.0625000   0.0625000   0.3125000), wk =   0.0468750
        k(    4) = (   0.0625000   0.0625000   0.4375000), wk =   0.0468750
        k(    5) = (   0.0625000   0.1875000   0.1875000), wk =   0.0468750
        k(    6) = (   0.0625000   0.1875000   0.3125000), wk =   0.0937500
        k(    7) = (   0.0625000   0.1875000   0.4375000), wk =   0.0937500
        k(    8) = (   0.0625000   0.3125000   0.3125000), wk =   0.0468750
        k(    9) = (   0.0625000   0.3125000   0.4375000), wk =   0.0937500
        k(   10) = (   0.0625000   0.4375000   0.4375000), wk =   0.0468750
        k(   11) = (   0.1875000   0.1875000   0.1875000), wk =   0.0156250
        k(   12) = (   0.1875000   0.1875000   0.3125000), wk =   0.0468750
        k(   13) = (   0.1875000   0.1875000   0.4375000), wk =   0.0468750
        k(   14) = (   0.1875000   0.3125000   0.3125000), wk =   0.0468750
        k(   15) = (   0.1875000   0.3125000   0.4375000), wk =   0.0937500
        k(   16) = (   0.1875000   0.4375000   0.4375000), wk =   0.0468750
        k(   17) = (   0.3125000   0.3125000   0.3125000), wk =   0.0156250
        k(   18) = (   0.3125000   0.3125000   0.4375000), wk =   0.0468750
        k(   19) = (   0.3125000   0.4375000   0.4375000), wk =   0.0468750
        k(   20) = (   0.4375000   0.4375000   0.4375000), wk =   0.0156250

     Dense  grid:    21247 G-vectors     FFT dimensions: (  36,  36,  36)

     Estimated max dynamical RAM per process >      22.21 MB

     Estimated total dynamical RAM >     133.27 MB
     Generating pointlists ...
     new r_m :   0.3572 (alat units)  1.9307 (a.u.) for type    1
     new r_m :   0.3572 (alat units)  1.9307 (a.u.) for type    2

     Check: negative core charge=   -0.000006

     Initial potential from superposition of free atoms

     starting charge   31.99912, renormalised to   32.00000
     Starting wfcs are   20 randomized atomic wfcs

     total cpu time spent up to now is        2.1 secs

     Self-consistent Calculation

     iteration #  1     ecut=   100.00 Ry     beta= 0.70
     Davidson diagonalization with overlap
     ethr =  1.00E-02,  avg # of iterations =  3.2

     Threshold (ethr) on eigenvalues was too large:
     Diagonalizing with lowered threshold

     Davidson diagonalization with overlap
     ethr =  1.61E-04,  avg # of iterations =  1.9

     total cpu time spent up to now is        5.0 secs

     total energy              =    -495.55098763 Ry
     Harris-Foulkes estimate   =    -495.58401506 Ry
     estimated scf accuracy    <       0.05581106 Ry

     total magnetization       =     0.00 Bohr mag/cell
     absolute magnetization    =     3.04 Bohr mag/cell

     iteration #  2     ecut=   100.00 Ry     beta= 0.70
     Davidson diagonalization with overlap
     ethr =  1.74E-04,  avg # of iterations =  3.0

     total cpu time spent up to now is        7.1 secs

     total energy              =    -495.55038061 Ry
     Harris-Foulkes estimate   =    -495.61908931 Ry
     estimated scf accuracy    <       0.18929796 Ry

     total magnetization       =     0.00 Bohr mag/cell
     absolute magnetization    =     3.39 Bohr mag/cell

     iteration #  3     ecut=   100.00 Ry     beta= 0.70
     Davidson diagonalization with overlap
     ethr =  1.74E-04,  avg # of iterations =  3.0

     total cpu time spent up to now is        8.9 secs

     total energy              =    -495.58338397 Ry
     Harris-Foulkes estimate   =    -495.58181097 Ry
     estimated scf accuracy    <       0.00181130 Ry

     total magnetization       =    -0.00 Bohr mag/cell
     absolute magnetization    =     3.34 Bohr mag/cell

     iteration #  4     ecut=   100.00 Ry     beta= 0.70
     Davidson diagonalization with overlap
     ethr =  5.66E-06,  avg # of iterations =  2.5

     total cpu time spent up to now is       10.4 secs

     total energy              =    -495.58407628 Ry
     Harris-Foulkes estimate   =    -495.58464248 Ry
     estimated scf accuracy    <       0.00461976 Ry

     total magnetization       =     0.06 Bohr mag/cell
     absolute magnetization    =     3.55 Bohr mag/cell

     iteration #  5     ecut=   100.00 Ry     beta= 0.70
     Davidson diagonalization with overlap
     ethr =  5.66E-06,  avg # of iterations =  2.1

     total cpu time spent up to now is       11.6 secs

     total energy              =    -495.58421895 Ry
     Harris-Foulkes estimate   =    -495.58490912 Ry
     estimated scf accuracy    <       0.00860774 Ry

     total magnetization       =    -0.08 Bohr mag/cell
     absolute magnetization    =     3.57 Bohr mag/cell

     iteration #  6     ecut=   100.00 Ry     beta= 0.70
     Davidson diagonalization with overlap
     ethr =  5.66E-06,  avg # of iterations =  2.5

     total cpu time spent up to now is       13.0 secs

     total energy              =    -495.58578534 Ry
     Harris-Foulkes estimate   =    -495.58575186 Ry
     estimated scf accuracy    <       0.00009729 Ry

     total magnetization       =    -0.00 Bohr mag/cell
     absolute magnetization    =     3.84 Bohr mag/cell

     iteration #  7     ecut=   100.00 Ry     beta= 0.70
     Davidson diagonalization with overlap
     ethr =  3.04E-07,  avg # of iterations =  2.7

     total cpu time spent up to now is       14.5 secs

     total energy              =    -495.58578070 Ry
     Harris-Foulkes estimate   =    -495.58584579 Ry
     estimated scf accuracy    <       0.00004804 Ry

     total magnetization       =    -0.00 Bohr mag/cell
     absolute magnetization    =     3.90 Bohr mag/cell

     iteration #  8     ecut=   100.00 Ry     beta= 0.70
     Davidson diagonalization with overlap
     ethr =  1.50E-07,  avg # of iterations =  3.0

     total cpu time spent up to now is       16.5 secs

     total energy              =    -495.58595023 Ry
     Harris-Foulkes estimate   =    -495.58595756 Ry
     estimated scf accuracy    <       0.00001165 Ry

     total magnetization       =    -0.00 Bohr mag/cell
     absolute magnetization    =     4.00 Bohr mag/cell

     iteration #  9     ecut=   100.00 Ry     beta= 0.70
     Davidson diagonalization with overlap
     ethr =  3.64E-08,  avg # of iterations =  2.8

     Magnetic moment per site:
     atom:    1    charge:   14.4140    magn:    1.9393    constr:    0.0000
     atom:    2    charge:   14.4137    magn:   -1.9424    constr:    0.0000

     total cpu time spent up to now is       17.9 secs

     End of self-consistent calculation

 ------ SPIN UP ------------


          k = 0.0625 0.0625 0.0625 (  2656 PWs)   bands (ev):

   -70.2818 -67.9620 -36.3018 -36.3018 -36.2996 -34.0356 -34.0328 -34.0328
     9.5940  13.6879  13.6879  15.9460  15.9460  16.0935  18.0628  18.0628
    18.7463  19.0122  19.0122  27.0670

          k = 0.0625 0.0625 0.1875 (  2667 PWs)   bands (ev):

   -70.2801 -67.9611 -36.3155 -36.2983 -36.2972 -34.0538 -34.0344 -34.0340
    10.2095  13.9074  13.9228  15.8499  15.8828  16.2290  17.8282  18.1540
    18.2719  18.5412  18.9810  24.4425

          k = 0.0625 0.0625 0.3125 (  2677 PWs)   bands (ev):

   -70.2778 -67.9599 -36.3350 -36.2936 -36.2934 -34.0809 -34.0358 -34.0353
    11.3427  14.1254  14.3272  15.7919  15.8024  16.3267  17.4357  17.8425
    17.9673  18.2518  18.7770  21.7382

          k = 0.0625 0.0625 0.4375 (  2674 PWs)   bands (ev):

   -70.2761 -67.9590 -36.3488 -36.2910 -36.2899 -34.1000 -34.0370 -34.0358
    12.7063  13.8867  14.7158  15.7066  15.8565  16.3253  17.0847  17.6020
    17.6465  18.1668  18.5629  20.1477

          k = 0.0625 0.1875 0.1875 (  2675 PWs)   bands (ev):

   -70.2786 -67.9601 -36.3179 -36.3093 -36.2952 -34.0577 -34.0464 -34.0346
    10.7896  14.0605  14.1903  15.6545  15.7487  16.2547  17.8798  17.9619
    18.1131  18.2649  19.0434  24.6270

          k = 0.0625 0.1875 0.3125 (  2675 PWs)   bands (ev):

   -70.2764 -67.9587 -36.3363 -36.3107 -36.2915 -34.0777 -34.0492 -34.0349
    11.8285  14.1895  14.5878  15.5115  15.6448  16.0518  17.6864  17.7591
    18.0759  18.2625  18.9815  22.2353

          k = 0.0625 0.1875 0.4375 (  2676 PWs)   bands (ev):

   -70.2749 -67.9577 -36.3511 -36.3099 -36.2888 -34.0940 -34.0492 -34.0350
    13.0087  13.9205  14.8684  15.4458  15.7810  15.9027  17.4103  17.5877
    18.0326  18.5829  18.8489  20.3122

          k = 0.0625 0.3125 0.3125 (  2672 PWs)   bands (ev):

   -70.2744 -67.9570 -36.3408 -36.3322 -36.2886 -34.0764 -34.0653 -34.0340
    12.5924  14.0335  15.1668  15.2718  15.6313  15.7100  17.5542  18.0770
    18.1659  18.4961  19.1115  22.0213

          k = 0.0625 0.3125 0.4375 (  2660 PWs)   bands (ev):

   -70.2731 -67.9557 -36.3544 -36.3371 -36.2866 -34.0856 -34.0667 -34.0333
    13.2653  13.7172  15.1672  15.3242  15.5661  16.3772  17.3987  18.0927
    18.2463  18.9947  19.1290  20.4317

          k = 0.0625 0.4375 0.4375 (  2663 PWs)   bands (ev):

   -70.2718 -67.9544 -36.3572 -36.3558 -36.2850 -34.0804 -34.0785 -34.0321
    13.3474  13.4996  14.9965  15.0455  16.4776  17.0591  17.6805  18.0054
    18.4168  19.2293  19.4038  20.0150

          k = 0.1875 0.1875 0.1875 (  2671 PWs)   bands (ev):

   -70.2771 -67.9590 -36.3138 -36.3138 -36.3074 -34.0569 -34.0482 -34.0482
    11.3496  14.3341  14.3341  15.5258  15.5258  15.9356  18.0222  18.0222
    18.0368  18.6010  18.6010  25.6143

          k = 0.1875 0.1875 0.3125 (  2667 PWs)   bands (ev):

   -70.2751 -67.9574 -36.3351 -36.3097 -36.3081 -34.0748 -34.0507 -34.0484
    12.3286  14.5457  14.5714  15.3301  15.4148  15.6268  17.8356  17.9956
    18.1492  18.5151  18.8125  22.9587

          k = 0.1875 0.1875 0.4375 (  2665 PWs)   bands (ev):

   -70.2736 -67.9563 -36.3511 -36.3104 -36.3040 -34.0904 -34.0524 -34.0456
    13.3844  14.1597  14.8072  15.1397  15.4758  15.9168  17.5837  17.6366
    17.9396  18.9054  19.3229  20.8095

          k = 0.1875 0.3125 0.3125 (  2672 PWs)   bands (ev):

   -70.2732 -67.9556 -36.3359 -36.3317 -36.3057 -34.0738 -34.0679 -34.0492
    13.1005  14.4005  15.0502  15.2094  15.2324  15.3862  17.6730  17.9472
    18.3556  18.8661  19.1204  23.1327

          k = 0.1875 0.3125 0.4375 (  2655 PWs)   bands (ev):

   -70.2718 -67.9544 -36.3512 -36.3334 -36.3031 -34.0856 -34.0690 -34.0483
    13.6933  14.1134  14.9591  15.0933  15.3844  16.0951  17.4152  17.6897
    18.3808  19.0613  19.9919  21.4322

          k = 0.1875 0.4375 0.4375 (  2663 PWs)   bands (ev):

   -70.2705 -67.9530 -36.3517 -36.3510 -36.3007 -34.0828 -34.0817 -34.0487
    13.7005  13.9724  14.8740  14.8981  16.2936  16.5093  17.3601  17.4079
    18.6183  19.2447  20.7192  21.4651

          k = 0.3125 0.3125 0.3125 (  2668 PWs)   bands (ev):

   -70.2713 -67.9538 -36.3319 -36.3290 -36.3290 -34.0716 -34.0716 -34.0691
    13.8448  14.8615  14.8615  14.8697  15.1945  15.1945  17.6393  17.6393
    18.7742  18.7742  19.9860  24.7814

          k = 0.3125 0.3125 0.4375 (  2652 PWs)   bands (ev):

   -70.2700 -67.9525 -36.3470 -36.3304 -36.3241 -34.0859 -34.0742 -34.0673
    14.1269  14.7263  14.7291  14.9634  15.1610  15.9143  17.2949  17.4624
    18.7581  19.1128  21.0776  22.6941

          k = 0.3125 0.4375 0.4375 (  2655 PWs)   bands (ev):

   -70.2688 -67.9511 -36.3443 -36.3438 -36.3229 -34.0863 -34.0863 -34.0721
    14.1687  14.6801  14.7003  14.8338  15.9279  15.9302  17.0812  17.2780
    18.9703  19.2675  22.2674  23.3375

          k = 0.4375 0.4375 0.4375 (  2659 PWs)   bands (ev):

   -70.2676 -67.9498 -36.3399 -36.3382 -36.3382 -34.0896 -34.0896 -34.0878
    14.4502  14.5766  14.5766  15.6562  15.6668  15.6668  17.0142  17.0142
    19.2834  19.2834  23.8795  25.4694

 ------ SPIN DOWN ----------


          k = 0.0625 0.0625 0.0625 (  2656 PWs)   bands (ev):

   -70.2841 -67.9630 -36.3041 -36.3041 -36.3019 -34.0365 -34.0337 -34.0337
     9.5937  13.6862  13.6862  15.9446  15.9446  16.0921  18.0611  18.0611
    18.7457  19.0114  19.0114  27.0667

          k = 0.0625 0.0625 0.1875 (  2667 PWs)   bands (ev):

   -70.2824 -67.9621 -36.3177 -36.3006 -36.2995 -34.0547 -34.0354 -34.0349
    10.2092  13.9057  13.9210  15.8485  15.8814  16.2274  17.8266  18.1524
    18.2713  18.5405  18.9803  24.4419

          k = 0.0625 0.0625 0.3125 (  2677 PWs)   bands (ev):

   -70.2801 -67.9609 -36.3373 -36.2958 -36.2957 -34.0818 -34.0367 -34.0362
    11.3423  14.1240  14.3253  15.7904  15.8010  16.3251  17.4343  17.8420
    17.9668  18.2501  18.7763  21.7373

          k = 0.0625 0.0625 0.4375 (  2674 PWs)   bands (ev):

   -70.2785 -67.9600 -36.3511 -36.2932 -36.2921 -34.1009 -34.0379 -34.0368
    12.7057  13.8859  14.7136  15.7051  15.8550  16.3238  17.0834  17.6016
    17.6454  18.1655  18.5623  20.1465

          k = 0.0625 0.1875 0.1875 (  2675 PWs)   bands (ev):

   -70.2809 -67.9611 -36.3201 -36.3116 -36.2975 -34.0586 -34.0473 -34.0355
    10.7893  14.0588  14.1885  15.6532  15.7473  16.2531  17.8784  17.9613
    18.1114  18.2642  19.0426  24.6263

          k = 0.0625 0.1875 0.3125 (  2675 PWs)   bands (ev):

   -70.2787 -67.9597 -36.3385 -36.3129 -36.2938 -34.0786 -34.0501 -34.0358
    11.8282  14.1879  14.5861  15.5102  15.6434  16.0503  17.6855  17.7577
    18.0753  18.2610  18.9806  22.2344

          k = 0.0625 0.1875 0.4375 (  2676 PWs)   bands (ev):

   -70.2772 -67.9586 -36.3533 -36.3122 -36.2910 -34.0949 -34.0501 -34.0359
    13.0081  13.9195  14.8664  15.4445  15.7797  15.9015  17.4091  17.5864
    18.0315  18.5821  18.8481  20.3110

          k = 0.0625 0.3125 0.3125 (  2672 PWs)   bands (ev):

   -70.2768 -67.9579 -36.3431 -36.3345 -36.2909 -34.0773 -34.0663 -34.0349
    12.5919  14.0321  15.1651  15.2705  15.6299  15.7086  17.5533  18.0756
    18.1643  18.4954  19.1106  22.0204

          k = 0.0625 0.3125 0.4375 (  2660 PWs)   bands (ev):

   -70.2754 -67.9567 -36.3566 -36.3394 -36.2888 -34.0865 -34.0676 -34.0342
    13.2645  13.7161  15.1660  15.3229  15.5643  16.3762  17.3973  18.0914
    18.2451  18.9939  19.1280  20.4306

          k = 0.0625 0.4375 0.4375 (  2663 PWs)   bands (ev):

   -70.2741 -67.9554 -36.3595 -36.3580 -36.2873 -34.0813 -34.0794 -34.0330
    13.3465  13.4985  14.9954  15.0443  16.4755  17.0578  17.6797  18.0044
    18.4153  19.2281  19.4029  20.0141

          k = 0.1875 0.1875 0.1875 (  2671 PWs)   bands (ev):

   -70.2794 -67.9600 -36.3161 -36.3161 -36.3097 -34.0579 -34.0491 -34.0491
    11.3493  14.3324  14.3324  15.5245  15.5245  15.9341  18.0207  18.0207
    18.0363  18.6002  18.6002  25.6136

          k = 0.1875 0.1875 0.3125 (  2667 PWs)   bands (ev):

   -70.2774 -67.9584 -36.3374 -36.3120 -36.3104 -34.0757 -34.0516 -34.0493
    12.3282  14.5442  14.5696  15.3287  15.4135  15.6254  17.8345  17.9941
    18.1481  18.5143  18.8115  22.9578

          k = 0.1875 0.1875 0.4375 (  2665 PWs)   bands (ev):

   -70.2759 -67.9573 -36.3533 -36.3127 -36.3063 -34.0914 -34.0534 -34.0465
    13.3838  14.1587  14.8053  15.1383  15.4745  15.9158  17.5819  17.6358
    17.9382  18.9045  19.3219  20.8085

          k = 0.1875 0.3125 0.3125 (  2672 PWs)   bands (ev):

   -70.2755 -67.9566 -36.3382 -36.3340 -36.3080 -34.0747 -34.0688 -34.0502
    13.1000  14.3991  15.0488  15.2081  15.2309  15.3849  17.6719  17.9459
    18.3543  18.8649  19.1196  23.1319

          k = 0.1875 0.3125 0.4375 (  2655 PWs)   bands (ev):

   -70.2741 -67.9554 -36.3535 -36.3357 -36.3054 -34.0866 -34.0699 -34.0492
    13.6925  14.1123  14.9578  15.0920  15.3828  16.0943  17.4136  17.6885
    18.3794  19.0600  19.9910  21.4313

          k = 0.1875 0.4375 0.4375 (  2663 PWs)   bands (ev):

   -70.2729 -67.9540 -36.3539 -36.3533 -36.3030 -34.0837 -34.0826 -34.0496
    13.6995  13.9713  14.8728  14.8969  16.2920  16.5086  17.3587  17.4065
    18.6169  19.2433  20.7184  21.4643

          k = 0.3125 0.3125 0.3125 (  2668 PWs)   bands (ev):

   -70.2736 -67.9548 -36.3341 -36.3313 -36.3313 -34.0725 -34.0725 -34.0700
    13.8442  14.8601  14.8601  14.8689  15.1930  15.1930  17.6380  17.6380
    18.7729  18.7729  19.9851  24.7806

          k = 0.3125 0.3125 0.4375 (  2652 PWs)   bands (ev):

   -70.2724 -67.9535 -36.3492 -36.3326 -36.3263 -34.0868 -34.0751 -34.0682
    14.1258  14.7255  14.7278  14.9622  15.1596  15.9136  17.2931  17.4609
    18.7567  19.1114  21.0767  22.6933

          k = 0.3125 0.4375 0.4375 (  2655 PWs)   bands (ev):

   -70.2711 -67.9521 -36.3466 -36.3461 -36.3252 -34.0872 -34.0872 -34.0730
    14.1676  14.6789  14.6990  14.8328  15.9270  15.9298  17.0791  17.2762
    18.9689  19.2660  22.2666  23.3368

          k = 0.4375 0.4375 0.4375 (  2659 PWs)   bands (ev):

   -70.2699 -67.9508 -36.3421 -36.3405 -36.3405 -34.0905 -34.0905 -34.0887
    14.4490  14.5753  14.5753  15.6558  15.6661  15.6661  17.0119  17.0119
    19.2820  19.2820  23.8788  25.4687

     the Fermi energy is    18.0198 ev

!    total energy              =    -495.58596478 Ry
     Harris-Foulkes estimate   =    -495.58596503 Ry
     estimated scf accuracy    <       0.00000099 Ry

     The total energy is the sum of the following terms:

     one-electron contribution =    -227.21000560 Ry
     hartree contribution      =     131.77739086 Ry
     xc contribution           =     -55.39189800 Ry
     ewald contribution        =    -344.75849367 Ry
     smearing contrib. (-TS)   =      -0.00295838 Ry

     total magnetization       =    -0.00 Bohr mag/cell
     absolute magnetization    =     4.03 Bohr mag/cell

     convergence has been achieved in   9 iterations

     Writing output data file fe-100.save/

     init_run     :      0.68s CPU      0.70s WALL (       1 calls)
     electrons    :     15.30s CPU     15.86s WALL (       1 calls)

     Called by init_run:
     wfcinit      :      0.42s CPU      0.43s WALL (       1 calls)
     potinit      :      0.03s CPU      0.03s WALL (       1 calls)
     hinit0       :      0.20s CPU      0.21s WALL (       1 calls)

     Called by electrons:
     c_bands      :     12.84s CPU     13.35s WALL (      10 calls)
     sum_band     :      2.13s CPU      2.17s WALL (      10 calls)
     v_of_rho     :      0.13s CPU      0.13s WALL (      10 calls)
     newd         :      0.20s CPU      0.21s WALL (      10 calls)
     mix_rho      :      0.01s CPU      0.01s WALL (      10 calls)

     Called by c_bands:
     init_us_2    :      0.15s CPU      0.15s WALL (     840 calls)
     cegterg      :     12.28s CPU     12.77s WALL (     400 calls)

     Called by sum_band:
     sum_band:bec :      0.01s CPU      0.01s WALL (     400 calls)
     addusdens    :      0.32s CPU      0.31s WALL (      10 calls)

     Called by *egterg:
     h_psi        :      8.22s CPU      8.61s WALL (    1515 calls)
     s_psi        :      0.52s CPU      0.54s WALL (    1515 calls)
     g_psi        :      0.05s CPU      0.05s WALL (    1075 calls)
     cdiaghg      :      0.99s CPU      1.01s WALL (    1435 calls)

     Called by h_psi:
     h_psi:pot    :      8.19s CPU      8.59s WALL (    1515 calls)
     h_psi:calbec :      0.75s CPU      0.79s WALL (    1515 calls)
     vloc_psi     :      6.92s CPU      7.25s WALL (    1515 calls)
     add_vuspsi   :      0.52s CPU      0.55s WALL (    1515 calls)

     General routines
     calbec       :      1.05s CPU      1.11s WALL (    1915 calls)
     fft          :      0.06s CPU      0.07s WALL (     210 calls)
     ffts         :      0.00s CPU      0.00s WALL (      20 calls)
     fftw         :      7.71s CPU      8.05s WALL (   50540 calls)

     Parallel routines
     fft_scatt_xy :      0.45s CPU      0.46s WALL (   50770 calls)
     fft_scatt_yz :      3.78s CPU      3.94s WALL (   50770 calls)

     PWSCF        :     17.38s CPU     18.01s WALL


   This run was terminated on:  10:17:57  17Mar2022            

=------------------------------------------------------------------------------=
   JOB DONE.
=------------------------------------------------------------------------------=
