
     Program PWSCF v.6.4.1 starts on 17Mar2022 at 10:16:37 

     This program is part of the open-source Quantum ESPRESSO suite
     for quantum simulation of materials; please cite
         "P. Giannozzi et al., J. Phys.:Condens. Matter 21 395502 (2009);
         "P. Giannozzi et al., J. Phys.:Condens. Matter 29 465901 (2017);
          URL http://www.quantum-espresso.org", 
     in publications or presentations arising from this work. More details at
     http://www.quantum-espresso.org/quote

     Parallel version (MPI), running on     6 processors

     MPI processes distributed on     1 nodes
     R & G space division:  proc/nbgrp/npool/nimage =       6
     Reading input from fe-80.in

     Current dimensions of program PWSCF are:
     Max number of different atomic species (ntypx) = 10
     Max number of k-points (npk) =  40000
     Max angular momentum in pseudopotentials (lmaxx) =  3

     Subspace diagonalization in iterative solution of the eigenvalue problem:
     a serial algorithm will be used

     Message from routine setup:
     DEPRECATED: symmetry with ibrav=0, use correct ibrav instead

     Parallelization info
     --------------------
     sticks:   dense  smooth     PW     G-vecs:    dense   smooth      PW
     Min         124     124     36                 2544     2544     418
     Max         125     125     37                 2547     2547     421
     Sum         749     749    221                15275    15275    2517



     bravais-lattice index     =            0
     lattice parameter (alat)  =       5.4046  a.u.
     unit-cell volume          =     157.8682 (a.u.)^3
     number of atoms/cell      =            2
     number of atomic types    =            2
     number of electrons       =        32.00
     number of Kohn-Sham states=           20
     kinetic-energy cutoff     =      80.0000  Ry
     charge density cutoff     =     320.0000  Ry
     convergence threshold     =      1.0E-06
     mixing beta               =       0.7000
     number of iterations used =            8  plain     mixing
     Exchange-correlation      = PBE ( 1  4  3  4 0 0)

     celldm(1)=   5.404617  celldm(2)=   0.000000  celldm(3)=   0.000000
     celldm(4)=   0.000000  celldm(5)=   0.000000  celldm(6)=   0.000000

     crystal axes: (cart. coord. in units of alat)
               a(1) = (   1.000000   0.000000   0.000000 )  
               a(2) = (   0.000000   1.000000   0.000000 )  
               a(3) = (   0.000000   0.000000   1.000000 )  

     reciprocal axes: (cart. coord. in units 2 pi/alat)
               b(1) = (  1.000000  0.000000  0.000000 )  
               b(2) = (  0.000000  1.000000  0.000000 )  
               b(3) = (  0.000000  0.000000  1.000000 )  


     PseudoPot. # 1 for Fe read from file:
     /home/cristian/Escritorio/Proyecto_Grafeno/pseudopotenciales/Fe.pbe-spn-rrkjus_psl.1.0.0.UPF
     MD5 check sum: 72ea77fed8e64ab3a2ccf2804dfc1862
     Pseudo is Ultrasoft + core correction, Zval = 16.0
     Generated using "atomic" code by A. Dal Corso v.6.3
     Using radial grid of 1191 points,  6 beta functions with: 
                l(1) =   0
                l(2) =   0
                l(3) =   1
                l(4) =   1
                l(5) =   2
                l(6) =   2
     Q(r) pseudized with 0 coefficients 


     PseudoPot. # 2 for Fe read from file:
     /home/cristian/Escritorio/Proyecto_Grafeno/pseudopotenciales/Fe.pbe-spn-rrkjus_psl.1.0.0.UPF
     MD5 check sum: 72ea77fed8e64ab3a2ccf2804dfc1862
     Pseudo is Ultrasoft + core correction, Zval = 16.0
     Generated using "atomic" code by A. Dal Corso v.6.3
     Using radial grid of 1191 points,  6 beta functions with: 
                l(1) =   0
                l(2) =   0
                l(3) =   1
                l(4) =   1
                l(5) =   2
                l(6) =   2
     Q(r) pseudized with 0 coefficients 


     atomic species   valence    mass     pseudopotential
        Fe1           16.00    55.84500     Fe( 1.00)
        Fe2           16.00    55.84500     Fe( 1.00)

     Starting magnetic structure 
     atomic species   magnetization
        Fe1          0.100
        Fe2         -0.100

     48 Sym. Ops., with inversion, found



   Cartesian axes

     site n.     atom                  positions (alat units)
         1           Fe1 tau(   1) = (   0.0000000   0.0000000   0.0000000  )
         2           Fe2 tau(   2) = (   0.5000000   0.5000000   0.5000000  )

     number of k points=    20  Methfessel-Paxton smearing, width (Ry)=  0.0300
                       cart. coord. in units 2pi/alat
        k(    1) = (   0.0625000   0.0625000   0.0625000), wk =   0.0156250
        k(    2) = (   0.0625000   0.0625000   0.1875000), wk =   0.0468750
        k(    3) = (   0.0625000   0.0625000   0.3125000), wk =   0.0468750
        k(    4) = (   0.0625000   0.0625000   0.4375000), wk =   0.0468750
        k(    5) = (   0.0625000   0.1875000   0.1875000), wk =   0.0468750
        k(    6) = (   0.0625000   0.1875000   0.3125000), wk =   0.0937500
        k(    7) = (   0.0625000   0.1875000   0.4375000), wk =   0.0937500
        k(    8) = (   0.0625000   0.3125000   0.3125000), wk =   0.0468750
        k(    9) = (   0.0625000   0.3125000   0.4375000), wk =   0.0937500
        k(   10) = (   0.0625000   0.4375000   0.4375000), wk =   0.0468750
        k(   11) = (   0.1875000   0.1875000   0.1875000), wk =   0.0156250
        k(   12) = (   0.1875000   0.1875000   0.3125000), wk =   0.0468750
        k(   13) = (   0.1875000   0.1875000   0.4375000), wk =   0.0468750
        k(   14) = (   0.1875000   0.3125000   0.3125000), wk =   0.0468750
        k(   15) = (   0.1875000   0.3125000   0.4375000), wk =   0.0937500
        k(   16) = (   0.1875000   0.4375000   0.4375000), wk =   0.0468750
        k(   17) = (   0.3125000   0.3125000   0.3125000), wk =   0.0156250
        k(   18) = (   0.3125000   0.3125000   0.4375000), wk =   0.0468750
        k(   19) = (   0.3125000   0.4375000   0.4375000), wk =   0.0468750
        k(   20) = (   0.4375000   0.4375000   0.4375000), wk =   0.0156250

     Dense  grid:    15275 G-vectors     FFT dimensions: (  32,  32,  32)

     Estimated max dynamical RAM per process >      16.50 MB

     Estimated total dynamical RAM >      99.01 MB
     Generating pointlists ...
     new r_m :   0.3572 (alat units)  1.9307 (a.u.) for type    1
     new r_m :   0.3572 (alat units)  1.9307 (a.u.) for type    2

     Check: negative core charge=   -0.000008

     Initial potential from superposition of free atoms

     starting charge   31.99912, renormalised to   32.00000
     Starting wfcs are   20 randomized atomic wfcs

     total cpu time spent up to now is        1.9 secs

     Self-consistent Calculation

     iteration #  1     ecut=    80.00 Ry     beta= 0.70
     Davidson diagonalization with overlap
     ethr =  1.00E-02,  avg # of iterations =  3.2

     Threshold (ethr) on eigenvalues was too large:
     Diagonalizing with lowered threshold

     Davidson diagonalization with overlap
     ethr =  1.62E-04,  avg # of iterations =  2.0

     total cpu time spent up to now is        3.6 secs

     total energy              =    -495.54678228 Ry
     Harris-Foulkes estimate   =    -495.57989910 Ry
     estimated scf accuracy    <       0.05598100 Ry

     total magnetization       =    -0.00 Bohr mag/cell
     absolute magnetization    =     3.04 Bohr mag/cell

     iteration #  2     ecut=    80.00 Ry     beta= 0.70
     Davidson diagonalization with overlap
     ethr =  1.75E-04,  avg # of iterations =  3.0

     total cpu time spent up to now is        4.8 secs

     total energy              =    -495.54616368 Ry
     Harris-Foulkes estimate   =    -495.61511413 Ry
     estimated scf accuracy    <       0.18994009 Ry

     total magnetization       =    -0.00 Bohr mag/cell
     absolute magnetization    =     3.39 Bohr mag/cell

     iteration #  3     ecut=    80.00 Ry     beta= 0.70
     Davidson diagonalization with overlap
     ethr =  1.75E-04,  avg # of iterations =  3.0

     total cpu time spent up to now is        5.9 secs

     total energy              =    -495.57924475 Ry
     Harris-Foulkes estimate   =    -495.57769968 Ry
     estimated scf accuracy    <       0.00182192 Ry

     total magnetization       =     0.00 Bohr mag/cell
     absolute magnetization    =     3.34 Bohr mag/cell

     iteration #  4     ecut=    80.00 Ry     beta= 0.70
     Davidson diagonalization with overlap
     ethr =  5.69E-06,  avg # of iterations =  2.6

     total cpu time spent up to now is        6.8 secs

     total energy              =    -495.57939043 Ry
     Harris-Foulkes estimate   =    -495.58101302 Ry
     estimated scf accuracy    <       0.01887244 Ry

     total magnetization       =    -0.13 Bohr mag/cell
     absolute magnetization    =     3.55 Bohr mag/cell

     iteration #  5     ecut=    80.00 Ry     beta= 0.70
     Davidson diagonalization with overlap
     ethr =  5.69E-06,  avg # of iterations =  2.4

     total cpu time spent up to now is        7.6 secs

     total energy              =    -495.58025227 Ry
     Harris-Foulkes estimate   =    -495.58049528 Ry
     estimated scf accuracy    <       0.00232763 Ry

     total magnetization       =     0.04 Bohr mag/cell
     absolute magnetization    =     3.56 Bohr mag/cell

     iteration #  6     ecut=    80.00 Ry     beta= 0.70
     Davidson diagonalization with overlap
     ethr =  5.69E-06,  avg # of iterations =  2.8

     total cpu time spent up to now is        8.4 secs

     total energy              =    -495.58164963 Ry
     Harris-Foulkes estimate   =    -495.58161738 Ry
     estimated scf accuracy    <       0.00011317 Ry

     total magnetization       =     0.00 Bohr mag/cell
     absolute magnetization    =     3.84 Bohr mag/cell

     iteration #  7     ecut=    80.00 Ry     beta= 0.70
     Davidson diagonalization with overlap
     ethr =  3.54E-07,  avg # of iterations =  2.5

     total cpu time spent up to now is        9.3 secs

     total energy              =    -495.58165794 Ry
     Harris-Foulkes estimate   =    -495.58170399 Ry
     estimated scf accuracy    <       0.00005030 Ry

     total magnetization       =     0.00 Bohr mag/cell
     absolute magnetization    =     3.90 Bohr mag/cell

     iteration #  8     ecut=    80.00 Ry     beta= 0.70
     Davidson diagonalization with overlap
     ethr =  1.57E-07,  avg # of iterations =  3.0

     total cpu time spent up to now is       10.4 secs

     total energy              =    -495.58180478 Ry
     Harris-Foulkes estimate   =    -495.58181559 Ry
     estimated scf accuracy    <       0.00001462 Ry

     total magnetization       =    -0.00 Bohr mag/cell
     absolute magnetization    =     3.99 Bohr mag/cell

     iteration #  9     ecut=    80.00 Ry     beta= 0.70
     Davidson diagonalization with overlap
     ethr =  4.57E-08,  avg # of iterations =  2.9

     total cpu time spent up to now is       11.3 secs

     total energy              =    -495.58182520 Ry
     Harris-Foulkes estimate   =    -495.58182637 Ry
     estimated scf accuracy    <       0.00000129 Ry

     total magnetization       =     0.00 Bohr mag/cell
     absolute magnetization    =     4.03 Bohr mag/cell

     iteration # 10     ecut=    80.00 Ry     beta= 0.70
     Davidson diagonalization with overlap
     ethr =  4.02E-09,  avg # of iterations =  3.0

     Magnetic moment per site:
     atom:    1    charge:   14.4138    magn:    1.9457    constr:    0.0000
     atom:    2    charge:   14.4145    magn:   -1.9427    constr:    0.0000

     total cpu time spent up to now is       12.2 secs

     End of self-consistent calculation

 ------ SPIN UP ------------


          k = 0.0625 0.0625 0.0625 (  1893 PWs)   bands (ev):

   -70.2856 -67.9598 -36.3038 -36.3038 -36.3015 -34.0317 -34.0290 -34.0290
     9.5948  13.6896  13.6896  15.9469  15.9469  16.0942  18.0651  18.0651
    18.7527  19.0184  19.0184  27.0679

          k = 0.0625 0.0625 0.1875 (  1910 PWs)   bands (ev):

   -70.2839 -67.9590 -36.3175 -36.3004 -36.2993 -34.0500 -34.0307 -34.0303
    10.2102  13.9090  13.9242  15.8507  15.8835  16.2291  17.8305  18.1567
    18.2779  18.5468  18.9868  24.4435

          k = 0.0625 0.0625 0.3125 (  1916 PWs)   bands (ev):

   -70.2816 -67.9577 -36.3371 -36.2956 -36.2955 -34.0772 -34.0321 -34.0315
    11.3434  14.1270  14.3286  15.7920  15.8027  16.3267  17.4378  17.8483
    17.9732  18.2541  18.7831  21.7398

          k = 0.0625 0.0625 0.4375 (  1906 PWs)   bands (ev):

   -70.2800 -67.9568 -36.3507 -36.2930 -36.2920 -34.0961 -34.0333 -34.0320
    12.7072  13.8880  14.7171  15.7066  15.8565  16.3258  17.0867  17.6083
    17.6508  18.1701  18.5696  20.1504

          k = 0.0625 0.1875 0.1875 (  1902 PWs)   bands (ev):

   -70.2824 -67.9579 -36.3198 -36.3114 -36.2972 -34.0540 -34.0425 -34.0308
    10.7904  14.0622  14.1920  15.6555  15.7491  16.2544  17.8830  17.9676
    18.1154  18.2707  19.0491  24.6282

          k = 0.0625 0.1875 0.3125 (  1913 PWs)   bands (ev):

   -70.2802 -67.9565 -36.3383 -36.3127 -36.2936 -34.0739 -34.0454 -34.0313
    11.8294  14.1910  14.5894  15.5122  15.6453  16.0521  17.6913  17.7614
    18.0815  18.2654  18.9868  22.2369

          k = 0.0625 0.1875 0.4375 (  1911 PWs)   bands (ev):

   -70.2787 -67.9555 -36.3530 -36.3120 -36.2909 -34.0901 -34.0454 -34.0313
    13.0098  13.9216  14.8698  15.4463  15.7819  15.9037  17.4144  17.5898
    18.0367  18.5877  18.8541  20.3147

          k = 0.0625 0.3125 0.3125 (  1896 PWs)   bands (ev):

   -70.2782 -67.9547 -36.3426 -36.3340 -36.2907 -34.0724 -34.0614 -34.0303
    12.5935  14.0352  15.1683  15.2731  15.6319  15.7110  17.5593  18.0793
    18.1687  18.5019  19.1165  22.0230

          k = 0.0625 0.3125 0.4375 (  1907 PWs)   bands (ev):

   -70.2769 -67.9535 -36.3563 -36.3390 -36.2887 -34.0818 -34.0628 -34.0296
    13.2666  13.7186  15.1683  15.3254  15.5676  16.3785  17.4025  18.0953
    18.2493  18.9998  19.1333  20.4341

          k = 0.0625 0.4375 0.4375 (  1922 PWs)   bands (ev):

   -70.2756 -67.9522 -36.3591 -36.3577 -36.2873 -34.0766 -34.0747 -34.0285
    13.3485  13.5018  14.9976  15.0465  16.4792  17.0609  17.6836  18.0075
    18.4187  19.2332  19.4079  20.0179

          k = 0.1875 0.1875 0.1875 (  1911 PWs)   bands (ev):

   -70.2809 -67.9568 -36.3158 -36.3158 -36.3096 -34.0533 -34.0444 -34.0444
    11.3504  14.3359  14.3359  15.5264  15.5264  15.9360  18.0250  18.0250
    18.0426  18.6059  18.6059  25.6157

          k = 0.1875 0.1875 0.3125 (  1902 PWs)   bands (ev):

   -70.2789 -67.9552 -36.3370 -36.3117 -36.3101 -34.0710 -34.0468 -34.0446
    12.3294  14.5473  14.5732  15.3307  15.4158  15.6279  17.8398  17.9988
    18.1526  18.5202  18.8169  22.9606

          k = 0.1875 0.1875 0.4375 (  1914 PWs)   bands (ev):

   -70.2774 -67.9541 -36.3530 -36.3125 -36.3061 -34.0866 -34.0487 -34.0419
    13.3854  14.1609  14.8090  15.1401  15.4767  15.9188  17.5863  17.6420
    17.9417  18.9101  19.3265  20.8122

          k = 0.1875 0.3125 0.3125 (  1908 PWs)   bands (ev):

   -70.2770 -67.9535 -36.3378 -36.3337 -36.3078 -34.0700 -34.0641 -34.0455
    13.1015  14.4021  15.0509  15.2100  15.2346  15.3880  17.6776  17.9510
    18.3580  18.8697  19.1248  23.1347

          k = 0.1875 0.3125 0.4375 (  1899 PWs)   bands (ev):

   -70.2756 -67.9522 -36.3531 -36.3352 -36.3051 -34.0818 -34.0650 -34.0445
    13.6943  14.1155  14.9597  15.0946  15.3861  16.0979  17.4187  17.6940
    18.3833  19.0650  19.9955  21.4350

          k = 0.1875 0.4375 0.4375 (  1908 PWs)   bands (ev):

   -70.2743 -67.9508 -36.3536 -36.3530 -36.3027 -34.0790 -34.0779 -34.0449
    13.7011  13.9752  14.8748  14.8990  16.2958  16.5121  17.3631  17.4118
    18.6207  19.2479  20.7223  21.4679

          k = 0.3125 0.3125 0.3125 (  1908 PWs)   bands (ev):

   -70.2751 -67.9516 -36.3339 -36.3310 -36.3310 -34.0678 -34.0678 -34.0654
    13.8454  14.8617  14.8617  14.8720  15.1972  15.1972  17.6435  17.6435
    18.7771  18.7771  19.9896  24.7832

          k = 0.3125 0.3125 0.4375 (  1899 PWs)   bands (ev):

   -70.2738 -67.9503 -36.3488 -36.3324 -36.3260 -34.0820 -34.0703 -34.0635
    14.1273  14.7290  14.7294  14.9639  15.1642  15.9180  17.2980  17.4667
    18.7609  19.1159  21.0805  22.6965

          k = 0.3125 0.4375 0.4375 (  1897 PWs)   bands (ev):

   -70.2726 -67.9489 -36.3462 -36.3457 -36.3248 -34.0824 -34.0824 -34.0681
    14.1691  14.6810  14.7007  14.8367  15.9315  15.9344  17.0838  17.2815
    18.9733  19.2706  22.2700  23.3396

          k = 0.4375 0.4375 0.4375 (  1881 PWs)   bands (ev):

   -70.2713 -67.9475 -36.3417 -36.3401 -36.3401 -34.0856 -34.0856 -34.0838
    14.4506  14.5769  14.5769  15.6608  15.6714  15.6714  17.0169  17.0169
    19.2868  19.2868  23.8815  25.4710

 ------ SPIN DOWN ----------


          k = 0.0625 0.0625 0.0625 (  1893 PWs)   bands (ev):

   -70.2840 -67.9586 -36.3023 -36.3023 -36.3000 -34.0306 -34.0278 -34.0278
     9.5952  13.6911  13.6911  15.9479  15.9479  16.0952  18.0668  18.0668
    18.7534  19.0191  19.0191  27.0684

          k = 0.0625 0.0625 0.1875 (  1910 PWs)   bands (ev):

   -70.2824 -67.9578 -36.3159 -36.2989 -36.2978 -34.0489 -34.0295 -34.0292
    10.2106  13.9104  13.9257  15.8516  15.8844  16.2301  17.8321  18.1583
    18.2785  18.5475  18.9876  24.4442

          k = 0.0625 0.0625 0.3125 (  1916 PWs)   bands (ev):

   -70.2801 -67.9565 -36.3356 -36.2941 -36.2940 -34.0761 -34.0309 -34.0304
    11.3439  14.1282  14.3302  15.7930  15.8037  16.3278  17.4393  17.8490
    17.9739  18.2556  18.7838  21.7408

          k = 0.0625 0.0625 0.4375 (  1906 PWs)   bands (ev):

   -70.2785 -67.9556 -36.3492 -36.2915 -36.2905 -34.0950 -34.0322 -34.0309
    12.7078  13.8888  14.7188  15.7077  15.8575  16.3268  17.0881  17.6089
    17.6518  18.1713  18.5702  20.1518

          k = 0.0625 0.1875 0.1875 (  1902 PWs)   bands (ev):

   -70.2809 -67.9567 -36.3182 -36.3099 -36.2957 -34.0528 -34.0414 -34.0296
    10.7908  14.0637  14.1934  15.6564  15.7501  16.2555  17.8844  17.9683
    18.1171  18.2714  19.0499  24.6289

          k = 0.0625 0.1875 0.3125 (  1913 PWs)   bands (ev):

   -70.2787 -67.9553 -36.3368 -36.3112 -36.2921 -34.0728 -34.0443 -34.0301
    11.8298  14.1923  14.5909  15.5132  15.6463  16.0532  17.6922  17.7628
    18.0822  18.2668  18.9876  22.2379

          k = 0.0625 0.1875 0.4375 (  1911 PWs)   bands (ev):

   -70.2772 -67.9543 -36.3515 -36.3105 -36.2893 -34.0890 -34.0443 -34.0302
    13.0104  13.9225  14.8714  15.4473  15.7829  15.9047  17.4155  17.5911
    18.0377  18.5885  18.8550  20.3160

          k = 0.0625 0.3125 0.3125 (  1896 PWs)   bands (ev):

   -70.2767 -67.9535 -36.3411 -36.3325 -36.2892 -34.0713 -34.0603 -34.0291
    12.5940  14.0363  15.1697  15.2741  15.6329  15.7121  17.5602  18.0807
    18.1702  18.5026  19.1174  22.0239

          k = 0.0625 0.3125 0.4375 (  1907 PWs)   bands (ev):

   -70.2754 -67.9523 -36.3548 -36.3375 -36.2872 -34.0807 -34.0616 -34.0285
    13.2674  13.7195  15.1692  15.3263  15.5690  16.3794  17.4037  18.0966
    18.2504  19.0005  19.1343  20.4352

          k = 0.0625 0.4375 0.4375 (  1922 PWs)   bands (ev):

   -70.2741 -67.9510 -36.3576 -36.3562 -36.2858 -34.0755 -34.0736 -34.0274
    13.3493  13.5027  14.9985  15.0473  16.4809  17.0621  17.6843  18.0084
    18.4202  19.2344  19.4087  20.0189

          k = 0.1875 0.1875 0.1875 (  1911 PWs)   bands (ev):

   -70.2794 -67.9556 -36.3143 -36.3143 -36.3081 -34.0522 -34.0433 -34.0433
    11.3508  14.3374  14.3374  15.5273  15.5273  15.9370  18.0265  18.0265
    18.0432  18.6067  18.6067  25.6164

          k = 0.1875 0.1875 0.3125 (  1902 PWs)   bands (ev):

   -70.2774 -67.9540 -36.3355 -36.3102 -36.3086 -34.0698 -34.0457 -34.0435
    12.3299  14.5485  14.5747  15.3317  15.4168  15.6288  17.8410  18.0001
    18.1538  18.5210  18.8179  22.9615

          k = 0.1875 0.1875 0.4375 (  1914 PWs)   bands (ev):

   -70.2759 -67.9529 -36.3515 -36.3110 -36.3046 -34.0854 -34.0475 -34.0408
    13.3860  14.1617  14.8105  15.1411  15.4776  15.9197  17.5878  17.6429
    17.9431  18.9111  19.3275  20.8133

          k = 0.1875 0.3125 0.3125 (  1908 PWs)   bands (ev):

   -70.2755 -67.9522 -36.3363 -36.3322 -36.3063 -34.0688 -34.0629 -34.0444
    13.1020  14.4032  15.0520  15.2109  15.2358  15.3890  17.6786  17.9522
    18.3594  18.8710  19.1256  23.1355

          k = 0.1875 0.3125 0.4375 (  1899 PWs)   bands (ev):

   -70.2741 -67.9509 -36.3516 -36.3337 -36.3036 -34.0806 -34.0639 -34.0434
    13.6950  14.1164  14.9607  15.0955  15.3874  16.0987  17.4200  17.6951
    18.3848  19.0663  19.9963  21.4358

          k = 0.1875 0.4375 0.4375 (  1908 PWs)   bands (ev):

   -70.2728 -67.9496 -36.3521 -36.3515 -36.3012 -34.0779 -34.0768 -34.0437
    13.7019  13.9761  14.8757  14.8999  16.2971  16.5127  17.3643  17.4131
    18.6222  19.2494  20.7231  21.4686

          k = 0.3125 0.3125 0.3125 (  1908 PWs)   bands (ev):

   -70.2736 -67.9504 -36.3324 -36.3294 -36.3294 -34.0666 -34.0666 -34.0643
    13.8460  14.8627  14.8627  14.8727  15.1984  15.1984  17.6447  17.6447
    18.7785  18.7785  19.9904  24.7840

          k = 0.3125 0.3125 0.4375 (  1899 PWs)   bands (ev):

   -70.2723 -67.9490 -36.3473 -36.3309 -36.3245 -34.0808 -34.0691 -34.0624
    14.1281  14.7297  14.7303  14.9648  15.1654  15.9187  17.2994  17.4679
    18.7624  19.1174  21.0813  22.6973

          k = 0.3125 0.4375 0.4375 (  1897 PWs)   bands (ev):

   -70.2711 -67.9477 -36.3447 -36.3442 -36.3233 -34.0813 -34.0813 -34.0670
    14.1699  14.6819  14.7016  14.8376  15.9323  15.9349  17.0855  17.2830
    18.9748  19.2723  22.2707  23.3403

          k = 0.4375 0.4375 0.4375 (  1881 PWs)   bands (ev):

   -70.2698 -67.9463 -36.3402 -36.3386 -36.3386 -34.0844 -34.0844 -34.0826
    14.4515  14.5778  14.5778  15.6613  15.6721  15.6721  17.0187  17.0187
    19.2885  19.2885  23.8821  25.4716

     the Fermi energy is    18.0246 ev

!    total energy              =    -495.58182675 Ry
     Harris-Foulkes estimate   =    -495.58182689 Ry
     estimated scf accuracy    <       0.00000019 Ry

     The total energy is the sum of the following terms:

     one-electron contribution =    -227.19144219 Ry
     hartree contribution      =     131.75893163 Ry
     xc contribution           =     -55.38784741 Ry
     ewald contribution        =    -344.75849367 Ry
     smearing contrib. (-TS)   =      -0.00297511 Ry

     total magnetization       =     0.00 Bohr mag/cell
     absolute magnetization    =     4.03 Bohr mag/cell

     convergence has been achieved in  10 iterations

     Writing output data file fe-80.save/

     init_run     :      0.45s CPU      0.46s WALL (       1 calls)
     electrons    :     10.15s CPU     10.35s WALL (       1 calls)

     Called by init_run:
     wfcinit      :      0.24s CPU      0.24s WALL (       1 calls)
     potinit      :      0.02s CPU      0.02s WALL (       1 calls)
     hinit0       :      0.17s CPU      0.17s WALL (       1 calls)

     Called by electrons:
     c_bands      :      8.60s CPU      8.78s WALL (      11 calls)
     sum_band     :      1.28s CPU      1.30s WALL (      11 calls)
     v_of_rho     :      0.10s CPU      0.10s WALL (      11 calls)
     newd         :      0.17s CPU      0.18s WALL (      11 calls)
     mix_rho      :      0.01s CPU      0.01s WALL (      11 calls)

     Called by c_bands:
     init_us_2    :      0.12s CPU      0.12s WALL (     920 calls)
     cegterg      :      8.15s CPU      8.32s WALL (     440 calls)

     Called by sum_band:
     sum_band:bec :      0.01s CPU      0.01s WALL (     440 calls)
     addusdens    :      0.28s CPU      0.28s WALL (      11 calls)

     Called by *egterg:
     h_psi        :      4.36s CPU      4.47s WALL (    1695 calls)
     s_psi        :      0.44s CPU      0.45s WALL (    1695 calls)
     g_psi        :      0.04s CPU      0.04s WALL (    1215 calls)
     cdiaghg      :      1.15s CPU      1.16s WALL (    1615 calls)

     Called by h_psi:
     h_psi:pot    :      4.34s CPU      4.45s WALL (    1695 calls)
     h_psi:calbec :      0.66s CPU      0.67s WALL (    1695 calls)
     vloc_psi     :      3.24s CPU      3.31s WALL (    1695 calls)
     add_vuspsi   :      0.44s CPU      0.46s WALL (    1695 calls)

     General routines
     calbec       :      0.89s CPU      0.91s WALL (    2135 calls)
     fft          :      0.04s CPU      0.04s WALL (     231 calls)
     ffts         :      0.00s CPU      0.00s WALL (      22 calls)
     fftw         :      3.37s CPU      3.44s WALL (   55724 calls)

     Parallel routines
     fft_scatt_xy :      0.42s CPU      0.43s WALL (   55977 calls)
     fft_scatt_yz :      1.80s CPU      1.84s WALL (   55977 calls)

     PWSCF        :     12.06s CPU     12.30s WALL


   This run was terminated on:  10:16:49  17Mar2022            

=------------------------------------------------------------------------------=
   JOB DONE.
=------------------------------------------------------------------------------=
