
     Program PWSCF v.6.4.1 starts on 20Jul2022 at  6: 8:32 

     This program is part of the open-source Quantum ESPRESSO suite
     for quantum simulation of materials; please cite
         "P. Giannozzi et al., J. Phys.:Condens. Matter 21 395502 (2009);
         "P. Giannozzi et al., J. Phys.:Condens. Matter 29 465901 (2017);
          URL http://www.quantum-espresso.org", 
     in publications or presentations arising from this work. More details at
     http://www.quantum-espresso.org/quote

     Parallel version (MPI), running on     6 processors

     MPI processes distributed on     1 nodes
     R & G space division:  proc/nbgrp/npool/nimage =       6
     Reading input from distance-3.0.in

     Current dimensions of program PWSCF are:
     Max number of different atomic species (ntypx) = 10
     Max number of k-points (npk) =  40000
     Max angular momentum in pseudopotentials (lmaxx) =  3

     IMPORTANT: XC functional enforced from input :
     Exchange-correlation      = RVV10 ( 1  4 13  4 3 0)
     Any further DFT definition will be discarded
     Please, verify this is what you really want

               file H.pbe-rrkjus.UPF: wavefunction(s)  1S renormalized
               file Cr.pbe-spn-rrkjus_psl.1.0.0.UPF: wavefunction(s)  3P renormalized

     Subspace diagonalization in iterative solution of the eigenvalue problem:
     a serial algorithm will be used


     Parallelization info
     --------------------
     sticks:   dense  smooth     PW     G-vecs:    dense   smooth      PW
     Min        3051    1746    432               270999   117096   14629
     Max        3053    1747    437               271001   117099   14630
     Sum       18313   10477   2611              1626001   702581   87777



     bravais-lattice index     =            4
     lattice parameter (alat)  =      23.2937  a.u.
     unit-cell volume          =    8879.8548 (a.u.)^3
     number of atoms/cell      =           52
     number of atomic types    =            3
     number of electrons       =       212.00
     number of Kohn-Sham states=          127
     kinetic-energy cutoff     =      70.0000  Ry
     charge density cutoff     =     490.0000  Ry
     convergence threshold     =      1.0E-06
     mixing beta               =       0.7000
     number of iterations used =            8  plain     mixing
     Exchange-correlation      = RVV10 ( 1  4 13  4 3 0)

     celldm(1)=  23.293684  celldm(2)=   0.000000  celldm(3)=   0.811261
     celldm(4)=   0.000000  celldm(5)=   0.000000  celldm(6)=   0.000000

     crystal axes: (cart. coord. in units of alat)
               a(1) = (   1.000000   0.000000   0.000000 )  
               a(2) = (  -0.500000   0.866025   0.000000 )  
               a(3) = (   0.000000   0.000000   0.811261 )  

     reciprocal axes: (cart. coord. in units 2 pi/alat)
               b(1) = (  1.000000  0.577350 -0.000000 )  
               b(2) = (  0.000000  1.154701  0.000000 )  
               b(3) = (  0.000000 -0.000000  1.232649 )  


     PseudoPot. # 1 for H  read from file:
     /home/cristian/Escritorio/Proyecto_Grafeno/pseudopotenciales/H.pbe-rrkjus.UPF
     MD5 check sum: 7cc9d459525c9a0585f487a71c3c9563
     Pseudo is Ultrasoft, Zval =  1.0
     Generated by new atomic code, or converted to UPF format
     Using radial grid of 1061 points,  2 beta functions with: 
                l(1) =   0
                l(2) =   0
     Q(r) pseudized with 0 coefficients 


     PseudoPot. # 2 for C  read from file:
     /home/cristian/Escritorio/Proyecto_Grafeno/pseudopotenciales/C.pbe-n-rrkjus_psl.1.0.0.UPF
     MD5 check sum: 1fdd950c42eb37d8afe3dd2f8d12311e
     Pseudo is Ultrasoft + core correction, Zval =  4.0
     Generated using "atomic" code by A. Dal Corso v.6.3MaX
     Using radial grid of 1073 points,  4 beta functions with: 
                l(1) =   0
                l(2) =   0
                l(3) =   1
                l(4) =   1
     Q(r) pseudized with 0 coefficients 


     PseudoPot. # 3 for Cr read from file:
     /home/cristian/Escritorio/Proyecto_Grafeno/pseudopotenciales/Cr.pbe-spn-rrkjus_psl.1.0.0.UPF
     MD5 check sum: 793d051e4f89dd1e3290b85340a92c0a
     Pseudo is Ultrasoft + core correction, Zval = 14.0
     Generated using "atomic" code by A. Dal Corso v.6.2.2
     Using radial grid of 1183 points,  6 beta functions with: 
                l(1) =   0
                l(2) =   0
                l(3) =   1
                l(4) =   1
                l(5) =   2
                l(6) =   2
     Q(r) pseudized with 0 coefficients 


     vdW kernel table read from file rVV10_kernel_table
     MD5 check sum: b8e2538accc0c0b3206b45ba4daaba6c

     atomic species   valence    mass     pseudopotential
        H              1.00     1.00794     H ( 1.00)
        C              4.00    12.01070     C ( 1.00)
        Cr            14.00    51.99610     Cr( 1.00)

     No symmetry found


                                    s                        frac. trans.

      isym =  1     identity                                     

 cryst.   s( 1) = (     1          0          0      )
                  (     0          1          0      )
                  (     0          0          1      )

 cart.    s( 1) = (  1.0000000  0.0000000  0.0000000 )
                  (  0.0000000  1.0000000  0.0000000 )
                  (  0.0000000  0.0000000  1.0000000 )


     point group C_1 (1)    
     there are  1 classes
     the character table:

       E    
A      1.00

     the symmetry operations in each class and the name of the first element:

     E        1
          identity                                               

   Cartesian axes

     site n.     atom                  positions (alat units)
         1           H   tau(   1) = (   0.2500000   0.4907477   0.2433783  )
         2           H   tau(   2) = (   0.2500000   0.4907477   0.3043910  )
         3           C   tau(   3) = (   0.0000000   0.0000000   0.0000000  )
         4           C   tau(   4) = (   0.0000000   0.1154701   0.0000000  )
         5           C   tau(   5) = (  -0.1000000   0.1732051   0.0000000  )
         6           C   tau(   6) = (  -0.1000000   0.2886751   0.0000000  )
         7           C   tau(   7) = (  -0.2000000   0.3464102   0.0000000  )
         8           C   tau(   8) = (  -0.2000000   0.4618802   0.0000000  )
         9           C   tau(   9) = (  -0.3000000   0.5196152   0.0000000  )
        10           C   tau(  10) = (  -0.3000000   0.6350853   0.0000000  )
        11           C   tau(  11) = (  -0.4000000   0.6928203   0.0000000  )
        12           C   tau(  12) = (  -0.4000000   0.8082904   0.0000000  )
        13           C   tau(  13) = (   0.2000000   0.0000000   0.0000000  )
        14           C   tau(  14) = (   0.2000000   0.1154701   0.0000000  )
        15           C   tau(  15) = (   0.1000000   0.1732051   0.0000000  )
        16           C   tau(  16) = (   0.1000000   0.2886751   0.0000000  )
        17           C   tau(  17) = (   0.0000000   0.3464102   0.0000000  )
        18           C   tau(  18) = (   0.0000000   0.4618802   0.0000000  )
        19           C   tau(  19) = (  -0.1000000   0.5196152   0.0000000  )
        20           C   tau(  20) = (  -0.1000000   0.6350853   0.0000000  )
        21           C   tau(  21) = (  -0.2000000   0.6928203   0.0000000  )
        22           C   tau(  22) = (  -0.2000000   0.8082904   0.0000000  )
        23           C   tau(  23) = (   0.4000000   0.0000000   0.0000000  )
        24           C   tau(  24) = (   0.4000000   0.1154701   0.0000000  )
        25           C   tau(  25) = (   0.3000000   0.1732051   0.0000000  )
        26           C   tau(  26) = (   0.3000000   0.2886751   0.0000000  )
        27           C   tau(  27) = (   0.2000000   0.3464102   0.0000000  )
        28           Cr  tau(  28) = (   0.2000000   0.4618802   0.0000000  )
        29           C   tau(  29) = (   0.1000000   0.5196152   0.0000000  )
        30           C   tau(  30) = (   0.1000000   0.6350853   0.0000000  )
        31           C   tau(  31) = (   0.0000000   0.6928203   0.0000000  )
        32           C   tau(  32) = (   0.0000000   0.8082904   0.0000000  )
        33           C   tau(  33) = (   0.6000000   0.0000000   0.0000000  )
        34           C   tau(  34) = (   0.6000000   0.1154701   0.0000000  )
        35           C   tau(  35) = (   0.5000000   0.1732051   0.0000000  )
        36           C   tau(  36) = (   0.5000000   0.2886751   0.0000000  )
        37           C   tau(  37) = (   0.4000000   0.3464102   0.0000000  )
        38           C   tau(  38) = (   0.4000000   0.4618802   0.0000000  )
        39           C   tau(  39) = (   0.3000000   0.5196152   0.0000000  )
        40           C   tau(  40) = (   0.3000000   0.6350853   0.0000000  )
        41           C   tau(  41) = (   0.2000000   0.6928203   0.0000000  )
        42           C   tau(  42) = (   0.2000000   0.8082904   0.0000000  )
        43           C   tau(  43) = (   0.8000000   0.0000000   0.0000000  )
        44           C   tau(  44) = (   0.8000000   0.1154701   0.0000000  )
        45           C   tau(  45) = (   0.7000000   0.1732051   0.0000000  )
        46           C   tau(  46) = (   0.7000000   0.2886751   0.0000000  )
        47           C   tau(  47) = (   0.6000000   0.3464102   0.0000000  )
        48           C   tau(  48) = (   0.6000000   0.4618802   0.0000000  )
        49           C   tau(  49) = (   0.5000000   0.5196152   0.0000000  )
        50           C   tau(  50) = (   0.5000000   0.6350853   0.0000000  )
        51           C   tau(  51) = (   0.4000000   0.6928203   0.0000000  )
        52           C   tau(  52) = (   0.4000000   0.8082904   0.0000000  )

   Crystallographic axes

     site n.     atom                  positions (cryst. coord.)
         1           H   tau(   1) = (  0.5333333  0.5666667  0.3000000  )
         2           H   tau(   2) = (  0.5333333  0.5666667  0.3752072  )
         3           C   tau(   3) = (  0.0000000  0.0000000  0.0000000  )
         4           C   tau(   4) = (  0.0666667  0.1333333  0.0000000  )
         5           C   tau(   5) = (  0.0000000  0.2000000  0.0000000  )
         6           C   tau(   6) = (  0.0666667  0.3333333  0.0000000  )
         7           C   tau(   7) = (  0.0000000  0.4000000  0.0000000  )
         8           C   tau(   8) = (  0.0666667  0.5333333  0.0000000  )
         9           C   tau(   9) = (  0.0000000  0.6000000  0.0000000  )
        10           C   tau(  10) = (  0.0666667  0.7333333  0.0000000  )
        11           C   tau(  11) = (  0.0000000  0.8000000  0.0000000  )
        12           C   tau(  12) = (  0.0666667  0.9333333  0.0000000  )
        13           C   tau(  13) = (  0.2000000  0.0000000  0.0000000  )
        14           C   tau(  14) = (  0.2666667  0.1333333  0.0000000  )
        15           C   tau(  15) = (  0.2000000  0.2000000  0.0000000  )
        16           C   tau(  16) = (  0.2666667  0.3333333  0.0000000  )
        17           C   tau(  17) = (  0.2000000  0.4000000  0.0000000  )
        18           C   tau(  18) = (  0.2666667  0.5333333  0.0000000  )
        19           C   tau(  19) = (  0.2000000  0.6000000  0.0000000  )
        20           C   tau(  20) = (  0.2666667  0.7333333  0.0000000  )
        21           C   tau(  21) = (  0.2000000  0.8000000  0.0000000  )
        22           C   tau(  22) = (  0.2666667  0.9333333  0.0000000  )
        23           C   tau(  23) = (  0.4000000  0.0000000  0.0000000  )
        24           C   tau(  24) = (  0.4666667  0.1333333  0.0000000  )
        25           C   tau(  25) = (  0.4000000  0.2000000  0.0000000  )
        26           C   tau(  26) = (  0.4666667  0.3333333  0.0000000  )
        27           C   tau(  27) = (  0.4000000  0.4000000  0.0000000  )
        28           Cr  tau(  28) = (  0.4666667  0.5333333  0.0000000  )
        29           C   tau(  29) = (  0.4000000  0.6000000  0.0000000  )
        30           C   tau(  30) = (  0.4666667  0.7333333  0.0000000  )
        31           C   tau(  31) = (  0.4000000  0.8000000  0.0000000  )
        32           C   tau(  32) = (  0.4666667  0.9333333  0.0000000  )
        33           C   tau(  33) = (  0.6000000  0.0000000  0.0000000  )
        34           C   tau(  34) = (  0.6666667  0.1333333  0.0000000  )
        35           C   tau(  35) = (  0.6000000  0.2000000  0.0000000  )
        36           C   tau(  36) = (  0.6666667  0.3333333  0.0000000  )
        37           C   tau(  37) = (  0.6000000  0.4000000  0.0000000  )
        38           C   tau(  38) = (  0.6666667  0.5333333  0.0000000  )
        39           C   tau(  39) = (  0.6000000  0.6000000  0.0000000  )
        40           C   tau(  40) = (  0.6666667  0.7333333  0.0000000  )
        41           C   tau(  41) = (  0.6000000  0.8000000  0.0000000  )
        42           C   tau(  42) = (  0.6666667  0.9333333  0.0000000  )
        43           C   tau(  43) = (  0.8000000  0.0000000  0.0000000  )
        44           C   tau(  44) = (  0.8666667  0.1333333  0.0000000  )
        45           C   tau(  45) = (  0.8000000  0.2000000  0.0000000  )
        46           C   tau(  46) = (  0.8666667  0.3333333  0.0000000  )
        47           C   tau(  47) = (  0.8000000  0.4000000  0.0000000  )
        48           C   tau(  48) = (  0.8666667  0.5333333  0.0000000  )
        49           C   tau(  49) = (  0.8000000  0.6000000  0.0000000  )
        50           C   tau(  50) = (  0.8666667  0.7333333  0.0000000  )
        51           C   tau(  51) = (  0.8000000  0.8000000  0.0000000  )
        52           C   tau(  52) = (  0.8666667  0.9333333  0.0000000  )

     number of k points=     1  Marzari-Vanderbilt smearing, width (Ry)=  0.0010
                       cart. coord. in units 2pi/alat
        k(    1) = (   0.0000000   0.0000000   0.0000000), wk =   2.0000000

                       cryst. coord.
        k(    1) = (   0.0000000   0.0000000   0.0000000), wk =   2.0000000

     Dense  grid:  1626001 G-vectors     FFT dimensions: ( 180, 180, 135)

     Smooth grid:   702581 G-vectors     FFT dimensions: ( 125, 125, 108)

     Dynamical RAM for                 wfc:      28.36 MB

     Dynamical RAM for     wfc (w. buffer):      28.36 MB

     Dynamical RAM for           str. fact:      12.41 MB

     Dynamical RAM for           local pot:       0.00 MB

     Dynamical RAM for          nlocal pot:      92.46 MB

     Dynamical RAM for                qrad:      19.73 MB

     Dynamical RAM for          rho,v,vnew:      29.46 MB

     Dynamical RAM for               rhoin:       9.82 MB

     Dynamical RAM for            rho*nmix:      66.16 MB

     Dynamical RAM for           G-vectors:      16.40 MB

     Dynamical RAM for          h,s,v(r/c):      11.81 MB

     Dynamical RAM for          <psi|beta>:       0.80 MB

     Dynamical RAM for                 psi:     113.46 MB

     Dynamical RAM for                hpsi:     113.46 MB

     Dynamical RAM for                spsi:     113.46 MB

     Dynamical RAM for      wfcinit/wfcrot:      93.90 MB

     Dynamical RAM for           addusdens:     971.75 MB

     Estimated static dynamical RAM per process >     319.78 MB

     Estimated max dynamical RAM per process >       1.26 GB

     Estimated total dynamical RAM >       7.57 GB

     Check: negative core charge=   -0.000002

     Initial potential from superposition of free atoms

     starting charge  211.80478, renormalised to  212.00000

     negative rho (up, down):  4.773E-04 0.000E+00


---------------------------------------------------------------------------------
Carrying out rVV10 run using the following parameters:
Nqs =      20    Nr_points =    1024   r_max =   100.000
b_value =  6.30000    beta =  0.00901
     q_mesh =  0.00010000  0.00030000  0.00058939  0.00100810
               0.00161396  0.00249058  0.00375900  0.00559430
               0.00824984  0.01209221  0.01765183  0.02569619
               0.03733578  0.05417739  0.07854596  0.11380545
               0.16482331  0.23864234  0.34545298  0.50000000

Gradients computed in Reciprocal space

---------------------------------------------------------------------------------


     Starting wfcs are  208 randomized atomic wfcs

     total cpu time spent up to now is       52.9 secs

     Self-consistent Calculation

     iteration #  1     ecut=    70.00 Ry     beta= 0.70
     Davidson diagonalization with overlap
     ethr =  1.00E-02,  avg # of iterations =  2.0

     negative rho (up, down):  8.184E-04 0.000E+00

     total cpu time spent up to now is      117.4 secs

     total energy              =    -783.87374045 Ry
     Harris-Foulkes estimate   =    -789.95789073 Ry
     estimated scf accuracy    <       8.87695116 Ry

     iteration #  2     ecut=    70.00 Ry     beta= 0.70
     Davidson diagonalization with overlap
     ethr =  4.19E-03,  avg # of iterations =  8.0

     negative rho (up, down):  9.036E-04 0.000E+00

     total cpu time spent up to now is      181.6 secs

     total energy              =    -777.39783464 Ry
     Harris-Foulkes estimate   =    -796.39335675 Ry
     estimated scf accuracy    <      71.24438857 Ry

     iteration #  3     ecut=    70.00 Ry     beta= 0.70
     Davidson diagonalization with overlap
     ethr =  4.19E-03,  avg # of iterations =  6.0

     negative rho (up, down):  1.032E-03 0.000E+00

     total cpu time spent up to now is      270.9 secs

     total energy              =    -785.64324426 Ry
     Harris-Foulkes estimate   =    -787.91346364 Ry
     estimated scf accuracy    <       9.91581451 Ry

     iteration #  4     ecut=    70.00 Ry     beta= 0.70
     Davidson diagonalization with overlap
     ethr =  4.19E-03,  avg # of iterations =  3.0

     negative rho (up, down):  1.401E-03 0.000E+00

     total cpu time spent up to now is      320.5 secs

     total energy              =    -786.73283522 Ry
     Harris-Foulkes estimate   =    -787.39596130 Ry
     estimated scf accuracy    <       2.19449504 Ry

     iteration #  5     ecut=    70.00 Ry     beta= 0.70
     Davidson diagonalization with overlap
     ethr =  1.04E-03,  avg # of iterations =  3.0

     negative rho (up, down):  1.670E-03 0.000E+00

     total cpu time spent up to now is      370.5 secs

     total energy              =    -786.92422788 Ry
     Harris-Foulkes estimate   =    -787.01598208 Ry
     estimated scf accuracy    <       0.38100196 Ry

     iteration #  6     ecut=    70.00 Ry     beta= 0.70
     Davidson diagonalization with overlap
     ethr =  1.80E-04,  avg # of iterations =  9.0

     negative rho (up, down):  1.769E-03 0.000E+00

     total cpu time spent up to now is      423.6 secs

     total energy              =    -786.93751519 Ry
     Harris-Foulkes estimate   =    -786.98702659 Ry
     estimated scf accuracy    <       0.23209234 Ry

     iteration #  7     ecut=    70.00 Ry     beta= 0.70
     Davidson diagonalization with overlap
     ethr =  1.09E-04,  avg # of iterations =  2.0

     negative rho (up, down):  1.969E-03 0.000E+00

     total cpu time spent up to now is      471.6 secs

     total energy              =    -786.93590611 Ry
     Harris-Foulkes estimate   =    -786.96451046 Ry
     estimated scf accuracy    <       0.13167351 Ry

     iteration #  8     ecut=    70.00 Ry     beta= 0.70
     Davidson diagonalization with overlap
     ethr =  6.21E-05,  avg # of iterations =  1.0

     negative rho (up, down):  2.645E-03 0.000E+00

     total cpu time spent up to now is      519.1 secs

     total energy              =    -786.94126236 Ry
     Harris-Foulkes estimate   =    -786.95343123 Ry
     estimated scf accuracy    <       0.07516127 Ry

     iteration #  9     ecut=    70.00 Ry     beta= 0.70
     Davidson diagonalization with overlap
     ethr =  3.55E-05,  avg # of iterations =  3.0

     negative rho (up, down):  2.666E-03 0.000E+00

     total cpu time spent up to now is      567.6 secs

     total energy              =    -786.94342394 Ry
     Harris-Foulkes estimate   =    -786.94796178 Ry
     estimated scf accuracy    <       0.02480016 Ry

     iteration # 10     ecut=    70.00 Ry     beta= 0.70
     Davidson diagonalization with overlap
     ethr =  1.17E-05,  avg # of iterations = 12.0

     negative rho (up, down):  2.683E-03 0.000E+00

     total cpu time spent up to now is      621.4 secs

     total energy              =    -786.94524396 Ry
     Harris-Foulkes estimate   =    -786.95301720 Ry
     estimated scf accuracy    <       0.07294535 Ry

     iteration # 11     ecut=    70.00 Ry     beta= 0.70
     Davidson diagonalization with overlap
     ethr =  1.17E-05,  avg # of iterations =  2.0

     negative rho (up, down):  2.616E-03 0.000E+00

     total cpu time spent up to now is      669.1 secs

     total energy              =    -786.94608909 Ry
     Harris-Foulkes estimate   =    -786.94752507 Ry
     estimated scf accuracy    <       0.01852359 Ry

     iteration # 12     ecut=    70.00 Ry     beta= 0.70
     Davidson diagonalization with overlap
     ethr =  8.74E-06,  avg # of iterations =  1.0

     negative rho (up, down):  2.650E-03 0.000E+00

     total cpu time spent up to now is      716.8 secs

     total energy              =    -786.94676748 Ry
     Harris-Foulkes estimate   =    -786.94723454 Ry
     estimated scf accuracy    <       0.01263379 Ry

     iteration # 13     ecut=    70.00 Ry     beta= 0.70
     Davidson diagonalization with overlap
     ethr =  5.96E-06,  avg # of iterations =  1.0

     negative rho (up, down):  2.642E-03 0.000E+00

     total cpu time spent up to now is      764.6 secs

     total energy              =    -786.94699620 Ry
     Harris-Foulkes estimate   =    -786.94706702 Ry
     estimated scf accuracy    <       0.00033663 Ry

     iteration # 14     ecut=    70.00 Ry     beta= 0.70
     Davidson diagonalization with overlap
     ethr =  1.59E-07,  avg # of iterations =  3.0

     negative rho (up, down):  2.661E-03 0.000E+00

     total cpu time spent up to now is      815.4 secs

     total energy              =    -786.94705034 Ry
     Harris-Foulkes estimate   =    -786.94706445 Ry
     estimated scf accuracy    <       0.00041213 Ry

     iteration # 15     ecut=    70.00 Ry     beta= 0.70
     Davidson diagonalization with overlap
     ethr =  1.59E-07,  avg # of iterations =  2.0

     negative rho (up, down):  2.673E-03 0.000E+00

     total cpu time spent up to now is      864.4 secs

     total energy              =    -786.94707322 Ry
     Harris-Foulkes estimate   =    -786.94707179 Ry
     estimated scf accuracy    <       0.00002524 Ry

     iteration # 16     ecut=    70.00 Ry     beta= 0.70
     Davidson diagonalization with overlap
     ethr =  1.19E-08,  avg # of iterations =  3.0

     negative rho (up, down):  2.674E-03 0.000E+00

     total cpu time spent up to now is      918.3 secs

     total energy              =    -786.94708555 Ry
     Harris-Foulkes estimate   =    -786.94708199 Ry
     estimated scf accuracy    <       0.00002322 Ry

     iteration # 17     ecut=    70.00 Ry     beta= 0.70
     Davidson diagonalization with overlap
     ethr =  1.10E-08,  avg # of iterations =  2.0

     negative rho (up, down):  2.674E-03 0.000E+00

     total cpu time spent up to now is      969.1 secs

     total energy              =    -786.94709296 Ry
     Harris-Foulkes estimate   =    -786.94709089 Ry
     estimated scf accuracy    <       0.00003546 Ry

     iteration # 18     ecut=    70.00 Ry     beta= 0.70
     Davidson diagonalization with overlap
     ethr =  1.10E-08,  avg # of iterations =  2.0

     negative rho (up, down):  2.677E-03 0.000E+00

     total cpu time spent up to now is     1019.6 secs

     total energy              =    -786.94710026 Ry
     Harris-Foulkes estimate   =    -786.94709772 Ry
     estimated scf accuracy    <       0.00000864 Ry

     iteration # 19     ecut=    70.00 Ry     beta= 0.70
     Davidson diagonalization with overlap
     ethr =  4.08E-09,  avg # of iterations =  4.0

     negative rho (up, down):  2.678E-03 0.000E+00

     total cpu time spent up to now is     1073.9 secs

     total energy              =    -786.94710526 Ry
     Harris-Foulkes estimate   =    -786.94710654 Ry
     estimated scf accuracy    <       0.00000884 Ry

     iteration # 20     ecut=    70.00 Ry     beta= 0.70
     Davidson diagonalization with overlap
     ethr =  4.08E-09,  avg # of iterations =  3.0

     negative rho (up, down):  2.680E-03 0.000E+00

     total cpu time spent up to now is     1128.4 secs

     total energy              =    -786.94711415 Ry
     Harris-Foulkes estimate   =    -786.94711637 Ry
     estimated scf accuracy    <       0.00000387 Ry

     iteration # 21     ecut=    70.00 Ry     beta= 0.70
     Davidson diagonalization with overlap
     ethr =  1.83E-09,  avg # of iterations =  4.0

     negative rho (up, down):  2.683E-03 0.000E+00

     total cpu time spent up to now is     1186.0 secs

     total energy              =    -786.94712008 Ry
     Harris-Foulkes estimate   =    -786.94712175 Ry
     estimated scf accuracy    <       0.00000566 Ry

     iteration # 22     ecut=    70.00 Ry     beta= 0.70
     Davidson diagonalization with overlap
     ethr =  1.83E-09,  avg # of iterations =  3.0

     negative rho (up, down):  2.685E-03 0.000E+00

     total cpu time spent up to now is     1240.0 secs

     total energy              =    -786.94712278 Ry
     Harris-Foulkes estimate   =    -786.94712371 Ry
     estimated scf accuracy    <       0.00000417 Ry

     iteration # 23     ecut=    70.00 Ry     beta= 0.70
     Davidson diagonalization with overlap
     ethr =  1.83E-09,  avg # of iterations =  3.0

     negative rho (up, down):  2.687E-03 0.000E+00

     total cpu time spent up to now is     1293.4 secs

     total energy              =    -786.94712376 Ry
     Harris-Foulkes estimate   =    -786.94712491 Ry
     estimated scf accuracy    <       0.00000180 Ry

     iteration # 24     ecut=    70.00 Ry     beta= 0.70
     Davidson diagonalization with overlap
     ethr =  8.49E-10,  avg # of iterations =  4.0

     negative rho (up, down):  2.688E-03 0.000E+00

     total cpu time spent up to now is     1348.4 secs

     total energy              =    -786.94712566 Ry
     Harris-Foulkes estimate   =    -786.94712592 Ry
     estimated scf accuracy    <       0.00000169 Ry

     iteration # 25     ecut=    70.00 Ry     beta= 0.70
     Davidson diagonalization with overlap
     ethr =  7.97E-10,  avg # of iterations =  3.0

     negative rho (up, down):  2.689E-03 0.000E+00

     total cpu time spent up to now is     1400.5 secs

     total energy              =    -786.94712362 Ry
     Harris-Foulkes estimate   =    -786.94712618 Ry
     estimated scf accuracy    <       0.00000240 Ry

     iteration # 26     ecut=    70.00 Ry     beta= 0.70
     Davidson diagonalization with overlap
     ethr =  7.97E-10,  avg # of iterations =  4.0

     negative rho (up, down):  2.693E-03 0.000E+00

     total cpu time spent up to now is     1455.7 secs

     End of self-consistent calculation

          k = 0.0000 0.0000 0.0000 ( 87777 PWs)   bands (ev):

   -71.8445 -44.1381 -44.1381 -43.0271 -19.6333 -18.7948 -18.7946 -18.7019
   -18.7018 -18.7012 -18.3302 -16.9473 -16.9472 -16.9421 -16.8364 -16.8363
   -16.5350 -16.0940 -16.0939 -15.9939 -15.9129 -15.9125 -15.1993 -13.9571
   -13.9568 -13.9138 -13.8635 -13.8634 -13.2002 -12.9382 -12.9381 -12.9089
   -12.5839 -12.5837 -12.1457 -11.6986 -11.6984 -11.5339 -11.2279 -11.2276
   -10.2617  -9.4784  -9.4783  -9.3196  -9.1858  -9.1858  -9.0931  -9.0616
    -9.0616  -9.0503  -8.5352  -8.5350  -7.9910  -7.9909  -7.8928  -7.7917
    -7.7035  -7.2833  -7.2831  -7.0900  -7.0297  -6.9808  -6.9403  -6.7014
    -6.7013  -6.6871  -6.6867  -6.6603  -6.5950  -6.4314  -6.4313  -6.4030
    -6.3980  -6.3979  -6.3533  -6.3493  -5.3915  -5.3915  -5.3225  -5.3224
    -5.0580  -5.0580  -4.8560  -4.7617  -4.6069  -4.5840  -4.5835  -4.2662
    -4.2491  -4.0350  -4.0348  -3.7179  -3.7174  -3.6361  -3.5394  -3.5393
    -3.4742  -3.4740  -2.9999  -2.4320  -2.4315  -1.7183  -1.6739  -1.6739
    -0.7141  -0.5377  -0.5376  -0.4887   1.0666   1.0878   1.0883   1.7745
     1.8708   1.8716   2.4261   2.9261   2.9270   2.9881   3.3860   3.3881
     3.4581   3.6527   3.6621   3.7063   3.7974   3.8024   3.8553

     occupation numbers 
     1.0000   1.0000   1.0000   1.0000   1.0000   1.0000   1.0000   1.0000
     1.0000   1.0000   1.0000   1.0000   1.0000   1.0000   1.0000   1.0000
     1.0000   1.0000   1.0000   1.0000   1.0000   1.0000   1.0000   1.0000
     1.0000   1.0000   1.0000   1.0000   1.0000   1.0000   1.0000   1.0000
     1.0000   1.0000   1.0000   1.0000   1.0000   1.0000   1.0000   1.0000
     1.0000   1.0000   1.0000   1.0000   1.0000   1.0000   1.0000   1.0000
     1.0000   1.0000   1.0000   1.0000   1.0000   1.0000   1.0000   1.0000
     1.0000   1.0000   1.0000   1.0000   1.0000   1.0000   1.0000   1.0000
     1.0000   1.0000   1.0000   1.0000   1.0000   1.0000   1.0000   1.0000
     1.0000   1.0000   1.0000   1.0000   1.0000   1.0000   1.0000   1.0000
     1.0000   1.0000   1.0000   1.0000   1.0000   1.0000   1.0000   1.0000
     1.0000   1.0000   1.0000   1.0000   1.0000   1.0000   1.0000   1.0000
     1.0000   1.0000   1.0000   1.0000   1.0000   1.0000   1.0000   1.0000
     1.0000   0.5022   0.4978   0.0000   0.0000   0.0000   0.0000   0.0000
     0.0000   0.0000   0.0000   0.0000   0.0000   0.0000   0.0000   0.0000
     0.0000   0.0000   0.0000   0.0000   0.0000   0.0000   0.0000

     the Fermi energy is    -0.5358 ev

!    total energy              =    -786.94712676 Ry
     Harris-Foulkes estimate   =    -786.94712714 Ry
     estimated scf accuracy    <       0.00000011 Ry

     The total energy is the sum of the following terms:

     one-electron contribution =   -2642.64341196 Ry
     hartree contribution      =    1366.98516940 Ry
     xc contribution           =    -254.33630788 Ry
     ewald contribution        =     743.04808003 Ry
     smearing contrib. (-TS)   =      -0.00065635 Ry

     convergence has been achieved in  26 iterations

     Writing output data file gr-12.save/

     init_run     :     50.74s CPU     51.84s WALL (       1 calls)
     electrons    :   1360.86s CPU   1402.91s WALL (       1 calls)

     Called by init_run:
     wfcinit      :     20.42s CPU     20.55s WALL (       1 calls)
     wfcinit:atom :      0.04s CPU      0.04s WALL (       1 calls)
     wfcinit:wfcr :     20.23s CPU     20.31s WALL (       1 calls)
     potinit      :     13.62s CPU     14.00s WALL (       1 calls)
     hinit0       :     12.10s CPU     12.14s WALL (       1 calls)

     Called by electrons:
     c_bands      :    837.88s CPU    843.29s WALL (      26 calls)
     sum_band     :    258.24s CPU    272.34s WALL (      26 calls)
     v_of_rho     :    160.41s CPU    170.17s WALL (      27 calls)
     v_h          :      1.80s CPU      1.88s WALL (      27 calls)
     v_xc         :    158.61s CPU    168.30s WALL (      27 calls)
     newd         :    106.33s CPU    119.73s WALL (      27 calls)
     mix_rho      :      5.03s CPU      5.13s WALL (      26 calls)

     Called by c_bands:
     init_us_2    :      2.15s CPU      2.20s WALL (      53 calls)
     cegterg      :    832.03s CPU    837.40s WALL (      26 calls)

     Called by sum_band:
     sum_band:bec :      0.02s CPU      0.02s WALL (      26 calls)
     addusdens    :    159.53s CPU    172.86s WALL (      26 calls)

     Called by *egterg:
     h_psi        :    435.93s CPU    439.54s WALL (     120 calls)
     s_psi        :    147.10s CPU    147.27s WALL (     120 calls)
     g_psi        :      0.48s CPU      0.48s WALL (      93 calls)
     cdiaghg      :      7.81s CPU      7.82s WALL (     119 calls)
     cegterg:over :    101.68s CPU    101.80s WALL (      93 calls)
     cegterg:upda :     64.04s CPU     64.49s WALL (      93 calls)
     cegterg:last :     48.38s CPU     48.43s WALL (      27 calls)

     Called by h_psi:
     h_psi:pot    :    435.44s CPU    438.47s WALL (     120 calls)
     h_psi:calbec :    147.54s CPU    147.68s WALL (     120 calls)
     vloc_psi     :    140.40s CPU    143.13s WALL (     120 calls)
     add_vuspsi   :    147.50s CPU    147.66s WALL (     120 calls)

     General routines
     calbec       :    208.50s CPU    208.70s WALL (     146 calls)
     fft          :     90.41s CPU     94.03s WALL (    1699 calls)
     ffts         :      0.89s CPU      0.94s WALL (      53 calls)
     fftw         :    147.37s CPU    150.37s WALL (   19312 calls)
     interpolate  :      2.21s CPU      2.29s WALL (      27 calls)

     Parallel routines
     fft_scatt_xy :     40.81s CPU     41.44s WALL (   21064 calls)
     fft_scatt_yz :     82.07s CPU     86.70s WALL (   21064 calls)

     PWSCF        :  23m32.72s CPU  24m16.13s WALL


   This run was terminated on:   6:32:48  20Jul2022            

=------------------------------------------------------------------------------=
   JOB DONE.
=------------------------------------------------------------------------------=
