
     Program PWSCF v.6.4.1 starts on 20Jul2022 at  7:40:47 

     This program is part of the open-source Quantum ESPRESSO suite
     for quantum simulation of materials; please cite
         "P. Giannozzi et al., J. Phys.:Condens. Matter 21 395502 (2009);
         "P. Giannozzi et al., J. Phys.:Condens. Matter 29 465901 (2017);
          URL http://www.quantum-espresso.org", 
     in publications or presentations arising from this work. More details at
     http://www.quantum-espresso.org/quote

     Parallel version (MPI), running on     6 processors

     MPI processes distributed on     1 nodes
     R & G space division:  proc/nbgrp/npool/nimage =       6
     Reading input from distance-2.2.in

     Current dimensions of program PWSCF are:
     Max number of different atomic species (ntypx) = 10
     Max number of k-points (npk) =  40000
     Max angular momentum in pseudopotentials (lmaxx) =  3

     IMPORTANT: XC functional enforced from input :
     Exchange-correlation      = RVV10 ( 1  4 13  4 3 0)
     Any further DFT definition will be discarded
     Please, verify this is what you really want

               file H.pbe-rrkjus.UPF: wavefunction(s)  1S renormalized
               file Cr.pbe-spn-rrkjus_psl.1.0.0.UPF: wavefunction(s)  3P renormalized

     Subspace diagonalization in iterative solution of the eigenvalue problem:
     a serial algorithm will be used


     Parallelization info
     --------------------
     sticks:   dense  smooth     PW     G-vecs:    dense   smooth      PW
     Min        3051    1746    432               270999   117096   14629
     Max        3053    1747    437               271001   117099   14630
     Sum       18313   10477   2611              1626001   702581   87777



     bravais-lattice index     =            4
     lattice parameter (alat)  =      23.2937  a.u.
     unit-cell volume          =    8879.8548 (a.u.)^3
     number of atoms/cell      =           52
     number of atomic types    =            3
     number of electrons       =       212.00
     number of Kohn-Sham states=          127
     kinetic-energy cutoff     =      70.0000  Ry
     charge density cutoff     =     490.0000  Ry
     convergence threshold     =      1.0E-06
     mixing beta               =       0.7000
     number of iterations used =            8  plain     mixing
     Exchange-correlation      = RVV10 ( 1  4 13  4 3 0)

     celldm(1)=  23.293684  celldm(2)=   0.000000  celldm(3)=   0.811261
     celldm(4)=   0.000000  celldm(5)=   0.000000  celldm(6)=   0.000000

     crystal axes: (cart. coord. in units of alat)
               a(1) = (   1.000000   0.000000   0.000000 )  
               a(2) = (  -0.500000   0.866025   0.000000 )  
               a(3) = (   0.000000   0.000000   0.811261 )  

     reciprocal axes: (cart. coord. in units 2 pi/alat)
               b(1) = (  1.000000  0.577350 -0.000000 )  
               b(2) = (  0.000000  1.154701  0.000000 )  
               b(3) = (  0.000000 -0.000000  1.232649 )  


     PseudoPot. # 1 for H  read from file:
     /home/cristian/Escritorio/Proyecto_Grafeno/pseudopotenciales/H.pbe-rrkjus.UPF
     MD5 check sum: 7cc9d459525c9a0585f487a71c3c9563
     Pseudo is Ultrasoft, Zval =  1.0
     Generated by new atomic code, or converted to UPF format
     Using radial grid of 1061 points,  2 beta functions with: 
                l(1) =   0
                l(2) =   0
     Q(r) pseudized with 0 coefficients 


     PseudoPot. # 2 for C  read from file:
     /home/cristian/Escritorio/Proyecto_Grafeno/pseudopotenciales/C.pbe-n-rrkjus_psl.1.0.0.UPF
     MD5 check sum: 1fdd950c42eb37d8afe3dd2f8d12311e
     Pseudo is Ultrasoft + core correction, Zval =  4.0
     Generated using "atomic" code by A. Dal Corso v.6.3MaX
     Using radial grid of 1073 points,  4 beta functions with: 
                l(1) =   0
                l(2) =   0
                l(3) =   1
                l(4) =   1
     Q(r) pseudized with 0 coefficients 


     PseudoPot. # 3 for Cr read from file:
     /home/cristian/Escritorio/Proyecto_Grafeno/pseudopotenciales/Cr.pbe-spn-rrkjus_psl.1.0.0.UPF
     MD5 check sum: 793d051e4f89dd1e3290b85340a92c0a
     Pseudo is Ultrasoft + core correction, Zval = 14.0
     Generated using "atomic" code by A. Dal Corso v.6.2.2
     Using radial grid of 1183 points,  6 beta functions with: 
                l(1) =   0
                l(2) =   0
                l(3) =   1
                l(4) =   1
                l(5) =   2
                l(6) =   2
     Q(r) pseudized with 0 coefficients 


     vdW kernel table read from file rVV10_kernel_table
     MD5 check sum: b8e2538accc0c0b3206b45ba4daaba6c

     atomic species   valence    mass     pseudopotential
        H              1.00     1.00794     H ( 1.00)
        C              4.00    12.01070     C ( 1.00)
        Cr            14.00    51.99610     Cr( 1.00)

     No symmetry found


                                    s                        frac. trans.

      isym =  1     identity                                     

 cryst.   s( 1) = (     1          0          0      )
                  (     0          1          0      )
                  (     0          0          1      )

 cart.    s( 1) = (  1.0000000  0.0000000  0.0000000 )
                  (  0.0000000  1.0000000  0.0000000 )
                  (  0.0000000  0.0000000  1.0000000 )


     point group C_1 (1)    
     there are  1 classes
     the character table:

       E    
A      1.00

     the symmetry operations in each class and the name of the first element:

     E        1
          identity                                               

   Cartesian axes

     site n.     atom                  positions (alat units)
         1           H   tau(   1) = (   0.2500000   0.4907477   0.1784775  )
         2           H   tau(   2) = (   0.2500000   0.4907477   0.2394901  )
         3           C   tau(   3) = (   0.0000000   0.0000000   0.0000000  )
         4           C   tau(   4) = (   0.0000000   0.1154701   0.0000000  )
         5           C   tau(   5) = (  -0.1000000   0.1732051   0.0000000  )
         6           C   tau(   6) = (  -0.1000000   0.2886751   0.0000000  )
         7           C   tau(   7) = (  -0.2000000   0.3464102   0.0000000  )
         8           C   tau(   8) = (  -0.2000000   0.4618802   0.0000000  )
         9           C   tau(   9) = (  -0.3000000   0.5196152   0.0000000  )
        10           C   tau(  10) = (  -0.3000000   0.6350853   0.0000000  )
        11           C   tau(  11) = (  -0.4000000   0.6928203   0.0000000  )
        12           C   tau(  12) = (  -0.4000000   0.8082904   0.0000000  )
        13           C   tau(  13) = (   0.2000000   0.0000000   0.0000000  )
        14           C   tau(  14) = (   0.2000000   0.1154701   0.0000000  )
        15           C   tau(  15) = (   0.1000000   0.1732051   0.0000000  )
        16           C   tau(  16) = (   0.1000000   0.2886751   0.0000000  )
        17           C   tau(  17) = (   0.0000000   0.3464102   0.0000000  )
        18           C   tau(  18) = (   0.0000000   0.4618802   0.0000000  )
        19           C   tau(  19) = (  -0.1000000   0.5196152   0.0000000  )
        20           C   tau(  20) = (  -0.1000000   0.6350853   0.0000000  )
        21           C   tau(  21) = (  -0.2000000   0.6928203   0.0000000  )
        22           C   tau(  22) = (  -0.2000000   0.8082904   0.0000000  )
        23           C   tau(  23) = (   0.4000000   0.0000000   0.0000000  )
        24           C   tau(  24) = (   0.4000000   0.1154701   0.0000000  )
        25           C   tau(  25) = (   0.3000000   0.1732051   0.0000000  )
        26           C   tau(  26) = (   0.3000000   0.2886751   0.0000000  )
        27           C   tau(  27) = (   0.2000000   0.3464102   0.0000000  )
        28           Cr  tau(  28) = (   0.2000000   0.4618802   0.0000000  )
        29           C   tau(  29) = (   0.1000000   0.5196152   0.0000000  )
        30           C   tau(  30) = (   0.1000000   0.6350853   0.0000000  )
        31           C   tau(  31) = (   0.0000000   0.6928203   0.0000000  )
        32           C   tau(  32) = (   0.0000000   0.8082904   0.0000000  )
        33           C   tau(  33) = (   0.6000000   0.0000000   0.0000000  )
        34           C   tau(  34) = (   0.6000000   0.1154701   0.0000000  )
        35           C   tau(  35) = (   0.5000000   0.1732051   0.0000000  )
        36           C   tau(  36) = (   0.5000000   0.2886751   0.0000000  )
        37           C   tau(  37) = (   0.4000000   0.3464102   0.0000000  )
        38           C   tau(  38) = (   0.4000000   0.4618802   0.0000000  )
        39           C   tau(  39) = (   0.3000000   0.5196152   0.0000000  )
        40           C   tau(  40) = (   0.3000000   0.6350853   0.0000000  )
        41           C   tau(  41) = (   0.2000000   0.6928203   0.0000000  )
        42           C   tau(  42) = (   0.2000000   0.8082904   0.0000000  )
        43           C   tau(  43) = (   0.8000000   0.0000000   0.0000000  )
        44           C   tau(  44) = (   0.8000000   0.1154701   0.0000000  )
        45           C   tau(  45) = (   0.7000000   0.1732051   0.0000000  )
        46           C   tau(  46) = (   0.7000000   0.2886751   0.0000000  )
        47           C   tau(  47) = (   0.6000000   0.3464102   0.0000000  )
        48           C   tau(  48) = (   0.6000000   0.4618802   0.0000000  )
        49           C   tau(  49) = (   0.5000000   0.5196152   0.0000000  )
        50           C   tau(  50) = (   0.5000000   0.6350853   0.0000000  )
        51           C   tau(  51) = (   0.4000000   0.6928203   0.0000000  )
        52           C   tau(  52) = (   0.4000000   0.8082904   0.0000000  )

   Crystallographic axes

     site n.     atom                  positions (cryst. coord.)
         1           H   tau(   1) = (  0.5333333  0.5666667  0.2200000  )
         2           H   tau(   2) = (  0.5333333  0.5666667  0.2952072  )
         3           C   tau(   3) = (  0.0000000  0.0000000  0.0000000  )
         4           C   tau(   4) = (  0.0666667  0.1333333  0.0000000  )
         5           C   tau(   5) = (  0.0000000  0.2000000  0.0000000  )
         6           C   tau(   6) = (  0.0666667  0.3333333  0.0000000  )
         7           C   tau(   7) = (  0.0000000  0.4000000  0.0000000  )
         8           C   tau(   8) = (  0.0666667  0.5333333  0.0000000  )
         9           C   tau(   9) = (  0.0000000  0.6000000  0.0000000  )
        10           C   tau(  10) = (  0.0666667  0.7333333  0.0000000  )
        11           C   tau(  11) = (  0.0000000  0.8000000  0.0000000  )
        12           C   tau(  12) = (  0.0666667  0.9333333  0.0000000  )
        13           C   tau(  13) = (  0.2000000  0.0000000  0.0000000  )
        14           C   tau(  14) = (  0.2666667  0.1333333  0.0000000  )
        15           C   tau(  15) = (  0.2000000  0.2000000  0.0000000  )
        16           C   tau(  16) = (  0.2666667  0.3333333  0.0000000  )
        17           C   tau(  17) = (  0.2000000  0.4000000  0.0000000  )
        18           C   tau(  18) = (  0.2666667  0.5333333  0.0000000  )
        19           C   tau(  19) = (  0.2000000  0.6000000  0.0000000  )
        20           C   tau(  20) = (  0.2666667  0.7333333  0.0000000  )
        21           C   tau(  21) = (  0.2000000  0.8000000  0.0000000  )
        22           C   tau(  22) = (  0.2666667  0.9333333  0.0000000  )
        23           C   tau(  23) = (  0.4000000  0.0000000  0.0000000  )
        24           C   tau(  24) = (  0.4666667  0.1333333  0.0000000  )
        25           C   tau(  25) = (  0.4000000  0.2000000  0.0000000  )
        26           C   tau(  26) = (  0.4666667  0.3333333  0.0000000  )
        27           C   tau(  27) = (  0.4000000  0.4000000  0.0000000  )
        28           Cr  tau(  28) = (  0.4666667  0.5333333  0.0000000  )
        29           C   tau(  29) = (  0.4000000  0.6000000  0.0000000  )
        30           C   tau(  30) = (  0.4666667  0.7333333  0.0000000  )
        31           C   tau(  31) = (  0.4000000  0.8000000  0.0000000  )
        32           C   tau(  32) = (  0.4666667  0.9333333  0.0000000  )
        33           C   tau(  33) = (  0.6000000  0.0000000  0.0000000  )
        34           C   tau(  34) = (  0.6666667  0.1333333  0.0000000  )
        35           C   tau(  35) = (  0.6000000  0.2000000  0.0000000  )
        36           C   tau(  36) = (  0.6666667  0.3333333  0.0000000  )
        37           C   tau(  37) = (  0.6000000  0.4000000  0.0000000  )
        38           C   tau(  38) = (  0.6666667  0.5333333  0.0000000  )
        39           C   tau(  39) = (  0.6000000  0.6000000  0.0000000  )
        40           C   tau(  40) = (  0.6666667  0.7333333  0.0000000  )
        41           C   tau(  41) = (  0.6000000  0.8000000  0.0000000  )
        42           C   tau(  42) = (  0.6666667  0.9333333  0.0000000  )
        43           C   tau(  43) = (  0.8000000  0.0000000  0.0000000  )
        44           C   tau(  44) = (  0.8666667  0.1333333  0.0000000  )
        45           C   tau(  45) = (  0.8000000  0.2000000  0.0000000  )
        46           C   tau(  46) = (  0.8666667  0.3333333  0.0000000  )
        47           C   tau(  47) = (  0.8000000  0.4000000  0.0000000  )
        48           C   tau(  48) = (  0.8666667  0.5333333  0.0000000  )
        49           C   tau(  49) = (  0.8000000  0.6000000  0.0000000  )
        50           C   tau(  50) = (  0.8666667  0.7333333  0.0000000  )
        51           C   tau(  51) = (  0.8000000  0.8000000  0.0000000  )
        52           C   tau(  52) = (  0.8666667  0.9333333  0.0000000  )

     number of k points=     1  Marzari-Vanderbilt smearing, width (Ry)=  0.0010
                       cart. coord. in units 2pi/alat
        k(    1) = (   0.0000000   0.0000000   0.0000000), wk =   2.0000000

                       cryst. coord.
        k(    1) = (   0.0000000   0.0000000   0.0000000), wk =   2.0000000

     Dense  grid:  1626001 G-vectors     FFT dimensions: ( 180, 180, 135)

     Smooth grid:   702581 G-vectors     FFT dimensions: ( 125, 125, 108)

     Dynamical RAM for                 wfc:      28.36 MB

     Dynamical RAM for     wfc (w. buffer):      28.36 MB

     Dynamical RAM for           str. fact:      12.41 MB

     Dynamical RAM for           local pot:       0.00 MB

     Dynamical RAM for          nlocal pot:      92.46 MB

     Dynamical RAM for                qrad:      19.73 MB

     Dynamical RAM for          rho,v,vnew:      29.46 MB

     Dynamical RAM for               rhoin:       9.82 MB

     Dynamical RAM for            rho*nmix:      66.16 MB

     Dynamical RAM for           G-vectors:      16.40 MB

     Dynamical RAM for          h,s,v(r/c):      11.81 MB

     Dynamical RAM for          <psi|beta>:       0.80 MB

     Dynamical RAM for                 psi:     113.46 MB

     Dynamical RAM for                hpsi:     113.46 MB

     Dynamical RAM for                spsi:     113.46 MB

     Dynamical RAM for      wfcinit/wfcrot:      93.90 MB

     Dynamical RAM for           addusdens:     971.75 MB

     Estimated static dynamical RAM per process >     319.78 MB

     Estimated max dynamical RAM per process >       1.26 GB

     Estimated total dynamical RAM >       7.57 GB

     Check: negative core charge=   -0.000002

     Initial potential from superposition of free atoms

     starting charge  211.80478, renormalised to  212.00000

     negative rho (up, down):  5.551E-04 0.000E+00


---------------------------------------------------------------------------------
Carrying out rVV10 run using the following parameters:
Nqs =      20    Nr_points =    1024   r_max =   100.000
b_value =  6.30000    beta =  0.00901
     q_mesh =  0.00010000  0.00030000  0.00058939  0.00100810
               0.00161396  0.00249058  0.00375900  0.00559430
               0.00824984  0.01209221  0.01765183  0.02569619
               0.03733578  0.05417739  0.07854596  0.11380545
               0.16482331  0.23864234  0.34545298  0.50000000

Gradients computed in Reciprocal space

---------------------------------------------------------------------------------


     Starting wfcs are  208 randomized atomic wfcs

     total cpu time spent up to now is       53.6 secs

     Self-consistent Calculation

     iteration #  1     ecut=    70.00 Ry     beta= 0.70
     Davidson diagonalization with overlap
     ethr =  1.00E-02,  avg # of iterations =  2.0

     negative rho (up, down):  9.535E-04 0.000E+00

     total cpu time spent up to now is      118.2 secs

     total energy              =    -782.56075215 Ry
     Harris-Foulkes estimate   =    -790.13479776 Ry
     estimated scf accuracy    <      10.55323038 Ry

     iteration #  2     ecut=    70.00 Ry     beta= 0.70
     Davidson diagonalization with overlap
     ethr =  4.98E-03,  avg # of iterations =  7.0

     negative rho (up, down):  1.076E-03 0.000E+00

     total cpu time spent up to now is      183.3 secs

     total energy              =    -776.48170752 Ry
     Harris-Foulkes estimate   =    -800.70819504 Ry
     estimated scf accuracy    <      88.83299618 Ry

     iteration #  3     ecut=    70.00 Ry     beta= 0.70
     Davidson diagonalization with overlap
     ethr =  4.98E-03,  avg # of iterations =  5.0

     negative rho (up, down):  1.195E-03 0.000E+00

     total cpu time spent up to now is      275.2 secs

     total energy              =    -785.66905748 Ry
     Harris-Foulkes estimate   =    -787.80948836 Ry
     estimated scf accuracy    <       7.12649742 Ry

     iteration #  4     ecut=    70.00 Ry     beta= 0.70
     Davidson diagonalization with overlap
     ethr =  3.36E-03,  avg # of iterations =  4.0

     negative rho (up, down):  1.593E-03 0.000E+00

     total cpu time spent up to now is      327.8 secs

     total energy              =    -786.56892356 Ry
     Harris-Foulkes estimate   =    -787.36168984 Ry
     estimated scf accuracy    <       2.11919083 Ry

     iteration #  5     ecut=    70.00 Ry     beta= 0.70
     Davidson diagonalization with overlap
     ethr =  1.00E-03,  avg # of iterations =  4.0

     negative rho (up, down):  1.814E-03 0.000E+00

     total cpu time spent up to now is      380.5 secs

     total energy              =    -786.91526578 Ry
     Harris-Foulkes estimate   =    -787.05044559 Ry
     estimated scf accuracy    <       0.58333893 Ry

     iteration #  6     ecut=    70.00 Ry     beta= 0.70
     Davidson diagonalization with overlap
     ethr =  2.75E-04,  avg # of iterations =  4.0

     negative rho (up, down):  1.919E-03 0.000E+00

     total cpu time spent up to now is      429.7 secs

     total energy              =    -786.92833951 Ry
     Harris-Foulkes estimate   =    -786.96221366 Ry
     estimated scf accuracy    <       0.11681817 Ry

     iteration #  7     ecut=    70.00 Ry     beta= 0.70
     Davidson diagonalization with overlap
     ethr =  5.51E-05,  avg # of iterations = 13.0

     negative rho (up, down):  2.120E-03 0.000E+00

     total cpu time spent up to now is      485.3 secs

     total energy              =    -786.93934694 Ry
     Harris-Foulkes estimate   =    -786.96758453 Ry
     estimated scf accuracy    <       0.13620964 Ry

     iteration #  8     ecut=    70.00 Ry     beta= 0.70
     Davidson diagonalization with overlap
     ethr =  5.51E-05,  avg # of iterations =  3.0

     negative rho (up, down):  2.638E-03 0.000E+00

     total cpu time spent up to now is      534.7 secs

     total energy              =    -786.94278179 Ry
     Harris-Foulkes estimate   =    -786.95183658 Ry
     estimated scf accuracy    <       0.02787543 Ry

     iteration #  9     ecut=    70.00 Ry     beta= 0.70
     Davidson diagonalization with overlap
     ethr =  1.31E-05,  avg # of iterations =  4.0

     negative rho (up, down):  2.780E-03 0.000E+00

     total cpu time spent up to now is      588.8 secs

     total energy              =    -786.94460789 Ry
     Harris-Foulkes estimate   =    -786.95041749 Ry
     estimated scf accuracy    <       0.04165638 Ry

     iteration # 10     ecut=    70.00 Ry     beta= 0.70
     Davidson diagonalization with overlap
     ethr =  1.31E-05,  avg # of iterations =  2.0

     negative rho (up, down):  2.848E-03 0.000E+00

     total cpu time spent up to now is      636.9 secs

     total energy              =    -786.94668808 Ry
     Harris-Foulkes estimate   =    -786.95386282 Ry
     estimated scf accuracy    <       0.07096746 Ry

     iteration # 11     ecut=    70.00 Ry     beta= 0.70
     Davidson diagonalization with overlap
     ethr =  1.31E-05,  avg # of iterations =  1.0

     negative rho (up, down):  2.727E-03 0.000E+00

     total cpu time spent up to now is      684.6 secs

     total energy              =    -786.94711102 Ry
     Harris-Foulkes estimate   =    -786.94895519 Ry
     estimated scf accuracy    <       0.02306203 Ry

     iteration # 12     ecut=    70.00 Ry     beta= 0.70
     Davidson diagonalization with overlap
     ethr =  1.09E-05,  avg # of iterations =  1.0

     negative rho (up, down):  2.778E-03 0.000E+00

     total cpu time spent up to now is      732.5 secs

     total energy              =    -786.94798618 Ry
     Harris-Foulkes estimate   =    -786.94851555 Ry
     estimated scf accuracy    <       0.01248316 Ry

     iteration # 13     ecut=    70.00 Ry     beta= 0.70
     Davidson diagonalization with overlap
     ethr =  5.89E-06,  avg # of iterations =  1.0

     negative rho (up, down):  2.809E-03 0.000E+00

     total cpu time spent up to now is      780.2 secs

     total energy              =    -786.94827007 Ry
     Harris-Foulkes estimate   =    -786.94828324 Ry
     estimated scf accuracy    <       0.00009954 Ry

     iteration # 14     ecut=    70.00 Ry     beta= 0.70
     Davidson diagonalization with overlap
     ethr =  4.70E-08,  avg # of iterations =  4.0

     negative rho (up, down):  2.814E-03 0.000E+00

     total cpu time spent up to now is      839.9 secs

     total energy              =    -786.94830223 Ry
     Harris-Foulkes estimate   =    -786.94831552 Ry
     estimated scf accuracy    <       0.00018286 Ry

     iteration # 15     ecut=    70.00 Ry     beta= 0.70
     Davidson diagonalization with overlap
     ethr =  4.70E-08,  avg # of iterations =  3.0

     negative rho (up, down):  2.815E-03 0.000E+00

     total cpu time spent up to now is      889.2 secs

     total energy              =    -786.94831767 Ry
     Harris-Foulkes estimate   =    -786.94831780 Ry
     estimated scf accuracy    <       0.00007545 Ry

     iteration # 16     ecut=    70.00 Ry     beta= 0.70
     Davidson diagonalization with overlap
     ethr =  3.56E-08,  avg # of iterations =  2.0

     negative rho (up, down):  2.823E-03 0.000E+00

     total cpu time spent up to now is      937.5 secs

     total energy              =    -786.94832971 Ry
     Harris-Foulkes estimate   =    -786.94832324 Ry
     estimated scf accuracy    <       0.00001626 Ry

     iteration # 17     ecut=    70.00 Ry     beta= 0.70
     Davidson diagonalization with overlap
     ethr =  7.67E-09,  avg # of iterations =  3.0

     negative rho (up, down):  2.824E-03 0.000E+00

     total cpu time spent up to now is      991.5 secs

     total energy              =    -786.94833897 Ry
     Harris-Foulkes estimate   =    -786.94833823 Ry
     estimated scf accuracy    <       0.00006691 Ry

     iteration # 18     ecut=    70.00 Ry     beta= 0.70
     Davidson diagonalization with overlap
     ethr =  7.67E-09,  avg # of iterations =  3.0

     negative rho (up, down):  2.825E-03 0.000E+00

     total cpu time spent up to now is     1044.3 secs

     total energy              =    -786.94834442 Ry
     Harris-Foulkes estimate   =    -786.94834684 Ry
     estimated scf accuracy    <       0.00006763 Ry

     iteration # 19     ecut=    70.00 Ry     beta= 0.70
     Davidson diagonalization with overlap
     ethr =  7.67E-09,  avg # of iterations =  3.0

     negative rho (up, down):  2.828E-03 0.000E+00

     total cpu time spent up to now is     1094.5 secs

     total energy              =    -786.94834589 Ry
     Harris-Foulkes estimate   =    -786.94834772 Ry
     estimated scf accuracy    <       0.00001151 Ry

     iteration # 20     ecut=    70.00 Ry     beta= 0.70
     Davidson diagonalization with overlap
     ethr =  5.43E-09,  avg # of iterations =  4.0

     negative rho (up, down):  2.830E-03 0.000E+00

     total cpu time spent up to now is     1149.6 secs

     total energy              =    -786.94835795 Ry
     Harris-Foulkes estimate   =    -786.94835945 Ry
     estimated scf accuracy    <       0.00002067 Ry

     iteration # 21     ecut=    70.00 Ry     beta= 0.70
     Davidson diagonalization with overlap
     ethr =  5.43E-09,  avg # of iterations =  2.0

     negative rho (up, down):  2.831E-03 0.000E+00

     total cpu time spent up to now is     1198.0 secs

     total energy              =    -786.94835162 Ry
     Harris-Foulkes estimate   =    -786.94835963 Ry
     estimated scf accuracy    <       0.00002091 Ry

     iteration # 22     ecut=    70.00 Ry     beta= 0.70
     Davidson diagonalization with overlap
     ethr =  5.43E-09,  avg # of iterations =  4.0

     negative rho (up, down):  2.835E-03 0.000E+00

     total cpu time spent up to now is     1253.5 secs

     total energy              =    -786.94836277 Ry
     Harris-Foulkes estimate   =    -786.94836688 Ry
     estimated scf accuracy    <       0.00000183 Ry

     iteration # 23     ecut=    70.00 Ry     beta= 0.70
     Davidson diagonalization with overlap
     ethr =  8.65E-10,  avg # of iterations =  4.0

     negative rho (up, down):  2.838E-03 0.000E+00

     total cpu time spent up to now is     1312.1 secs

     total energy              =    -786.94836541 Ry
     Harris-Foulkes estimate   =    -786.94836993 Ry
     estimated scf accuracy    <       0.00000194 Ry

     iteration # 24     ecut=    70.00 Ry     beta= 0.70
     Davidson diagonalization with overlap
     ethr =  8.65E-10,  avg # of iterations =  4.0

     negative rho (up, down):  2.842E-03 0.000E+00

     total cpu time spent up to now is     1369.8 secs

     total energy              =    -786.94837104 Ry
     Harris-Foulkes estimate   =    -786.94837166 Ry
     estimated scf accuracy    <       0.00000192 Ry

     iteration # 25     ecut=    70.00 Ry     beta= 0.70
     Davidson diagonalization with overlap
     ethr =  8.65E-10,  avg # of iterations =  3.0

     negative rho (up, down):  2.845E-03 0.000E+00

     total cpu time spent up to now is     1423.0 secs

     End of self-consistent calculation

          k = 0.0000 0.0000 0.0000 ( 87777 PWs)   bands (ev):

   -71.8002 -44.0987 -44.0953 -42.9774 -19.6200 -18.7815 -18.7794 -18.6894
   -18.6888 -18.6882 -18.3137 -16.9336 -16.9329 -16.9284 -16.8219 -16.8217
   -16.5222 -16.0796 -16.0791 -15.9809 -15.8989 -15.8969 -15.1847 -13.9412
   -13.9402 -13.8984 -13.8508 -13.8508 -13.1868 -12.9246 -12.9237 -12.8951
   -12.5705 -12.5690 -12.1329 -11.6836 -11.6829 -11.5197 -11.2144 -11.2125
   -10.2507  -9.4612  -9.4612  -9.3021  -9.1714  -9.1713  -9.0801  -9.0488
    -9.0488  -9.0377  -8.5260  -8.5206  -8.0187  -7.9753  -7.9749  -7.8738
    -7.6886  -7.6562  -7.2696  -7.2681  -7.0123  -6.9712  -6.9368  -6.6860
    -6.6856  -6.6760  -6.6745  -6.6453  -6.5784  -6.4176  -6.4174  -6.3900
    -6.3854  -6.3844  -6.3365  -6.2528  -5.3703  -5.3488  -5.3084  -5.3076
    -5.0429  -5.0427  -4.8417  -4.7481  -4.5943  -4.5727  -4.5707  -4.2361
    -4.2211  -4.0217  -4.0211  -3.7061  -3.7047  -3.6242  -3.5240  -3.5234
    -3.4477  -3.4474  -2.9565  -2.4182  -2.4145  -1.7046  -1.6622  -1.6621
    -0.6839  -0.5208  -0.5205  -0.3289   1.0799   1.0985   1.1003   1.7864
     1.8850   1.8867   2.3829   2.9361   2.9399   3.0012   3.3687   3.3716
     3.4764   3.6512   3.6613   3.7085   3.8035   3.8165   3.8693

     occupation numbers 
     1.0000   1.0000   1.0000   1.0000   1.0000   1.0000   1.0000   1.0000
     1.0000   1.0000   1.0000   1.0000   1.0000   1.0000   1.0000   1.0000
     1.0000   1.0000   1.0000   1.0000   1.0000   1.0000   1.0000   1.0000
     1.0000   1.0000   1.0000   1.0000   1.0000   1.0000   1.0000   1.0000
     1.0000   1.0000   1.0000   1.0000   1.0000   1.0000   1.0000   1.0000
     1.0000   1.0000   1.0000   1.0000   1.0000   1.0000   1.0000   1.0000
     1.0000   1.0000   1.0000   1.0000   1.0000   1.0000   1.0000   1.0000
     1.0000   1.0000   1.0000   1.0000   1.0000   1.0000   1.0000   1.0000
     1.0000   1.0000   1.0000   1.0000   1.0000   1.0000   1.0000   1.0000
     1.0000   1.0000   1.0000   1.0000   1.0000   1.0000   1.0000   1.0000
     1.0000   1.0000   1.0000   1.0000   1.0000   1.0000   1.0000   1.0000
     1.0000   1.0000   1.0000   1.0000   1.0000   1.0000   1.0000   1.0000
     1.0000   1.0000   1.0000   1.0000   1.0000   1.0000   1.0000   1.0000
     1.0000   0.5085   0.4915   0.0000   0.0000   0.0000   0.0000   0.0000
     0.0000   0.0000   0.0000   0.0000   0.0000   0.0000   0.0000   0.0000
     0.0000   0.0000   0.0000   0.0000   0.0000   0.0000   0.0000

     the Fermi energy is    -0.5187 ev

!    total energy              =    -786.94837128 Ry
     Harris-Foulkes estimate   =    -786.94837166 Ry
     estimated scf accuracy    <       0.00000021 Ry

     The total energy is the sum of the following terms:

     one-electron contribution =   -2659.03933741 Ry
     hartree contribution      =    1375.26784454 Ry
     xc contribution           =    -254.35546863 Ry
     ewald contribution        =     751.17924640 Ry
     smearing contrib. (-TS)   =      -0.00065617 Ry

     convergence has been achieved in  25 iterations

     Writing output data file gr-12.save/

     init_run     :     51.34s CPU     52.50s WALL (       1 calls)
     electrons    :   1329.24s CPU   1369.54s WALL (       1 calls)

     Called by init_run:
     wfcinit      :     20.49s CPU     20.62s WALL (       1 calls)
     wfcinit:atom :      0.02s CPU      0.04s WALL (       1 calls)
     wfcinit:wfcr :     20.32s CPU     20.39s WALL (       1 calls)
     potinit      :     13.39s CPU     13.81s WALL (       1 calls)
     hinit0       :     12.87s CPU     12.89s WALL (       1 calls)

     Called by electrons:
     c_bands      :    823.96s CPU    828.98s WALL (      25 calls)
     sum_band     :    249.61s CPU    262.80s WALL (      25 calls)
     v_of_rho     :    155.42s CPU    164.95s WALL (      26 calls)
     v_h          :      1.80s CPU      1.86s WALL (      26 calls)
     v_xc         :    153.61s CPU    163.08s WALL (      26 calls)
     newd         :    102.48s CPU    115.81s WALL (      26 calls)
     mix_rho      :      4.88s CPU      4.95s WALL (      25 calls)

     Called by c_bands:
     init_us_2    :      2.13s CPU      2.17s WALL (      51 calls)
     cegterg      :    818.49s CPU    823.48s WALL (      25 calls)

     Called by sum_band:
     sum_band:bec :      0.02s CPU      0.02s WALL (      25 calls)
     addusdens    :    155.25s CPU    167.75s WALL (      25 calls)

     Called by *egterg:
     h_psi        :    425.08s CPU    428.55s WALL (     116 calls)
     s_psi        :    143.91s CPU    144.02s WALL (     116 calls)
     g_psi        :      0.45s CPU      0.45s WALL (      90 calls)
     cdiaghg      :      8.15s CPU      8.16s WALL (     115 calls)
     cegterg:over :    102.35s CPU    102.44s WALL (      90 calls)
     cegterg:upda :     65.99s CPU     66.37s WALL (      90 calls)
     cegterg:last :     48.07s CPU     48.10s WALL (      26 calls)

     Called by h_psi:
     h_psi:pot    :    424.56s CPU    427.47s WALL (     116 calls)
     h_psi:calbec :    143.92s CPU    144.05s WALL (     116 calls)
     vloc_psi     :    136.77s CPU    139.46s WALL (     116 calls)
     add_vuspsi   :    143.86s CPU    143.96s WALL (     116 calls)

     General routines
     calbec       :    202.69s CPU    202.87s WALL (     141 calls)
     fft          :     87.10s CPU     90.48s WALL (    1636 calls)
     ffts         :      0.87s CPU      0.91s WALL (      51 calls)
     fftw         :    143.53s CPU    146.45s WALL (   18771 calls)
     interpolate  :      2.14s CPU      2.21s WALL (      26 calls)

     Parallel routines
     fft_scatt_xy :     38.98s CPU     39.52s WALL (   20458 calls)
     fft_scatt_yz :     79.69s CPU     84.28s WALL (   20458 calls)

     PWSCF        :  23m 1.77s CPU  23m43.47s WALL


   This run was terminated on:   8: 4:31  20Jul2022            

=------------------------------------------------------------------------------=
   JOB DONE.
=------------------------------------------------------------------------------=
