
     Program PWSCF v.6.4.1 starts on 20Jul2022 at  4:51: 6 

     This program is part of the open-source Quantum ESPRESSO suite
     for quantum simulation of materials; please cite
         "P. Giannozzi et al., J. Phys.:Condens. Matter 21 395502 (2009);
         "P. Giannozzi et al., J. Phys.:Condens. Matter 29 465901 (2017);
          URL http://www.quantum-espresso.org", 
     in publications or presentations arising from this work. More details at
     http://www.quantum-espresso.org/quote

     Parallel version (MPI), running on     6 processors

     MPI processes distributed on     1 nodes
     R & G space division:  proc/nbgrp/npool/nimage =       6
     Reading input from distance-4.5.in

     Current dimensions of program PWSCF are:
     Max number of different atomic species (ntypx) = 10
     Max number of k-points (npk) =  40000
     Max angular momentum in pseudopotentials (lmaxx) =  3

     IMPORTANT: XC functional enforced from input :
     Exchange-correlation      = RVV10 ( 1  4 13  4 3 0)
     Any further DFT definition will be discarded
     Please, verify this is what you really want

               file H.pbe-rrkjus.UPF: wavefunction(s)  1S renormalized
               file Cr.pbe-spn-rrkjus_psl.1.0.0.UPF: wavefunction(s)  3P renormalized

     Subspace diagonalization in iterative solution of the eigenvalue problem:
     a serial algorithm will be used


     Parallelization info
     --------------------
     sticks:   dense  smooth     PW     G-vecs:    dense   smooth      PW
     Min        3051    1746    432               270999   117096   14629
     Max        3053    1747    437               271001   117099   14630
     Sum       18313   10477   2611              1626001   702581   87777



     bravais-lattice index     =            4
     lattice parameter (alat)  =      23.2937  a.u.
     unit-cell volume          =    8879.8548 (a.u.)^3
     number of atoms/cell      =           52
     number of atomic types    =            3
     number of electrons       =       212.00
     number of Kohn-Sham states=          127
     kinetic-energy cutoff     =      70.0000  Ry
     charge density cutoff     =     490.0000  Ry
     convergence threshold     =      1.0E-06
     mixing beta               =       0.7000
     number of iterations used =            8  plain     mixing
     Exchange-correlation      = RVV10 ( 1  4 13  4 3 0)

     celldm(1)=  23.293684  celldm(2)=   0.000000  celldm(3)=   0.811261
     celldm(4)=   0.000000  celldm(5)=   0.000000  celldm(6)=   0.000000

     crystal axes: (cart. coord. in units of alat)
               a(1) = (   1.000000   0.000000   0.000000 )  
               a(2) = (  -0.500000   0.866025   0.000000 )  
               a(3) = (   0.000000   0.000000   0.811261 )  

     reciprocal axes: (cart. coord. in units 2 pi/alat)
               b(1) = (  1.000000  0.577350 -0.000000 )  
               b(2) = (  0.000000  1.154701  0.000000 )  
               b(3) = (  0.000000 -0.000000  1.232649 )  


     PseudoPot. # 1 for H  read from file:
     /home/cristian/Escritorio/Proyecto_Grafeno/pseudopotenciales/H.pbe-rrkjus.UPF
     MD5 check sum: 7cc9d459525c9a0585f487a71c3c9563
     Pseudo is Ultrasoft, Zval =  1.0
     Generated by new atomic code, or converted to UPF format
     Using radial grid of 1061 points,  2 beta functions with: 
                l(1) =   0
                l(2) =   0
     Q(r) pseudized with 0 coefficients 


     PseudoPot. # 2 for C  read from file:
     /home/cristian/Escritorio/Proyecto_Grafeno/pseudopotenciales/C.pbe-n-rrkjus_psl.1.0.0.UPF
     MD5 check sum: 1fdd950c42eb37d8afe3dd2f8d12311e
     Pseudo is Ultrasoft + core correction, Zval =  4.0
     Generated using "atomic" code by A. Dal Corso v.6.3MaX
     Using radial grid of 1073 points,  4 beta functions with: 
                l(1) =   0
                l(2) =   0
                l(3) =   1
                l(4) =   1
     Q(r) pseudized with 0 coefficients 


     PseudoPot. # 3 for Cr read from file:
     /home/cristian/Escritorio/Proyecto_Grafeno/pseudopotenciales/Cr.pbe-spn-rrkjus_psl.1.0.0.UPF
     MD5 check sum: 793d051e4f89dd1e3290b85340a92c0a
     Pseudo is Ultrasoft + core correction, Zval = 14.0
     Generated using "atomic" code by A. Dal Corso v.6.2.2
     Using radial grid of 1183 points,  6 beta functions with: 
                l(1) =   0
                l(2) =   0
                l(3) =   1
                l(4) =   1
                l(5) =   2
                l(6) =   2
     Q(r) pseudized with 0 coefficients 


     vdW kernel table read from file rVV10_kernel_table
     MD5 check sum: b8e2538accc0c0b3206b45ba4daaba6c

     atomic species   valence    mass     pseudopotential
        H              1.00     1.00794     H ( 1.00)
        C              4.00    12.01070     C ( 1.00)
        Cr            14.00    51.99610     Cr( 1.00)

     No symmetry found


                                    s                        frac. trans.

      isym =  1     identity                                     

 cryst.   s( 1) = (     1          0          0      )
                  (     0          1          0      )
                  (     0          0          1      )

 cart.    s( 1) = (  1.0000000  0.0000000  0.0000000 )
                  (  0.0000000  1.0000000  0.0000000 )
                  (  0.0000000  0.0000000  1.0000000 )


     point group C_1 (1)    
     there are  1 classes
     the character table:

       E    
A      1.00

     the symmetry operations in each class and the name of the first element:

     E        1
          identity                                               

   Cartesian axes

     site n.     atom                  positions (alat units)
         1           H   tau(   1) = (   0.2500000   0.4907477   0.3650675  )
         2           H   tau(   2) = (   0.2500000   0.4907477   0.4260802  )
         3           C   tau(   3) = (   0.0000000   0.0000000   0.0000000  )
         4           C   tau(   4) = (   0.0000000   0.1154701   0.0000000  )
         5           C   tau(   5) = (  -0.1000000   0.1732051   0.0000000  )
         6           C   tau(   6) = (  -0.1000000   0.2886751   0.0000000  )
         7           C   tau(   7) = (  -0.2000000   0.3464102   0.0000000  )
         8           C   tau(   8) = (  -0.2000000   0.4618802   0.0000000  )
         9           C   tau(   9) = (  -0.3000000   0.5196152   0.0000000  )
        10           C   tau(  10) = (  -0.3000000   0.6350853   0.0000000  )
        11           C   tau(  11) = (  -0.4000000   0.6928203   0.0000000  )
        12           C   tau(  12) = (  -0.4000000   0.8082904   0.0000000  )
        13           C   tau(  13) = (   0.2000000   0.0000000   0.0000000  )
        14           C   tau(  14) = (   0.2000000   0.1154701   0.0000000  )
        15           C   tau(  15) = (   0.1000000   0.1732051   0.0000000  )
        16           C   tau(  16) = (   0.1000000   0.2886751   0.0000000  )
        17           C   tau(  17) = (   0.0000000   0.3464102   0.0000000  )
        18           C   tau(  18) = (   0.0000000   0.4618802   0.0000000  )
        19           C   tau(  19) = (  -0.1000000   0.5196152   0.0000000  )
        20           C   tau(  20) = (  -0.1000000   0.6350853   0.0000000  )
        21           C   tau(  21) = (  -0.2000000   0.6928203   0.0000000  )
        22           C   tau(  22) = (  -0.2000000   0.8082904   0.0000000  )
        23           C   tau(  23) = (   0.4000000   0.0000000   0.0000000  )
        24           C   tau(  24) = (   0.4000000   0.1154701   0.0000000  )
        25           C   tau(  25) = (   0.3000000   0.1732051   0.0000000  )
        26           C   tau(  26) = (   0.3000000   0.2886751   0.0000000  )
        27           C   tau(  27) = (   0.2000000   0.3464102   0.0000000  )
        28           Cr  tau(  28) = (   0.2000000   0.4618802   0.0000000  )
        29           C   tau(  29) = (   0.1000000   0.5196152   0.0000000  )
        30           C   tau(  30) = (   0.1000000   0.6350853   0.0000000  )
        31           C   tau(  31) = (   0.0000000   0.6928203   0.0000000  )
        32           C   tau(  32) = (   0.0000000   0.8082904   0.0000000  )
        33           C   tau(  33) = (   0.6000000   0.0000000   0.0000000  )
        34           C   tau(  34) = (   0.6000000   0.1154701   0.0000000  )
        35           C   tau(  35) = (   0.5000000   0.1732051   0.0000000  )
        36           C   tau(  36) = (   0.5000000   0.2886751   0.0000000  )
        37           C   tau(  37) = (   0.4000000   0.3464102   0.0000000  )
        38           C   tau(  38) = (   0.4000000   0.4618802   0.0000000  )
        39           C   tau(  39) = (   0.3000000   0.5196152   0.0000000  )
        40           C   tau(  40) = (   0.3000000   0.6350853   0.0000000  )
        41           C   tau(  41) = (   0.2000000   0.6928203   0.0000000  )
        42           C   tau(  42) = (   0.2000000   0.8082904   0.0000000  )
        43           C   tau(  43) = (   0.8000000   0.0000000   0.0000000  )
        44           C   tau(  44) = (   0.8000000   0.1154701   0.0000000  )
        45           C   tau(  45) = (   0.7000000   0.1732051   0.0000000  )
        46           C   tau(  46) = (   0.7000000   0.2886751   0.0000000  )
        47           C   tau(  47) = (   0.6000000   0.3464102   0.0000000  )
        48           C   tau(  48) = (   0.6000000   0.4618802   0.0000000  )
        49           C   tau(  49) = (   0.5000000   0.5196152   0.0000000  )
        50           C   tau(  50) = (   0.5000000   0.6350853   0.0000000  )
        51           C   tau(  51) = (   0.4000000   0.6928203   0.0000000  )
        52           C   tau(  52) = (   0.4000000   0.8082904   0.0000000  )

   Crystallographic axes

     site n.     atom                  positions (cryst. coord.)
         1           H   tau(   1) = (  0.5333333  0.5666667  0.4500000  )
         2           H   tau(   2) = (  0.5333333  0.5666667  0.5252072  )
         3           C   tau(   3) = (  0.0000000  0.0000000  0.0000000  )
         4           C   tau(   4) = (  0.0666667  0.1333333  0.0000000  )
         5           C   tau(   5) = (  0.0000000  0.2000000  0.0000000  )
         6           C   tau(   6) = (  0.0666667  0.3333333  0.0000000  )
         7           C   tau(   7) = (  0.0000000  0.4000000  0.0000000  )
         8           C   tau(   8) = (  0.0666667  0.5333333  0.0000000  )
         9           C   tau(   9) = (  0.0000000  0.6000000  0.0000000  )
        10           C   tau(  10) = (  0.0666667  0.7333333  0.0000000  )
        11           C   tau(  11) = (  0.0000000  0.8000000  0.0000000  )
        12           C   tau(  12) = (  0.0666667  0.9333333  0.0000000  )
        13           C   tau(  13) = (  0.2000000  0.0000000  0.0000000  )
        14           C   tau(  14) = (  0.2666667  0.1333333  0.0000000  )
        15           C   tau(  15) = (  0.2000000  0.2000000  0.0000000  )
        16           C   tau(  16) = (  0.2666667  0.3333333  0.0000000  )
        17           C   tau(  17) = (  0.2000000  0.4000000  0.0000000  )
        18           C   tau(  18) = (  0.2666667  0.5333333  0.0000000  )
        19           C   tau(  19) = (  0.2000000  0.6000000  0.0000000  )
        20           C   tau(  20) = (  0.2666667  0.7333333  0.0000000  )
        21           C   tau(  21) = (  0.2000000  0.8000000  0.0000000  )
        22           C   tau(  22) = (  0.2666667  0.9333333  0.0000000  )
        23           C   tau(  23) = (  0.4000000  0.0000000  0.0000000  )
        24           C   tau(  24) = (  0.4666667  0.1333333  0.0000000  )
        25           C   tau(  25) = (  0.4000000  0.2000000  0.0000000  )
        26           C   tau(  26) = (  0.4666667  0.3333333  0.0000000  )
        27           C   tau(  27) = (  0.4000000  0.4000000  0.0000000  )
        28           Cr  tau(  28) = (  0.4666667  0.5333333  0.0000000  )
        29           C   tau(  29) = (  0.4000000  0.6000000  0.0000000  )
        30           C   tau(  30) = (  0.4666667  0.7333333  0.0000000  )
        31           C   tau(  31) = (  0.4000000  0.8000000  0.0000000  )
        32           C   tau(  32) = (  0.4666667  0.9333333  0.0000000  )
        33           C   tau(  33) = (  0.6000000  0.0000000  0.0000000  )
        34           C   tau(  34) = (  0.6666667  0.1333333  0.0000000  )
        35           C   tau(  35) = (  0.6000000  0.2000000  0.0000000  )
        36           C   tau(  36) = (  0.6666667  0.3333333  0.0000000  )
        37           C   tau(  37) = (  0.6000000  0.4000000  0.0000000  )
        38           C   tau(  38) = (  0.6666667  0.5333333  0.0000000  )
        39           C   tau(  39) = (  0.6000000  0.6000000  0.0000000  )
        40           C   tau(  40) = (  0.6666667  0.7333333  0.0000000  )
        41           C   tau(  41) = (  0.6000000  0.8000000  0.0000000  )
        42           C   tau(  42) = (  0.6666667  0.9333333  0.0000000  )
        43           C   tau(  43) = (  0.8000000  0.0000000  0.0000000  )
        44           C   tau(  44) = (  0.8666667  0.1333333  0.0000000  )
        45           C   tau(  45) = (  0.8000000  0.2000000  0.0000000  )
        46           C   tau(  46) = (  0.8666667  0.3333333  0.0000000  )
        47           C   tau(  47) = (  0.8000000  0.4000000  0.0000000  )
        48           C   tau(  48) = (  0.8666667  0.5333333  0.0000000  )
        49           C   tau(  49) = (  0.8000000  0.6000000  0.0000000  )
        50           C   tau(  50) = (  0.8666667  0.7333333  0.0000000  )
        51           C   tau(  51) = (  0.8000000  0.8000000  0.0000000  )
        52           C   tau(  52) = (  0.8666667  0.9333333  0.0000000  )

     number of k points=     1  Marzari-Vanderbilt smearing, width (Ry)=  0.0010
                       cart. coord. in units 2pi/alat
        k(    1) = (   0.0000000   0.0000000   0.0000000), wk =   2.0000000

                       cryst. coord.
        k(    1) = (   0.0000000   0.0000000   0.0000000), wk =   2.0000000

     Dense  grid:  1626001 G-vectors     FFT dimensions: ( 180, 180, 135)

     Smooth grid:   702581 G-vectors     FFT dimensions: ( 125, 125, 108)

     Dynamical RAM for                 wfc:      28.36 MB

     Dynamical RAM for     wfc (w. buffer):      28.36 MB

     Dynamical RAM for           str. fact:      12.41 MB

     Dynamical RAM for           local pot:       0.00 MB

     Dynamical RAM for          nlocal pot:      92.46 MB

     Dynamical RAM for                qrad:      19.73 MB

     Dynamical RAM for          rho,v,vnew:      29.46 MB

     Dynamical RAM for               rhoin:       9.82 MB

     Dynamical RAM for            rho*nmix:      66.16 MB

     Dynamical RAM for           G-vectors:      16.40 MB

     Dynamical RAM for          h,s,v(r/c):      11.81 MB

     Dynamical RAM for          <psi|beta>:       0.80 MB

     Dynamical RAM for                 psi:     113.46 MB

     Dynamical RAM for                hpsi:     113.46 MB

     Dynamical RAM for                spsi:     113.46 MB

     Dynamical RAM for      wfcinit/wfcrot:      93.90 MB

     Dynamical RAM for           addusdens:     971.75 MB

     Estimated static dynamical RAM per process >     319.78 MB

     Estimated max dynamical RAM per process >       1.26 GB

     Estimated total dynamical RAM >       7.57 GB

     Check: negative core charge=   -0.000002

     Initial potential from superposition of free atoms

     starting charge  211.80478, renormalised to  212.00000

     negative rho (up, down):  4.314E-04 0.000E+00


---------------------------------------------------------------------------------
Carrying out rVV10 run using the following parameters:
Nqs =      20    Nr_points =    1024   r_max =   100.000
b_value =  6.30000    beta =  0.00901
     q_mesh =  0.00010000  0.00030000  0.00058939  0.00100810
               0.00161396  0.00249058  0.00375900  0.00559430
               0.00824984  0.01209221  0.01765183  0.02569619
               0.03733578  0.05417739  0.07854596  0.11380545
               0.16482331  0.23864234  0.34545298  0.50000000

Gradients computed in Reciprocal space

---------------------------------------------------------------------------------


     Starting wfcs are  208 randomized atomic wfcs

     total cpu time spent up to now is       50.1 secs

     Self-consistent Calculation

     iteration #  1     ecut=    70.00 Ry     beta= 0.70
     Davidson diagonalization with overlap
     ethr =  1.00E-02,  avg # of iterations =  2.0

     negative rho (up, down):  7.014E-04 0.000E+00

     total cpu time spent up to now is      115.3 secs

     total energy              =    -785.46192283 Ry
     Harris-Foulkes estimate   =    -789.92758796 Ry
     estimated scf accuracy    <       7.07403042 Ry

     iteration #  2     ecut=    70.00 Ry     beta= 0.70
     Davidson diagonalization with overlap
     ethr =  3.34E-03,  avg # of iterations =  8.0

     negative rho (up, down):  8.058E-04 0.000E+00

     total cpu time spent up to now is      181.5 secs

     total energy              =    -779.70412319 Ry
     Harris-Foulkes estimate   =    -788.32788013 Ry
     estimated scf accuracy    <      25.38921385 Ry

     iteration #  3     ecut=    70.00 Ry     beta= 0.70
     Davidson diagonalization with overlap
     ethr =  3.34E-03,  avg # of iterations =  5.0

     negative rho (up, down):  1.063E-03 0.000E+00

     total cpu time spent up to now is      259.2 secs

     total energy              =    -784.18582284 Ry
     Harris-Foulkes estimate   =    -790.70885611 Ry
     estimated scf accuracy    <      39.90560999 Ry

     iteration #  4     ecut=    70.00 Ry     beta= 0.70
     Davidson diagonalization with overlap
     ethr =  3.34E-03,  avg # of iterations =  4.0

     negative rho (up, down):  1.062E-03 0.000E+00

     total cpu time spent up to now is      310.8 secs

     total energy              =    -786.74971389 Ry
     Harris-Foulkes estimate   =    -787.28215718 Ry
     estimated scf accuracy    <       2.21477587 Ry

     iteration #  5     ecut=    70.00 Ry     beta= 0.70
     Davidson diagonalization with overlap
     ethr =  1.04E-03,  avg # of iterations =  3.0

     negative rho (up, down):  1.143E-03 0.000E+00

     total cpu time spent up to now is      360.7 secs

     total energy              =    -786.91748173 Ry
     Harris-Foulkes estimate   =    -786.99785540 Ry
     estimated scf accuracy    <       0.25213744 Ry

     iteration #  6     ecut=    70.00 Ry     beta= 0.70
     Davidson diagonalization with overlap
     ethr =  1.19E-04,  avg # of iterations =  4.0

     negative rho (up, down):  1.323E-03 0.000E+00

     total cpu time spent up to now is      416.8 secs

     total energy              =    -786.94140332 Ry
     Harris-Foulkes estimate   =    -786.99068931 Ry
     estimated scf accuracy    <       0.24345336 Ry

     iteration #  7     ecut=    70.00 Ry     beta= 0.70
     Davidson diagonalization with overlap
     ethr =  1.15E-04,  avg # of iterations =  1.0

     negative rho (up, down):  1.445E-03 0.000E+00

     total cpu time spent up to now is      464.9 secs

     total energy              =    -786.94029160 Ry
     Harris-Foulkes estimate   =    -786.95666170 Ry
     estimated scf accuracy    <       0.09569637 Ry

     iteration #  8     ecut=    70.00 Ry     beta= 0.70
     Davidson diagonalization with overlap
     ethr =  4.51E-05,  avg # of iterations =  2.0

     negative rho (up, down):  1.881E-03 0.000E+00

     total cpu time spent up to now is      513.6 secs

     total energy              =    -786.94377602 Ry
     Harris-Foulkes estimate   =    -786.95858871 Ry
     estimated scf accuracy    <       0.10295401 Ry

     iteration #  9     ecut=    70.00 Ry     beta= 0.70
     Davidson diagonalization with overlap
     ethr =  4.51E-05,  avg # of iterations =  2.0

     negative rho (up, down):  3.047E-03 0.000E+00

     total cpu time spent up to now is      561.9 secs

     total energy              =    -786.92883135 Ry
     Harris-Foulkes estimate   =    -786.95131311 Ry
     estimated scf accuracy    <       0.61979823 Ry

     iteration # 10     ecut=    70.00 Ry     beta= 0.70
     Davidson diagonalization with overlap
     ethr =  4.51E-05,  avg # of iterations =  7.0

     negative rho (up, down):  2.473E-03 0.000E+00

     total cpu time spent up to now is      611.8 secs

     total energy              =    -786.94223027 Ry
     Harris-Foulkes estimate   =    -786.94606106 Ry
     estimated scf accuracy    <       0.05751830 Ry

     iteration # 11     ecut=    70.00 Ry     beta= 0.70
     Davidson diagonalization with overlap
     ethr =  2.71E-05,  avg # of iterations =  1.0

     negative rho (up, down):  2.456E-03 0.000E+00

     total cpu time spent up to now is      659.9 secs

     total energy              =    -786.94248267 Ry
     Harris-Foulkes estimate   =    -786.94539768 Ry
     estimated scf accuracy    <       0.04454061 Ry

     iteration # 12     ecut=    70.00 Ry     beta= 0.70
     Davidson diagonalization with overlap
     ethr =  2.10E-05,  avg # of iterations =  1.0

     negative rho (up, down):  2.497E-03 0.000E+00

     total cpu time spent up to now is      708.0 secs

     total energy              =    -786.94336807 Ry
     Harris-Foulkes estimate   =    -786.94518520 Ry
     estimated scf accuracy    <       0.03685196 Ry

     iteration # 13     ecut=    70.00 Ry     beta= 0.70
     Davidson diagonalization with overlap
     ethr =  1.74E-05,  avg # of iterations = 11.0

     negative rho (up, down):  2.468E-03 0.000E+00

     total cpu time spent up to now is      759.0 secs

     total energy              =    -786.94393845 Ry
     Harris-Foulkes estimate   =    -786.94458172 Ry
     estimated scf accuracy    <       0.00525328 Ry

     iteration # 14     ecut=    70.00 Ry     beta= 0.70
     Davidson diagonalization with overlap
     ethr =  2.48E-06,  avg # of iterations = 11.0

     negative rho (up, down):  2.459E-03 0.000E+00

     total cpu time spent up to now is      811.0 secs

     total energy              =    -786.94415469 Ry
     Harris-Foulkes estimate   =    -786.94425082 Ry
     estimated scf accuracy    <       0.00186975 Ry

     iteration # 15     ecut=    70.00 Ry     beta= 0.70
     Davidson diagonalization with overlap
     ethr =  8.82E-07,  avg # of iterations =  2.0

     negative rho (up, down):  2.459E-03 0.000E+00

     total cpu time spent up to now is      859.3 secs

     total energy              =    -786.94419243 Ry
     Harris-Foulkes estimate   =    -786.94424191 Ry
     estimated scf accuracy    <       0.00161323 Ry

     iteration # 16     ecut=    70.00 Ry     beta= 0.70
     Davidson diagonalization with overlap
     ethr =  7.61E-07,  avg # of iterations =  1.0

     negative rho (up, down):  2.454E-03 0.000E+00

     total cpu time spent up to now is      907.4 secs

     total energy              =    -786.94419729 Ry
     Harris-Foulkes estimate   =    -786.94421187 Ry
     estimated scf accuracy    <       0.00144360 Ry

     iteration # 17     ecut=    70.00 Ry     beta= 0.70
     Davidson diagonalization with overlap
     ethr =  6.81E-07,  avg # of iterations =  1.0

     negative rho (up, down):  2.452E-03 0.000E+00

     total cpu time spent up to now is      955.4 secs

     total energy              =    -786.94416484 Ry
     Harris-Foulkes estimate   =    -786.94420373 Ry
     estimated scf accuracy    <       0.00160204 Ry

     iteration # 18     ecut=    70.00 Ry     beta= 0.70
     Davidson diagonalization with overlap
     ethr =  6.81E-07,  avg # of iterations =  1.0

     negative rho (up, down):  2.453E-03 0.000E+00

     total cpu time spent up to now is     1003.6 secs

     total energy              =    -786.94367425 Ry
     Harris-Foulkes estimate   =    -786.94417309 Ry
     estimated scf accuracy    <       0.00114608 Ry

     iteration # 19     ecut=    70.00 Ry     beta= 0.70
     Davidson diagonalization with overlap
     ethr =  5.41E-07,  avg # of iterations =  4.0

     negative rho (up, down):  2.463E-03 0.000E+00

     total cpu time spent up to now is     1058.6 secs

     total energy              =    -786.94387491 Ry
     Harris-Foulkes estimate   =    -786.94414423 Ry
     estimated scf accuracy    <       0.00201991 Ry

     iteration # 20     ecut=    70.00 Ry     beta= 0.70
     Davidson diagonalization with overlap
     ethr =  5.41E-07,  avg # of iterations =  3.0

     negative rho (up, down):  2.470E-03 0.000E+00

     total cpu time spent up to now is     1108.4 secs

     total energy              =    -786.94401014 Ry
     Harris-Foulkes estimate   =    -786.94403454 Ry
     estimated scf accuracy    <       0.00024296 Ry

     iteration # 21     ecut=    70.00 Ry     beta= 0.70
     Davidson diagonalization with overlap
     ethr =  1.15E-07,  avg # of iterations =  2.0

     negative rho (up, down):  2.472E-03 0.000E+00

     total cpu time spent up to now is     1157.2 secs

     total energy              =    -786.94401042 Ry
     Harris-Foulkes estimate   =    -786.94403140 Ry
     estimated scf accuracy    <       0.00015273 Ry

     iteration # 22     ecut=    70.00 Ry     beta= 0.70
     Davidson diagonalization with overlap
     ethr =  7.20E-08,  avg # of iterations =  1.0

     negative rho (up, down):  2.472E-03 0.000E+00

     total cpu time spent up to now is     1205.3 secs

     total energy              =    -786.94399324 Ry
     Harris-Foulkes estimate   =    -786.94405688 Ry
     estimated scf accuracy    <       0.00195389 Ry

     iteration # 23     ecut=    70.00 Ry     beta= 0.70
     Davidson diagonalization with overlap
     ethr =  7.20E-08,  avg # of iterations =  1.0

     negative rho (up, down):  2.473E-03 0.000E+00

     total cpu time spent up to now is     1253.4 secs

     total energy              =    -786.94402355 Ry
     Harris-Foulkes estimate   =    -786.94402933 Ry
     estimated scf accuracy    <       0.00010867 Ry

     iteration # 24     ecut=    70.00 Ry     beta= 0.70
     Davidson diagonalization with overlap
     ethr =  5.13E-08,  avg # of iterations =  1.0

     negative rho (up, down):  2.474E-03 0.000E+00

     total cpu time spent up to now is     1301.5 secs

     total energy              =    -786.94402623 Ry
     Harris-Foulkes estimate   =    -786.94402661 Ry
     estimated scf accuracy    <       0.00000441 Ry

     iteration # 25     ecut=    70.00 Ry     beta= 0.70
     Davidson diagonalization with overlap
     ethr =  2.08E-09,  avg # of iterations =  4.0

     negative rho (up, down):  2.475E-03 0.000E+00

     total cpu time spent up to now is     1352.6 secs

     total energy              =    -786.94402682 Ry
     Harris-Foulkes estimate   =    -786.94402701 Ry
     estimated scf accuracy    <       0.00000194 Ry

     iteration # 26     ecut=    70.00 Ry     beta= 0.70
     Davidson diagonalization with overlap
     ethr =  9.14E-10,  avg # of iterations =  2.0

     negative rho (up, down):  2.475E-03 0.000E+00

     total cpu time spent up to now is     1402.0 secs

     total energy              =    -786.94402714 Ry
     Harris-Foulkes estimate   =    -786.94402701 Ry
     estimated scf accuracy    <       0.00000150 Ry

     iteration # 27     ecut=    70.00 Ry     beta= 0.70
     Davidson diagonalization with overlap
     ethr =  7.06E-10,  avg # of iterations =  2.0

     negative rho (up, down):  2.476E-03 0.000E+00

     total cpu time spent up to now is     1452.0 secs

     End of self-consistent calculation

          k = 0.0000 0.0000 0.0000 ( 87777 PWs)   bands (ev):

   -71.8525 -44.1462 -44.1458 -43.0349 -19.6388 -18.8004 -18.8004 -18.7074
   -18.7074 -18.7062 -18.3364 -16.9530 -16.9529 -16.9477 -16.8419 -16.8419
   -16.5402 -16.0997 -16.0996 -15.9993 -15.9185 -15.9183 -15.2052 -13.9629
   -13.9629 -13.9197 -13.8687 -13.8687 -13.2057 -12.9438 -12.9438 -12.9144
   -12.5893 -12.5893 -12.1512 -11.7043 -11.7042 -11.5395 -11.2334 -11.2333
   -10.2673  -9.4845  -9.4844  -9.3258  -9.1915  -9.1914  -9.0984  -9.0669
    -9.0668  -9.0555  -8.5405  -8.5405  -7.9968  -7.9967  -7.8983  -7.7916
    -7.7091  -7.2884  -7.2884  -7.0371  -7.0365  -6.9816  -6.7168  -6.7070
    -6.7069  -6.6922  -6.6920  -6.6688  -6.6010  -6.4369  -6.4368  -6.4083
    -6.4034  -6.4034  -6.3915  -6.3550  -5.3993  -5.3988  -5.3277  -5.3277
    -5.0635  -5.0634  -4.8616  -4.7671  -4.6125  -4.5893  -4.5890  -4.2740
    -4.2565  -4.0402  -4.0402  -3.7232  -3.7229  -3.6414  -3.5446  -3.5445
    -3.4801  -3.4801  -3.0094  -2.4377  -2.4377  -1.7241  -1.6791  -1.6790
    -0.7209  -0.5440  -0.5440  -0.5047   1.0609   1.0829   1.0830   1.7713
     1.8657   1.8658   2.4550   2.9216   2.9216   2.9821   3.3539   3.4084
     3.4114   3.6555   3.6639   3.7060   3.7958   3.7979   3.8284

     occupation numbers 
     1.0000   1.0000   1.0000   1.0000   1.0000   1.0000   1.0000   1.0000
     1.0000   1.0000   1.0000   1.0000   1.0000   1.0000   1.0000   1.0000
     1.0000   1.0000   1.0000   1.0000   1.0000   1.0000   1.0000   1.0000
     1.0000   1.0000   1.0000   1.0000   1.0000   1.0000   1.0000   1.0000
     1.0000   1.0000   1.0000   1.0000   1.0000   1.0000   1.0000   1.0000
     1.0000   1.0000   1.0000   1.0000   1.0000   1.0000   1.0000   1.0000
     1.0000   1.0000   1.0000   1.0000   1.0000   1.0000   1.0000   1.0000
     1.0000   1.0000   1.0000   1.0000   1.0000   1.0000   1.0000   1.0000
     1.0000   1.0000   1.0000   1.0000   1.0000   1.0000   1.0000   1.0000
     1.0000   1.0000   1.0000   1.0000   1.0000   1.0000   1.0000   1.0000
     1.0000   1.0000   1.0000   1.0000   1.0000   1.0000   1.0000   1.0000
     1.0000   1.0000   1.0000   1.0000   1.0000   1.0000   1.0000   1.0000
     1.0000   1.0000   1.0000   1.0000   1.0000   1.0000   1.0000   1.0000
     1.0000   0.5009   0.4991   0.0000   0.0000   0.0000   0.0000   0.0000
     0.0000   0.0000   0.0000   0.0000   0.0000   0.0000   0.0000   0.0000
     0.0000   0.0000   0.0000   0.0000   0.0000   0.0000   0.0000

     the Fermi energy is    -0.5421 ev

!    total energy              =    -786.94402749 Ry
     Harris-Foulkes estimate   =    -786.94402730 Ry
     estimated scf accuracy    <       0.00000021 Ry

     The total energy is the sum of the following terms:

     one-electron contribution =   -2629.96403883 Ry
     hartree contribution      =    1360.61647498 Ry
     xc contribution           =    -254.33389145 Ry
     ewald contribution        =     736.73808419 Ry
     smearing contrib. (-TS)   =      -0.00065638 Ry

     convergence has been achieved in  27 iterations

     Writing output data file gr-12.save/

     init_run     :     47.72s CPU     48.99s WALL (       1 calls)
     electrons    :   1358.38s CPU   1402.05s WALL (       1 calls)

     Called by init_run:
     wfcinit      :     20.59s CPU     20.78s WALL (       1 calls)
     wfcinit:atom :      0.03s CPU      0.04s WALL (       1 calls)
     wfcinit:wfcr :     20.39s CPU     20.55s WALL (       1 calls)
     potinit      :     12.10s CPU     12.54s WALL (       1 calls)
     hinit0       :     10.55s CPU     10.57s WALL (       1 calls)

     Called by electrons:
     c_bands      :    811.35s CPU    815.95s WALL (      27 calls)
     sum_band     :    269.32s CPU    284.22s WALL (      27 calls)
     v_of_rho     :    168.88s CPU    179.27s WALL (      28 calls)
     v_h          :      1.91s CPU      1.99s WALL (      28 calls)
     v_xc         :    166.97s CPU    177.28s WALL (      28 calls)
     newd         :    110.34s CPU    124.88s WALL (      28 calls)
     mix_rho      :      5.37s CPU      5.47s WALL (      27 calls)

     Called by c_bands:
     init_us_2    :      2.31s CPU      2.35s WALL (      55 calls)
     cegterg      :    805.17s CPU    809.74s WALL (      27 calls)

     Called by sum_band:
     sum_band:bec :      0.02s CPU      0.02s WALL (      27 calls)
     addusdens    :    165.99s CPU    180.11s WALL (      27 calls)

     Called by *egterg:
     h_psi        :    428.78s CPU    432.07s WALL (     115 calls)
     s_psi        :    144.06s CPU    144.15s WALL (     115 calls)
     g_psi        :      0.42s CPU      0.42s WALL (      87 calls)
     cdiaghg      :      7.59s CPU      7.60s WALL (     114 calls)
     cegterg:over :     97.18s CPU     97.24s WALL (      87 calls)
     cegterg:upda :     56.85s CPU     57.19s WALL (      87 calls)
     cegterg:last :     42.05s CPU     42.06s WALL (      27 calls)

     Called by h_psi:
     h_psi:pot    :    428.21s CPU    431.00s WALL (     115 calls)
     h_psi:calbec :    144.72s CPU    144.79s WALL (     115 calls)
     vloc_psi     :    139.82s CPU    142.51s WALL (     115 calls)
     add_vuspsi   :    143.66s CPU    143.70s WALL (     115 calls)

     General routines
     calbec       :    208.34s CPU    208.45s WALL (     142 calls)
     fft          :     94.30s CPU     98.10s WALL (    1762 calls)
     ffts         :      0.98s CPU      1.02s WALL (      55 calls)
     fftw         :    149.72s CPU    152.76s WALL (   19053 calls)
     interpolate  :      2.31s CPU      2.37s WALL (      28 calls)

     Parallel routines
     fft_scatt_xy :     41.54s CPU     42.15s WALL (   20870 calls)
     fft_scatt_yz :     85.69s CPU     90.60s WALL (   20870 calls)

     PWSCF        :  23m27.27s CPU  24m12.48s WALL


   This run was terminated on:   5:15:18  20Jul2022            

=------------------------------------------------------------------------------=
   JOB DONE.
=------------------------------------------------------------------------------=
