
     Program PWSCF v.6.4.1 starts on 20Jul2022 at  5:40:14 

     This program is part of the open-source Quantum ESPRESSO suite
     for quantum simulation of materials; please cite
         "P. Giannozzi et al., J. Phys.:Condens. Matter 21 395502 (2009);
         "P. Giannozzi et al., J. Phys.:Condens. Matter 29 465901 (2017);
          URL http://www.quantum-espresso.org", 
     in publications or presentations arising from this work. More details at
     http://www.quantum-espresso.org/quote

     Parallel version (MPI), running on     6 processors

     MPI processes distributed on     1 nodes
     R & G space division:  proc/nbgrp/npool/nimage =       6
     Reading input from distance-3.5.in

     Current dimensions of program PWSCF are:
     Max number of different atomic species (ntypx) = 10
     Max number of k-points (npk) =  40000
     Max angular momentum in pseudopotentials (lmaxx) =  3

     IMPORTANT: XC functional enforced from input :
     Exchange-correlation      = RVV10 ( 1  4 13  4 3 0)
     Any further DFT definition will be discarded
     Please, verify this is what you really want

               file H.pbe-rrkjus.UPF: wavefunction(s)  1S renormalized
               file Cr.pbe-spn-rrkjus_psl.1.0.0.UPF: wavefunction(s)  3P renormalized

     Subspace diagonalization in iterative solution of the eigenvalue problem:
     a serial algorithm will be used


     Parallelization info
     --------------------
     sticks:   dense  smooth     PW     G-vecs:    dense   smooth      PW
     Min        3051    1746    432               270999   117096   14629
     Max        3053    1747    437               271001   117099   14630
     Sum       18313   10477   2611              1626001   702581   87777



     bravais-lattice index     =            4
     lattice parameter (alat)  =      23.2937  a.u.
     unit-cell volume          =    8879.8548 (a.u.)^3
     number of atoms/cell      =           52
     number of atomic types    =            3
     number of electrons       =       212.00
     number of Kohn-Sham states=          127
     kinetic-energy cutoff     =      70.0000  Ry
     charge density cutoff     =     490.0000  Ry
     convergence threshold     =      1.0E-06
     mixing beta               =       0.7000
     number of iterations used =            8  plain     mixing
     Exchange-correlation      = RVV10 ( 1  4 13  4 3 0)

     celldm(1)=  23.293684  celldm(2)=   0.000000  celldm(3)=   0.811261
     celldm(4)=   0.000000  celldm(5)=   0.000000  celldm(6)=   0.000000

     crystal axes: (cart. coord. in units of alat)
               a(1) = (   1.000000   0.000000   0.000000 )  
               a(2) = (  -0.500000   0.866025   0.000000 )  
               a(3) = (   0.000000   0.000000   0.811261 )  

     reciprocal axes: (cart. coord. in units 2 pi/alat)
               b(1) = (  1.000000  0.577350 -0.000000 )  
               b(2) = (  0.000000  1.154701  0.000000 )  
               b(3) = (  0.000000 -0.000000  1.232649 )  


     PseudoPot. # 1 for H  read from file:
     /home/cristian/Escritorio/Proyecto_Grafeno/pseudopotenciales/H.pbe-rrkjus.UPF
     MD5 check sum: 7cc9d459525c9a0585f487a71c3c9563
     Pseudo is Ultrasoft, Zval =  1.0
     Generated by new atomic code, or converted to UPF format
     Using radial grid of 1061 points,  2 beta functions with: 
                l(1) =   0
                l(2) =   0
     Q(r) pseudized with 0 coefficients 


     PseudoPot. # 2 for C  read from file:
     /home/cristian/Escritorio/Proyecto_Grafeno/pseudopotenciales/C.pbe-n-rrkjus_psl.1.0.0.UPF
     MD5 check sum: 1fdd950c42eb37d8afe3dd2f8d12311e
     Pseudo is Ultrasoft + core correction, Zval =  4.0
     Generated using "atomic" code by A. Dal Corso v.6.3MaX
     Using radial grid of 1073 points,  4 beta functions with: 
                l(1) =   0
                l(2) =   0
                l(3) =   1
                l(4) =   1
     Q(r) pseudized with 0 coefficients 


     PseudoPot. # 3 for Cr read from file:
     /home/cristian/Escritorio/Proyecto_Grafeno/pseudopotenciales/Cr.pbe-spn-rrkjus_psl.1.0.0.UPF
     MD5 check sum: 793d051e4f89dd1e3290b85340a92c0a
     Pseudo is Ultrasoft + core correction, Zval = 14.0
     Generated using "atomic" code by A. Dal Corso v.6.2.2
     Using radial grid of 1183 points,  6 beta functions with: 
                l(1) =   0
                l(2) =   0
                l(3) =   1
                l(4) =   1
                l(5) =   2
                l(6) =   2
     Q(r) pseudized with 0 coefficients 


     vdW kernel table read from file rVV10_kernel_table
     MD5 check sum: b8e2538accc0c0b3206b45ba4daaba6c

     atomic species   valence    mass     pseudopotential
        H              1.00     1.00794     H ( 1.00)
        C              4.00    12.01070     C ( 1.00)
        Cr            14.00    51.99610     Cr( 1.00)

     No symmetry found


                                    s                        frac. trans.

      isym =  1     identity                                     

 cryst.   s( 1) = (     1          0          0      )
                  (     0          1          0      )
                  (     0          0          1      )

 cart.    s( 1) = (  1.0000000  0.0000000  0.0000000 )
                  (  0.0000000  1.0000000  0.0000000 )
                  (  0.0000000  0.0000000  1.0000000 )


     point group C_1 (1)    
     there are  1 classes
     the character table:

       E    
A      1.00

     the symmetry operations in each class and the name of the first element:

     E        1
          identity                                               

   Cartesian axes

     site n.     atom                  positions (alat units)
         1           H   tau(   1) = (   0.2500000   0.4907477   0.2839414  )
         2           H   tau(   2) = (   0.2500000   0.4907477   0.3449541  )
         3           C   tau(   3) = (   0.0000000   0.0000000   0.0000000  )
         4           C   tau(   4) = (   0.0000000   0.1154701   0.0000000  )
         5           C   tau(   5) = (  -0.1000000   0.1732051   0.0000000  )
         6           C   tau(   6) = (  -0.1000000   0.2886751   0.0000000  )
         7           C   tau(   7) = (  -0.2000000   0.3464102   0.0000000  )
         8           C   tau(   8) = (  -0.2000000   0.4618802   0.0000000  )
         9           C   tau(   9) = (  -0.3000000   0.5196152   0.0000000  )
        10           C   tau(  10) = (  -0.3000000   0.6350853   0.0000000  )
        11           C   tau(  11) = (  -0.4000000   0.6928203   0.0000000  )
        12           C   tau(  12) = (  -0.4000000   0.8082904   0.0000000  )
        13           C   tau(  13) = (   0.2000000   0.0000000   0.0000000  )
        14           C   tau(  14) = (   0.2000000   0.1154701   0.0000000  )
        15           C   tau(  15) = (   0.1000000   0.1732051   0.0000000  )
        16           C   tau(  16) = (   0.1000000   0.2886751   0.0000000  )
        17           C   tau(  17) = (   0.0000000   0.3464102   0.0000000  )
        18           C   tau(  18) = (   0.0000000   0.4618802   0.0000000  )
        19           C   tau(  19) = (  -0.1000000   0.5196152   0.0000000  )
        20           C   tau(  20) = (  -0.1000000   0.6350853   0.0000000  )
        21           C   tau(  21) = (  -0.2000000   0.6928203   0.0000000  )
        22           C   tau(  22) = (  -0.2000000   0.8082904   0.0000000  )
        23           C   tau(  23) = (   0.4000000   0.0000000   0.0000000  )
        24           C   tau(  24) = (   0.4000000   0.1154701   0.0000000  )
        25           C   tau(  25) = (   0.3000000   0.1732051   0.0000000  )
        26           C   tau(  26) = (   0.3000000   0.2886751   0.0000000  )
        27           C   tau(  27) = (   0.2000000   0.3464102   0.0000000  )
        28           Cr  tau(  28) = (   0.2000000   0.4618802   0.0000000  )
        29           C   tau(  29) = (   0.1000000   0.5196152   0.0000000  )
        30           C   tau(  30) = (   0.1000000   0.6350853   0.0000000  )
        31           C   tau(  31) = (   0.0000000   0.6928203   0.0000000  )
        32           C   tau(  32) = (   0.0000000   0.8082904   0.0000000  )
        33           C   tau(  33) = (   0.6000000   0.0000000   0.0000000  )
        34           C   tau(  34) = (   0.6000000   0.1154701   0.0000000  )
        35           C   tau(  35) = (   0.5000000   0.1732051   0.0000000  )
        36           C   tau(  36) = (   0.5000000   0.2886751   0.0000000  )
        37           C   tau(  37) = (   0.4000000   0.3464102   0.0000000  )
        38           C   tau(  38) = (   0.4000000   0.4618802   0.0000000  )
        39           C   tau(  39) = (   0.3000000   0.5196152   0.0000000  )
        40           C   tau(  40) = (   0.3000000   0.6350853   0.0000000  )
        41           C   tau(  41) = (   0.2000000   0.6928203   0.0000000  )
        42           C   tau(  42) = (   0.2000000   0.8082904   0.0000000  )
        43           C   tau(  43) = (   0.8000000   0.0000000   0.0000000  )
        44           C   tau(  44) = (   0.8000000   0.1154701   0.0000000  )
        45           C   tau(  45) = (   0.7000000   0.1732051   0.0000000  )
        46           C   tau(  46) = (   0.7000000   0.2886751   0.0000000  )
        47           C   tau(  47) = (   0.6000000   0.3464102   0.0000000  )
        48           C   tau(  48) = (   0.6000000   0.4618802   0.0000000  )
        49           C   tau(  49) = (   0.5000000   0.5196152   0.0000000  )
        50           C   tau(  50) = (   0.5000000   0.6350853   0.0000000  )
        51           C   tau(  51) = (   0.4000000   0.6928203   0.0000000  )
        52           C   tau(  52) = (   0.4000000   0.8082904   0.0000000  )

   Crystallographic axes

     site n.     atom                  positions (cryst. coord.)
         1           H   tau(   1) = (  0.5333333  0.5666667  0.3500000  )
         2           H   tau(   2) = (  0.5333333  0.5666667  0.4252072  )
         3           C   tau(   3) = (  0.0000000  0.0000000  0.0000000  )
         4           C   tau(   4) = (  0.0666667  0.1333333  0.0000000  )
         5           C   tau(   5) = (  0.0000000  0.2000000  0.0000000  )
         6           C   tau(   6) = (  0.0666667  0.3333333  0.0000000  )
         7           C   tau(   7) = (  0.0000000  0.4000000  0.0000000  )
         8           C   tau(   8) = (  0.0666667  0.5333333  0.0000000  )
         9           C   tau(   9) = (  0.0000000  0.6000000  0.0000000  )
        10           C   tau(  10) = (  0.0666667  0.7333333  0.0000000  )
        11           C   tau(  11) = (  0.0000000  0.8000000  0.0000000  )
        12           C   tau(  12) = (  0.0666667  0.9333333  0.0000000  )
        13           C   tau(  13) = (  0.2000000  0.0000000  0.0000000  )
        14           C   tau(  14) = (  0.2666667  0.1333333  0.0000000  )
        15           C   tau(  15) = (  0.2000000  0.2000000  0.0000000  )
        16           C   tau(  16) = (  0.2666667  0.3333333  0.0000000  )
        17           C   tau(  17) = (  0.2000000  0.4000000  0.0000000  )
        18           C   tau(  18) = (  0.2666667  0.5333333  0.0000000  )
        19           C   tau(  19) = (  0.2000000  0.6000000  0.0000000  )
        20           C   tau(  20) = (  0.2666667  0.7333333  0.0000000  )
        21           C   tau(  21) = (  0.2000000  0.8000000  0.0000000  )
        22           C   tau(  22) = (  0.2666667  0.9333333  0.0000000  )
        23           C   tau(  23) = (  0.4000000  0.0000000  0.0000000  )
        24           C   tau(  24) = (  0.4666667  0.1333333  0.0000000  )
        25           C   tau(  25) = (  0.4000000  0.2000000  0.0000000  )
        26           C   tau(  26) = (  0.4666667  0.3333333  0.0000000  )
        27           C   tau(  27) = (  0.4000000  0.4000000  0.0000000  )
        28           Cr  tau(  28) = (  0.4666667  0.5333333  0.0000000  )
        29           C   tau(  29) = (  0.4000000  0.6000000  0.0000000  )
        30           C   tau(  30) = (  0.4666667  0.7333333  0.0000000  )
        31           C   tau(  31) = (  0.4000000  0.8000000  0.0000000  )
        32           C   tau(  32) = (  0.4666667  0.9333333  0.0000000  )
        33           C   tau(  33) = (  0.6000000  0.0000000  0.0000000  )
        34           C   tau(  34) = (  0.6666667  0.1333333  0.0000000  )
        35           C   tau(  35) = (  0.6000000  0.2000000  0.0000000  )
        36           C   tau(  36) = (  0.6666667  0.3333333  0.0000000  )
        37           C   tau(  37) = (  0.6000000  0.4000000  0.0000000  )
        38           C   tau(  38) = (  0.6666667  0.5333333  0.0000000  )
        39           C   tau(  39) = (  0.6000000  0.6000000  0.0000000  )
        40           C   tau(  40) = (  0.6666667  0.7333333  0.0000000  )
        41           C   tau(  41) = (  0.6000000  0.8000000  0.0000000  )
        42           C   tau(  42) = (  0.6666667  0.9333333  0.0000000  )
        43           C   tau(  43) = (  0.8000000  0.0000000  0.0000000  )
        44           C   tau(  44) = (  0.8666667  0.1333333  0.0000000  )
        45           C   tau(  45) = (  0.8000000  0.2000000  0.0000000  )
        46           C   tau(  46) = (  0.8666667  0.3333333  0.0000000  )
        47           C   tau(  47) = (  0.8000000  0.4000000  0.0000000  )
        48           C   tau(  48) = (  0.8666667  0.5333333  0.0000000  )
        49           C   tau(  49) = (  0.8000000  0.6000000  0.0000000  )
        50           C   tau(  50) = (  0.8666667  0.7333333  0.0000000  )
        51           C   tau(  51) = (  0.8000000  0.8000000  0.0000000  )
        52           C   tau(  52) = (  0.8666667  0.9333333  0.0000000  )

     number of k points=     1  Marzari-Vanderbilt smearing, width (Ry)=  0.0010
                       cart. coord. in units 2pi/alat
        k(    1) = (   0.0000000   0.0000000   0.0000000), wk =   2.0000000

                       cryst. coord.
        k(    1) = (   0.0000000   0.0000000   0.0000000), wk =   2.0000000

     Dense  grid:  1626001 G-vectors     FFT dimensions: ( 180, 180, 135)

     Smooth grid:   702581 G-vectors     FFT dimensions: ( 125, 125, 108)

     Dynamical RAM for                 wfc:      28.36 MB

     Dynamical RAM for     wfc (w. buffer):      28.36 MB

     Dynamical RAM for           str. fact:      12.41 MB

     Dynamical RAM for           local pot:       0.00 MB

     Dynamical RAM for          nlocal pot:      92.46 MB

     Dynamical RAM for                qrad:      19.73 MB

     Dynamical RAM for          rho,v,vnew:      29.46 MB

     Dynamical RAM for               rhoin:       9.82 MB

     Dynamical RAM for            rho*nmix:      66.16 MB

     Dynamical RAM for           G-vectors:      16.40 MB

     Dynamical RAM for          h,s,v(r/c):      11.81 MB

     Dynamical RAM for          <psi|beta>:       0.80 MB

     Dynamical RAM for                 psi:     113.46 MB

     Dynamical RAM for                hpsi:     113.46 MB

     Dynamical RAM for                spsi:     113.46 MB

     Dynamical RAM for      wfcinit/wfcrot:      93.90 MB

     Dynamical RAM for           addusdens:     971.75 MB

     Estimated static dynamical RAM per process >     319.78 MB

     Estimated max dynamical RAM per process >       1.26 GB

     Estimated total dynamical RAM >       7.57 GB

     Check: negative core charge=   -0.000002

     Initial potential from superposition of free atoms

     starting charge  211.80478, renormalised to  212.00000

     negative rho (up, down):  4.463E-04 0.000E+00


---------------------------------------------------------------------------------
Carrying out rVV10 run using the following parameters:
Nqs =      20    Nr_points =    1024   r_max =   100.000
b_value =  6.30000    beta =  0.00901
     q_mesh =  0.00010000  0.00030000  0.00058939  0.00100810
               0.00161396  0.00249058  0.00375900  0.00559430
               0.00824984  0.01209221  0.01765183  0.02569619
               0.03733578  0.05417739  0.07854596  0.11380545
               0.16482331  0.23864234  0.34545298  0.50000000

Gradients computed in Reciprocal space

---------------------------------------------------------------------------------


     Starting wfcs are  208 randomized atomic wfcs

     total cpu time spent up to now is       54.7 secs

     Self-consistent Calculation

     iteration #  1     ecut=    70.00 Ry     beta= 0.70
     Davidson diagonalization with overlap
     ethr =  1.00E-02,  avg # of iterations =  2.0

     negative rho (up, down):  7.451E-04 0.000E+00

     total cpu time spent up to now is      119.4 secs

     total energy              =    -785.22157968 Ry
     Harris-Foulkes estimate   =    -789.92167866 Ry
     estimated scf accuracy    <       7.32217294 Ry

     iteration #  2     ecut=    70.00 Ry     beta= 0.70
     Davidson diagonalization with overlap
     ethr =  3.45E-03,  avg # of iterations =  7.0

     negative rho (up, down):  8.848E-04 0.000E+00

     total cpu time spent up to now is      185.1 secs

     total energy              =    -777.83990888 Ry
     Harris-Foulkes estimate   =    -789.75181243 Ry
     estimated scf accuracy    <      42.84100708 Ry

     iteration #  3     ecut=    70.00 Ry     beta= 0.70
     Davidson diagonalization with overlap
     ethr =  3.45E-03,  avg # of iterations =  4.0

     negative rho (up, down):  9.821E-04 0.000E+00

     total cpu time spent up to now is      261.2 secs

     total energy              =    -785.44334655 Ry
     Harris-Foulkes estimate   =    -789.65811699 Ry
     estimated scf accuracy    <      23.85603698 Ry

     iteration #  4     ecut=    70.00 Ry     beta= 0.70
     Davidson diagonalization with overlap
     ethr =  3.45E-03,  avg # of iterations =  4.0

     negative rho (up, down):  1.184E-03 0.000E+00

     total cpu time spent up to now is      311.4 secs

     total energy              =    -786.77657294 Ry
     Harris-Foulkes estimate   =    -787.33591111 Ry
     estimated scf accuracy    <       1.66670343 Ry

     iteration #  5     ecut=    70.00 Ry     beta= 0.70
     Davidson diagonalization with overlap
     ethr =  7.86E-04,  avg # of iterations =  4.0

     negative rho (up, down):  1.139E-03 0.000E+00

     total cpu time spent up to now is      363.1 secs

     total energy              =    -786.95112040 Ry
     Harris-Foulkes estimate   =    -787.06563236 Ry
     estimated scf accuracy    <       1.32016889 Ry

     iteration #  6     ecut=    70.00 Ry     beta= 0.70
     Davidson diagonalization with overlap
     ethr =  6.23E-04,  avg # of iterations =  1.0

     negative rho (up, down):  1.373E-03 0.000E+00

     total cpu time spent up to now is      410.8 secs

     total energy              =    -786.95310024 Ry
     Harris-Foulkes estimate   =    -786.98739444 Ry
     estimated scf accuracy    <       0.17695705 Ry

     iteration #  7     ecut=    70.00 Ry     beta= 0.70
     Davidson diagonalization with overlap
     ethr =  8.35E-05,  avg # of iterations =  3.0

     negative rho (up, down):  1.523E-03 0.000E+00

     total cpu time spent up to now is      459.8 secs

     total energy              =    -786.93190481 Ry
     Harris-Foulkes estimate   =    -786.98495882 Ry
     estimated scf accuracy    <       0.52629999 Ry

     iteration #  8     ecut=    70.00 Ry     beta= 0.70
     Davidson diagonalization with overlap
     ethr =  8.35E-05,  avg # of iterations =  3.0

     negative rho (up, down):  1.797E-03 0.000E+00

     total cpu time spent up to now is      509.0 secs

     total energy              =    -786.94607194 Ry
     Harris-Foulkes estimate   =    -786.96077441 Ry
     estimated scf accuracy    <       0.08768974 Ry

     iteration #  9     ecut=    70.00 Ry     beta= 0.70
     Davidson diagonalization with overlap
     ethr =  4.14E-05,  avg # of iterations = 11.0

     negative rho (up, down):  2.154E-03 0.000E+00

     total cpu time spent up to now is      560.9 secs

     total energy              =    -786.94537726 Ry
     Harris-Foulkes estimate   =    -786.95875524 Ry
     estimated scf accuracy    <       0.09485148 Ry

     iteration # 10     ecut=    70.00 Ry     beta= 0.70
     Davidson diagonalization with overlap
     ethr =  4.14E-05,  avg # of iterations =  2.0

     negative rho (up, down):  2.467E-03 0.000E+00

     total cpu time spent up to now is      608.9 secs

     total energy              =    -786.94379252 Ry
     Harris-Foulkes estimate   =    -786.95713735 Ry
     estimated scf accuracy    <       0.09896720 Ry

     iteration # 11     ecut=    70.00 Ry     beta= 0.70
     Davidson diagonalization with overlap
     ethr =  4.14E-05,  avg # of iterations =  1.0

     negative rho (up, down):  2.748E-03 0.000E+00

     total cpu time spent up to now is      656.9 secs

     total energy              =    -786.94441179 Ry
     Harris-Foulkes estimate   =    -786.95119649 Ry
     estimated scf accuracy    <       0.07483576 Ry

     iteration # 12     ecut=    70.00 Ry     beta= 0.70
     Davidson diagonalization with overlap
     ethr =  3.53E-05,  avg # of iterations =  1.0

     negative rho (up, down):  2.695E-03 0.000E+00

     total cpu time spent up to now is      704.9 secs

     total energy              =    -786.94616992 Ry
     Harris-Foulkes estimate   =    -786.94921434 Ry
     estimated scf accuracy    <       0.06231254 Ry

     iteration # 13     ecut=    70.00 Ry     beta= 0.70
     Davidson diagonalization with overlap
     ethr =  2.94E-05,  avg # of iterations =  1.0

     negative rho (up, down):  2.660E-03 0.000E+00

     total cpu time spent up to now is      752.9 secs

     total energy              =    -786.94703674 Ry
     Harris-Foulkes estimate   =    -786.94808457 Ry
     estimated scf accuracy    <       0.03239280 Ry

     iteration # 14     ecut=    70.00 Ry     beta= 0.70
     Davidson diagonalization with overlap
     ethr =  1.53E-05,  avg # of iterations =  9.0

     negative rho (up, down):  2.632E-03 0.000E+00

     total cpu time spent up to now is      803.6 secs

     total energy              =    -786.94725537 Ry
     Harris-Foulkes estimate   =    -786.94732577 Ry
     estimated scf accuracy    <       0.01489835 Ry

     iteration # 15     ecut=    70.00 Ry     beta= 0.70
     Davidson diagonalization with overlap
     ethr =  7.03E-06,  avg # of iterations =  4.0

     negative rho (up, down):  2.532E-03 0.000E+00

     total cpu time spent up to now is      852.1 secs

     total energy              =    -786.94611998 Ry
     Harris-Foulkes estimate   =    -786.94747711 Ry
     estimated scf accuracy    <       0.03050142 Ry

     iteration # 16     ecut=    70.00 Ry     beta= 0.70
     Davidson diagonalization with overlap
     ethr =  7.03E-06,  avg # of iterations =  1.0

     negative rho (up, down):  2.551E-03 0.000E+00

     total cpu time spent up to now is      900.1 secs

     total energy              =    -786.94199516 Ry
     Harris-Foulkes estimate   =    -786.94652291 Ry
     estimated scf accuracy    <       0.02565724 Ry

     iteration # 17     ecut=    70.00 Ry     beta= 0.70
     Davidson diagonalization with overlap
     ethr =  7.03E-06,  avg # of iterations =  5.0

     negative rho (up, down):  3.561E-03 0.000E+00

     total cpu time spent up to now is      955.3 secs

     total energy              =    -786.91187760 Ry
     Harris-Foulkes estimate   =    -786.95752783 Ry
     estimated scf accuracy    <       0.69339843 Ry

     iteration # 18     ecut=    70.00 Ry     beta= 0.70
     Davidson diagonalization with overlap
     ethr =  7.03E-06,  avg # of iterations =  5.0

     negative rho (up, down):  2.609E-03 0.000E+00

     total cpu time spent up to now is     1010.8 secs

     total energy              =    -786.94611667 Ry
     Harris-Foulkes estimate   =    -786.94651542 Ry
     estimated scf accuracy    <       0.01421747 Ry

     iteration # 19     ecut=    70.00 Ry     beta= 0.70
     Davidson diagonalization with overlap
     ethr =  6.71E-06,  avg # of iterations =  3.0

     negative rho (up, down):  2.556E-03 0.000E+00

     total cpu time spent up to now is     1059.9 secs

     total energy              =    -786.94612708 Ry
     Harris-Foulkes estimate   =    -786.94636391 Ry
     estimated scf accuracy    <       0.00772904 Ry

     iteration # 20     ecut=    70.00 Ry     beta= 0.70
     Davidson diagonalization with overlap
     ethr =  3.65E-06,  avg # of iterations =  1.0

     negative rho (up, down):  2.556E-03 0.000E+00

     total cpu time spent up to now is     1107.8 secs

     total energy              =    -786.94582764 Ry
     Harris-Foulkes estimate   =    -786.94615267 Ry
     estimated scf accuracy    <       0.00574122 Ry

     iteration # 21     ecut=    70.00 Ry     beta= 0.70
     Davidson diagonalization with overlap
     ethr =  2.71E-06,  avg # of iterations =  1.0

     negative rho (up, down):  2.564E-03 0.000E+00

     total cpu time spent up to now is     1155.9 secs

     total energy              =    -786.94593481 Ry
     Harris-Foulkes estimate   =    -786.94587017 Ry
     estimated scf accuracy    <       0.00406184 Ry

     iteration # 22     ecut=    70.00 Ry     beta= 0.70
     Davidson diagonalization with overlap
     ethr =  1.92E-06,  avg # of iterations =  1.0

     negative rho (up, down):  2.563E-03 0.000E+00

     total cpu time spent up to now is     1203.9 secs

     total energy              =    -786.94582722 Ry
     Harris-Foulkes estimate   =    -786.94595254 Ry
     estimated scf accuracy    <       0.00424004 Ry

     iteration # 23     ecut=    70.00 Ry     beta= 0.70
     Davidson diagonalization with overlap
     ethr =  1.92E-06,  avg # of iterations =  1.0

     negative rho (up, down):  2.559E-03 0.000E+00

     total cpu time spent up to now is     1252.0 secs

     total energy              =    -786.94554503 Ry
     Harris-Foulkes estimate   =    -786.94583694 Ry
     estimated scf accuracy    <       0.00345302 Ry

     iteration # 24     ecut=    70.00 Ry     beta= 0.70
     Davidson diagonalization with overlap
     ethr =  1.63E-06,  avg # of iterations =  3.0

     negative rho (up, down):  2.562E-03 0.000E+00

     total cpu time spent up to now is     1300.3 secs

     total energy              =    -786.94543632 Ry
     Harris-Foulkes estimate   =    -786.94558810 Ry
     estimated scf accuracy    <       0.00183393 Ry

     iteration # 25     ecut=    70.00 Ry     beta= 0.70
     Davidson diagonalization with overlap
     ethr =  8.65E-07,  avg # of iterations =  2.0

     negative rho (up, down):  2.567E-03 0.000E+00

     total cpu time spent up to now is     1348.5 secs

     total energy              =    -786.94532449 Ry
     Harris-Foulkes estimate   =    -786.94546446 Ry
     estimated scf accuracy    <       0.00086375 Ry

     iteration # 26     ecut=    70.00 Ry     beta= 0.70
     Davidson diagonalization with overlap
     ethr =  4.07E-07,  avg # of iterations =  4.0

     negative rho (up, down):  2.574E-03 0.000E+00

     total cpu time spent up to now is     1398.6 secs

     total energy              =    -786.94535657 Ry
     Harris-Foulkes estimate   =    -786.94537912 Ry
     estimated scf accuracy    <       0.00009281 Ry

     iteration # 27     ecut=    70.00 Ry     beta= 0.70
     Davidson diagonalization with overlap
     ethr =  4.38E-08,  avg # of iterations =  4.0

     negative rho (up, down):  2.577E-03 0.000E+00

     total cpu time spent up to now is     1451.1 secs

     total energy              =    -786.94537026 Ry
     Harris-Foulkes estimate   =    -786.94537240 Ry
     estimated scf accuracy    <       0.00003597 Ry

     iteration # 28     ecut=    70.00 Ry     beta= 0.70
     Davidson diagonalization with overlap
     ethr =  1.70E-08,  avg # of iterations =  2.0

     negative rho (up, down):  2.579E-03 0.000E+00

     total cpu time spent up to now is     1499.6 secs

     total energy              =    -786.94536905 Ry
     Harris-Foulkes estimate   =    -786.94537296 Ry
     estimated scf accuracy    <       0.00001791 Ry

     iteration # 29     ecut=    70.00 Ry     beta= 0.70
     Davidson diagonalization with overlap
     ethr =  8.45E-09,  avg # of iterations =  3.0

     negative rho (up, down):  2.580E-03 0.000E+00

     total cpu time spent up to now is     1549.7 secs

     total energy              =    -786.94536847 Ry
     Harris-Foulkes estimate   =    -786.94537520 Ry
     estimated scf accuracy    <       0.00013928 Ry

     iteration # 30     ecut=    70.00 Ry     beta= 0.70
     Davidson diagonalization with overlap
     ethr =  8.45E-09,  avg # of iterations =  2.0

     negative rho (up, down):  2.580E-03 0.000E+00

     total cpu time spent up to now is     1598.5 secs

     total energy              =    -786.94537227 Ry
     Harris-Foulkes estimate   =    -786.94537216 Ry
     estimated scf accuracy    <       0.00000266 Ry

     iteration # 31     ecut=    70.00 Ry     beta= 0.70
     Davidson diagonalization with overlap
     ethr =  1.25E-09,  avg # of iterations =  2.0

     negative rho (up, down):  2.580E-03 0.000E+00

     total cpu time spent up to now is     1648.9 secs

     total energy              =    -786.94537259 Ry
     Harris-Foulkes estimate   =    -786.94537260 Ry
     estimated scf accuracy    <       0.00000197 Ry

     iteration # 32     ecut=    70.00 Ry     beta= 0.70
     Davidson diagonalization with overlap
     ethr =  9.31E-10,  avg # of iterations =  2.0

     negative rho (up, down):  2.581E-03 0.000E+00

     total cpu time spent up to now is     1697.1 secs

     End of self-consistent calculation

          k = 0.0000 0.0000 0.0000 ( 87777 PWs)   bands (ev):

   -71.8477 -44.1432 -44.1429 -43.0298 -19.6370 -18.7985 -18.7984 -18.7056
   -18.7056 -18.7046 -18.3346 -16.9512 -16.9511 -16.9457 -16.8402 -16.8402
   -16.5386 -16.0979 -16.0978 -15.9976 -15.9167 -15.9164 -15.2035 -13.9611
   -13.9610 -13.9179 -13.8670 -13.8669 -13.2042 -12.9420 -12.9419 -12.9126
   -12.5875 -12.5874 -12.1494 -11.7025 -11.7025 -11.5378 -11.2314 -11.2313
   -10.2655  -9.4827  -9.4825  -9.3240  -9.1897  -9.1896  -9.0967  -9.0652
    -9.0651  -9.0538  -8.5386  -8.5385  -7.9950  -7.9950  -7.8965  -7.7910
    -7.7074  -7.2866  -7.2865  -7.0398  -7.0343  -6.9803  -6.8213  -6.7053
    -6.7052  -6.6906  -6.6900  -6.6654  -6.5992  -6.4351  -6.4350  -6.4066
    -6.4016  -6.4016  -6.3801  -6.3533  -5.3976  -5.3966  -5.3258  -5.3257
    -5.0617  -5.0616  -4.8598  -4.7654  -4.6104  -4.5875  -4.5871  -4.2718
    -4.2547  -4.0386  -4.0385  -3.7214  -3.7210  -3.6397  -3.5424  -3.5423
    -3.4772  -3.4770  -3.0080  -2.4359  -2.4357  -1.7221  -1.6774  -1.6773
    -0.7210  -0.5419  -0.5418  -0.5065   1.0628   1.0845   1.0848   1.7711
     1.8674   1.8677   2.4428   2.9231   2.9233   2.9840   3.3950   3.3963
     3.4194   3.6539   3.6630   3.7058   3.7961   3.7991   3.8453

     occupation numbers 
     1.0000   1.0000   1.0000   1.0000   1.0000   1.0000   1.0000   1.0000
     1.0000   1.0000   1.0000   1.0000   1.0000   1.0000   1.0000   1.0000
     1.0000   1.0000   1.0000   1.0000   1.0000   1.0000   1.0000   1.0000
     1.0000   1.0000   1.0000   1.0000   1.0000   1.0000   1.0000   1.0000
     1.0000   1.0000   1.0000   1.0000   1.0000   1.0000   1.0000   1.0000
     1.0000   1.0000   1.0000   1.0000   1.0000   1.0000   1.0000   1.0000
     1.0000   1.0000   1.0000   1.0000   1.0000   1.0000   1.0000   1.0000
     1.0000   1.0000   1.0000   1.0000   1.0000   1.0000   1.0000   1.0000
     1.0000   1.0000   1.0000   1.0000   1.0000   1.0000   1.0000   1.0000
     1.0000   1.0000   1.0000   1.0000   1.0000   1.0000   1.0000   1.0000
     1.0000   1.0000   1.0000   1.0000   1.0000   1.0000   1.0000   1.0000
     1.0000   1.0000   1.0000   1.0000   1.0000   1.0000   1.0000   1.0000
     1.0000   1.0000   1.0000   1.0000   1.0000   1.0000   1.0000   1.0000
     1.0000   0.5007   0.4992   0.0000   0.0000   0.0000   0.0000   0.0000
     0.0000   0.0000   0.0000   0.0000   0.0000   0.0000   0.0000   0.0000
     0.0000   0.0000   0.0000   0.0000   0.0000   0.0000   0.0000

     the Fermi energy is    -0.5400 ev

!    total energy              =    -786.94537274 Ry
     Harris-Foulkes estimate   =    -786.94537270 Ry
     estimated scf accuracy    <       0.00000066 Ry

     The total energy is the sum of the following terms:

     one-electron contribution =   -2635.94015493 Ry
     hartree contribution      =    1363.61236861 Ry
     xc contribution           =    -254.33332713 Ry
     ewald contribution        =     739.71639719 Ry
     smearing contrib. (-TS)   =      -0.00065648 Ry

     convergence has been achieved in  32 iterations

     Writing output data file gr-12.save/

     init_run     :     52.45s CPU     53.62s WALL (       1 calls)
     electrons    :   1591.93s CPU   1642.53s WALL (       1 calls)

     Called by init_run:
     wfcinit      :     20.48s CPU     20.62s WALL (       1 calls)
     wfcinit:atom :      0.03s CPU      0.05s WALL (       1 calls)
     wfcinit:wfcr :     20.28s CPU     20.37s WALL (       1 calls)
     potinit      :     14.18s CPU     14.62s WALL (       1 calls)
     hinit0       :     13.24s CPU     13.28s WALL (       1 calls)

     Called by electrons:
     c_bands      :    943.25s CPU    949.51s WALL (      32 calls)
     sum_band     :    319.23s CPU    336.12s WALL (      32 calls)
     v_of_rho     :    198.78s CPU    210.44s WALL (      33 calls)
     v_h          :      2.24s CPU      2.32s WALL (      33 calls)
     v_xc         :    196.54s CPU    208.12s WALL (      33 calls)
     newd         :    130.42s CPU    146.88s WALL (      33 calls)
     mix_rho      :      6.45s CPU      6.57s WALL (      32 calls)

     Called by c_bands:
     init_us_2    :      2.72s CPU      2.75s WALL (      65 calls)
     cegterg      :    936.33s CPU    942.56s WALL (      32 calls)

     Called by sum_band:
     sum_band:bec :      0.02s CPU      0.02s WALL (      32 calls)
     addusdens    :    198.20s CPU    214.05s WALL (      32 calls)

     Called by *egterg:
     h_psi        :    499.14s CPU    503.45s WALL (     132 calls)
     s_psi        :    168.65s CPU    168.85s WALL (     132 calls)
     g_psi        :      0.51s CPU      0.52s WALL (      99 calls)
     cdiaghg      :      8.10s CPU      8.11s WALL (     131 calls)
     cegterg:over :    110.40s CPU    110.52s WALL (      99 calls)
     cegterg:upda :     65.33s CPU     65.84s WALL (      99 calls)
     cegterg:last :     49.46s CPU     49.51s WALL (      32 calls)

     Called by h_psi:
     h_psi:pot    :    498.58s CPU    502.23s WALL (     132 calls)
     h_psi:calbec :    168.88s CPU    169.04s WALL (     132 calls)
     vloc_psi     :    161.15s CPU    164.46s WALL (     132 calls)
     add_vuspsi   :    168.56s CPU    168.73s WALL (     132 calls)

     General routines
     calbec       :    244.09s CPU    244.36s WALL (     164 calls)
     fft          :    110.10s CPU    114.26s WALL (    2077 calls)
     ffts         :      1.20s CPU      1.23s WALL (      65 calls)
     fftw         :    172.43s CPU    176.18s WALL (   22322 calls)
     interpolate  :      2.75s CPU      2.84s WALL (      33 calls)

     Parallel routines
     fft_scatt_xy :     48.98s CPU     49.73s WALL (   24464 calls)
     fft_scatt_yz :     95.99s CPU    101.58s WALL (   24464 calls)

     PWSCF        :  27m25.56s CPU  28m17.55s WALL


   This run was terminated on:   6: 8:32  20Jul2022            

=------------------------------------------------------------------------------=
   JOB DONE.
=------------------------------------------------------------------------------=
