
     Program PWSCF v.6.4.1 starts on 20Jul2022 at  5:15:19 

     This program is part of the open-source Quantum ESPRESSO suite
     for quantum simulation of materials; please cite
         "P. Giannozzi et al., J. Phys.:Condens. Matter 21 395502 (2009);
         "P. Giannozzi et al., J. Phys.:Condens. Matter 29 465901 (2017);
          URL http://www.quantum-espresso.org", 
     in publications or presentations arising from this work. More details at
     http://www.quantum-espresso.org/quote

     Parallel version (MPI), running on     6 processors

     MPI processes distributed on     1 nodes
     R & G space division:  proc/nbgrp/npool/nimage =       6
     Reading input from distance-4.0.in

     Current dimensions of program PWSCF are:
     Max number of different atomic species (ntypx) = 10
     Max number of k-points (npk) =  40000
     Max angular momentum in pseudopotentials (lmaxx) =  3

     IMPORTANT: XC functional enforced from input :
     Exchange-correlation      = RVV10 ( 1  4 13  4 3 0)
     Any further DFT definition will be discarded
     Please, verify this is what you really want

               file H.pbe-rrkjus.UPF: wavefunction(s)  1S renormalized
               file Cr.pbe-spn-rrkjus_psl.1.0.0.UPF: wavefunction(s)  3P renormalized

     Subspace diagonalization in iterative solution of the eigenvalue problem:
     a serial algorithm will be used


     Parallelization info
     --------------------
     sticks:   dense  smooth     PW     G-vecs:    dense   smooth      PW
     Min        3051    1746    432               270999   117096   14629
     Max        3053    1747    437               271001   117099   14630
     Sum       18313   10477   2611              1626001   702581   87777



     bravais-lattice index     =            4
     lattice parameter (alat)  =      23.2937  a.u.
     unit-cell volume          =    8879.8548 (a.u.)^3
     number of atoms/cell      =           52
     number of atomic types    =            3
     number of electrons       =       212.00
     number of Kohn-Sham states=          127
     kinetic-energy cutoff     =      70.0000  Ry
     charge density cutoff     =     490.0000  Ry
     convergence threshold     =      1.0E-06
     mixing beta               =       0.7000
     number of iterations used =            8  plain     mixing
     Exchange-correlation      = RVV10 ( 1  4 13  4 3 0)

     celldm(1)=  23.293684  celldm(2)=   0.000000  celldm(3)=   0.811261
     celldm(4)=   0.000000  celldm(5)=   0.000000  celldm(6)=   0.000000

     crystal axes: (cart. coord. in units of alat)
               a(1) = (   1.000000   0.000000   0.000000 )  
               a(2) = (  -0.500000   0.866025   0.000000 )  
               a(3) = (   0.000000   0.000000   0.811261 )  

     reciprocal axes: (cart. coord. in units 2 pi/alat)
               b(1) = (  1.000000  0.577350 -0.000000 )  
               b(2) = (  0.000000  1.154701  0.000000 )  
               b(3) = (  0.000000 -0.000000  1.232649 )  


     PseudoPot. # 1 for H  read from file:
     /home/cristian/Escritorio/Proyecto_Grafeno/pseudopotenciales/H.pbe-rrkjus.UPF
     MD5 check sum: 7cc9d459525c9a0585f487a71c3c9563
     Pseudo is Ultrasoft, Zval =  1.0
     Generated by new atomic code, or converted to UPF format
     Using radial grid of 1061 points,  2 beta functions with: 
                l(1) =   0
                l(2) =   0
     Q(r) pseudized with 0 coefficients 


     PseudoPot. # 2 for C  read from file:
     /home/cristian/Escritorio/Proyecto_Grafeno/pseudopotenciales/C.pbe-n-rrkjus_psl.1.0.0.UPF
     MD5 check sum: 1fdd950c42eb37d8afe3dd2f8d12311e
     Pseudo is Ultrasoft + core correction, Zval =  4.0
     Generated using "atomic" code by A. Dal Corso v.6.3MaX
     Using radial grid of 1073 points,  4 beta functions with: 
                l(1) =   0
                l(2) =   0
                l(3) =   1
                l(4) =   1
     Q(r) pseudized with 0 coefficients 


     PseudoPot. # 3 for Cr read from file:
     /home/cristian/Escritorio/Proyecto_Grafeno/pseudopotenciales/Cr.pbe-spn-rrkjus_psl.1.0.0.UPF
     MD5 check sum: 793d051e4f89dd1e3290b85340a92c0a
     Pseudo is Ultrasoft + core correction, Zval = 14.0
     Generated using "atomic" code by A. Dal Corso v.6.2.2
     Using radial grid of 1183 points,  6 beta functions with: 
                l(1) =   0
                l(2) =   0
                l(3) =   1
                l(4) =   1
                l(5) =   2
                l(6) =   2
     Q(r) pseudized with 0 coefficients 


     vdW kernel table read from file rVV10_kernel_table
     MD5 check sum: b8e2538accc0c0b3206b45ba4daaba6c

     atomic species   valence    mass     pseudopotential
        H              1.00     1.00794     H ( 1.00)
        C              4.00    12.01070     C ( 1.00)
        Cr            14.00    51.99610     Cr( 1.00)

     No symmetry found


                                    s                        frac. trans.

      isym =  1     identity                                     

 cryst.   s( 1) = (     1          0          0      )
                  (     0          1          0      )
                  (     0          0          1      )

 cart.    s( 1) = (  1.0000000  0.0000000  0.0000000 )
                  (  0.0000000  1.0000000  0.0000000 )
                  (  0.0000000  0.0000000  1.0000000 )


     point group C_1 (1)    
     there are  1 classes
     the character table:

       E    
A      1.00

     the symmetry operations in each class and the name of the first element:

     E        1
          identity                                               

   Cartesian axes

     site n.     atom                  positions (alat units)
         1           H   tau(   1) = (   0.2500000   0.4907477   0.3245045  )
         2           H   tau(   2) = (   0.2500000   0.4907477   0.3855171  )
         3           C   tau(   3) = (   0.0000000   0.0000000   0.0000000  )
         4           C   tau(   4) = (   0.0000000   0.1154701   0.0000000  )
         5           C   tau(   5) = (  -0.1000000   0.1732051   0.0000000  )
         6           C   tau(   6) = (  -0.1000000   0.2886751   0.0000000  )
         7           C   tau(   7) = (  -0.2000000   0.3464102   0.0000000  )
         8           C   tau(   8) = (  -0.2000000   0.4618802   0.0000000  )
         9           C   tau(   9) = (  -0.3000000   0.5196152   0.0000000  )
        10           C   tau(  10) = (  -0.3000000   0.6350853   0.0000000  )
        11           C   tau(  11) = (  -0.4000000   0.6928203   0.0000000  )
        12           C   tau(  12) = (  -0.4000000   0.8082904   0.0000000  )
        13           C   tau(  13) = (   0.2000000   0.0000000   0.0000000  )
        14           C   tau(  14) = (   0.2000000   0.1154701   0.0000000  )
        15           C   tau(  15) = (   0.1000000   0.1732051   0.0000000  )
        16           C   tau(  16) = (   0.1000000   0.2886751   0.0000000  )
        17           C   tau(  17) = (   0.0000000   0.3464102   0.0000000  )
        18           C   tau(  18) = (   0.0000000   0.4618802   0.0000000  )
        19           C   tau(  19) = (  -0.1000000   0.5196152   0.0000000  )
        20           C   tau(  20) = (  -0.1000000   0.6350853   0.0000000  )
        21           C   tau(  21) = (  -0.2000000   0.6928203   0.0000000  )
        22           C   tau(  22) = (  -0.2000000   0.8082904   0.0000000  )
        23           C   tau(  23) = (   0.4000000   0.0000000   0.0000000  )
        24           C   tau(  24) = (   0.4000000   0.1154701   0.0000000  )
        25           C   tau(  25) = (   0.3000000   0.1732051   0.0000000  )
        26           C   tau(  26) = (   0.3000000   0.2886751   0.0000000  )
        27           C   tau(  27) = (   0.2000000   0.3464102   0.0000000  )
        28           Cr  tau(  28) = (   0.2000000   0.4618802   0.0000000  )
        29           C   tau(  29) = (   0.1000000   0.5196152   0.0000000  )
        30           C   tau(  30) = (   0.1000000   0.6350853   0.0000000  )
        31           C   tau(  31) = (   0.0000000   0.6928203   0.0000000  )
        32           C   tau(  32) = (   0.0000000   0.8082904   0.0000000  )
        33           C   tau(  33) = (   0.6000000   0.0000000   0.0000000  )
        34           C   tau(  34) = (   0.6000000   0.1154701   0.0000000  )
        35           C   tau(  35) = (   0.5000000   0.1732051   0.0000000  )
        36           C   tau(  36) = (   0.5000000   0.2886751   0.0000000  )
        37           C   tau(  37) = (   0.4000000   0.3464102   0.0000000  )
        38           C   tau(  38) = (   0.4000000   0.4618802   0.0000000  )
        39           C   tau(  39) = (   0.3000000   0.5196152   0.0000000  )
        40           C   tau(  40) = (   0.3000000   0.6350853   0.0000000  )
        41           C   tau(  41) = (   0.2000000   0.6928203   0.0000000  )
        42           C   tau(  42) = (   0.2000000   0.8082904   0.0000000  )
        43           C   tau(  43) = (   0.8000000   0.0000000   0.0000000  )
        44           C   tau(  44) = (   0.8000000   0.1154701   0.0000000  )
        45           C   tau(  45) = (   0.7000000   0.1732051   0.0000000  )
        46           C   tau(  46) = (   0.7000000   0.2886751   0.0000000  )
        47           C   tau(  47) = (   0.6000000   0.3464102   0.0000000  )
        48           C   tau(  48) = (   0.6000000   0.4618802   0.0000000  )
        49           C   tau(  49) = (   0.5000000   0.5196152   0.0000000  )
        50           C   tau(  50) = (   0.5000000   0.6350853   0.0000000  )
        51           C   tau(  51) = (   0.4000000   0.6928203   0.0000000  )
        52           C   tau(  52) = (   0.4000000   0.8082904   0.0000000  )

   Crystallographic axes

     site n.     atom                  positions (cryst. coord.)
         1           H   tau(   1) = (  0.5333333  0.5666667  0.4000000  )
         2           H   tau(   2) = (  0.5333333  0.5666667  0.4752072  )
         3           C   tau(   3) = (  0.0000000  0.0000000  0.0000000  )
         4           C   tau(   4) = (  0.0666667  0.1333333  0.0000000  )
         5           C   tau(   5) = (  0.0000000  0.2000000  0.0000000  )
         6           C   tau(   6) = (  0.0666667  0.3333333  0.0000000  )
         7           C   tau(   7) = (  0.0000000  0.4000000  0.0000000  )
         8           C   tau(   8) = (  0.0666667  0.5333333  0.0000000  )
         9           C   tau(   9) = (  0.0000000  0.6000000  0.0000000  )
        10           C   tau(  10) = (  0.0666667  0.7333333  0.0000000  )
        11           C   tau(  11) = (  0.0000000  0.8000000  0.0000000  )
        12           C   tau(  12) = (  0.0666667  0.9333333  0.0000000  )
        13           C   tau(  13) = (  0.2000000  0.0000000  0.0000000  )
        14           C   tau(  14) = (  0.2666667  0.1333333  0.0000000  )
        15           C   tau(  15) = (  0.2000000  0.2000000  0.0000000  )
        16           C   tau(  16) = (  0.2666667  0.3333333  0.0000000  )
        17           C   tau(  17) = (  0.2000000  0.4000000  0.0000000  )
        18           C   tau(  18) = (  0.2666667  0.5333333  0.0000000  )
        19           C   tau(  19) = (  0.2000000  0.6000000  0.0000000  )
        20           C   tau(  20) = (  0.2666667  0.7333333  0.0000000  )
        21           C   tau(  21) = (  0.2000000  0.8000000  0.0000000  )
        22           C   tau(  22) = (  0.2666667  0.9333333  0.0000000  )
        23           C   tau(  23) = (  0.4000000  0.0000000  0.0000000  )
        24           C   tau(  24) = (  0.4666667  0.1333333  0.0000000  )
        25           C   tau(  25) = (  0.4000000  0.2000000  0.0000000  )
        26           C   tau(  26) = (  0.4666667  0.3333333  0.0000000  )
        27           C   tau(  27) = (  0.4000000  0.4000000  0.0000000  )
        28           Cr  tau(  28) = (  0.4666667  0.5333333  0.0000000  )
        29           C   tau(  29) = (  0.4000000  0.6000000  0.0000000  )
        30           C   tau(  30) = (  0.4666667  0.7333333  0.0000000  )
        31           C   tau(  31) = (  0.4000000  0.8000000  0.0000000  )
        32           C   tau(  32) = (  0.4666667  0.9333333  0.0000000  )
        33           C   tau(  33) = (  0.6000000  0.0000000  0.0000000  )
        34           C   tau(  34) = (  0.6666667  0.1333333  0.0000000  )
        35           C   tau(  35) = (  0.6000000  0.2000000  0.0000000  )
        36           C   tau(  36) = (  0.6666667  0.3333333  0.0000000  )
        37           C   tau(  37) = (  0.6000000  0.4000000  0.0000000  )
        38           C   tau(  38) = (  0.6666667  0.5333333  0.0000000  )
        39           C   tau(  39) = (  0.6000000  0.6000000  0.0000000  )
        40           C   tau(  40) = (  0.6666667  0.7333333  0.0000000  )
        41           C   tau(  41) = (  0.6000000  0.8000000  0.0000000  )
        42           C   tau(  42) = (  0.6666667  0.9333333  0.0000000  )
        43           C   tau(  43) = (  0.8000000  0.0000000  0.0000000  )
        44           C   tau(  44) = (  0.8666667  0.1333333  0.0000000  )
        45           C   tau(  45) = (  0.8000000  0.2000000  0.0000000  )
        46           C   tau(  46) = (  0.8666667  0.3333333  0.0000000  )
        47           C   tau(  47) = (  0.8000000  0.4000000  0.0000000  )
        48           C   tau(  48) = (  0.8666667  0.5333333  0.0000000  )
        49           C   tau(  49) = (  0.8000000  0.6000000  0.0000000  )
        50           C   tau(  50) = (  0.8666667  0.7333333  0.0000000  )
        51           C   tau(  51) = (  0.8000000  0.8000000  0.0000000  )
        52           C   tau(  52) = (  0.8666667  0.9333333  0.0000000  )

     number of k points=     1  Marzari-Vanderbilt smearing, width (Ry)=  0.0010
                       cart. coord. in units 2pi/alat
        k(    1) = (   0.0000000   0.0000000   0.0000000), wk =   2.0000000

                       cryst. coord.
        k(    1) = (   0.0000000   0.0000000   0.0000000), wk =   2.0000000

     Dense  grid:  1626001 G-vectors     FFT dimensions: ( 180, 180, 135)

     Smooth grid:   702581 G-vectors     FFT dimensions: ( 125, 125, 108)

     Dynamical RAM for                 wfc:      28.36 MB

     Dynamical RAM for     wfc (w. buffer):      28.36 MB

     Dynamical RAM for           str. fact:      12.41 MB

     Dynamical RAM for           local pot:       0.00 MB

     Dynamical RAM for          nlocal pot:      92.46 MB

     Dynamical RAM for                qrad:      19.73 MB

     Dynamical RAM for          rho,v,vnew:      29.46 MB

     Dynamical RAM for               rhoin:       9.82 MB

     Dynamical RAM for            rho*nmix:      66.16 MB

     Dynamical RAM for           G-vectors:      16.40 MB

     Dynamical RAM for          h,s,v(r/c):      11.81 MB

     Dynamical RAM for          <psi|beta>:       0.80 MB

     Dynamical RAM for                 psi:     113.46 MB

     Dynamical RAM for                hpsi:     113.46 MB

     Dynamical RAM for                spsi:     113.46 MB

     Dynamical RAM for      wfcinit/wfcrot:      93.90 MB

     Dynamical RAM for           addusdens:     971.75 MB

     Estimated static dynamical RAM per process >     319.78 MB

     Estimated max dynamical RAM per process >       1.26 GB

     Estimated total dynamical RAM >       7.57 GB

     Check: negative core charge=   -0.000002

     Initial potential from superposition of free atoms

     starting charge  211.80478, renormalised to  212.00000

     negative rho (up, down):  4.365E-04 0.000E+00


---------------------------------------------------------------------------------
Carrying out rVV10 run using the following parameters:
Nqs =      20    Nr_points =    1024   r_max =   100.000
b_value =  6.30000    beta =  0.00901
     q_mesh =  0.00010000  0.00030000  0.00058939  0.00100810
               0.00161396  0.00249058  0.00375900  0.00559430
               0.00824984  0.01209221  0.01765183  0.02569619
               0.03733578  0.05417739  0.07854596  0.11380545
               0.16482331  0.23864234  0.34545298  0.50000000

Gradients computed in Reciprocal space

---------------------------------------------------------------------------------


     Starting wfcs are  208 randomized atomic wfcs

     total cpu time spent up to now is       53.7 secs

     Self-consistent Calculation

     iteration #  1     ecut=    70.00 Ry     beta= 0.70
     Davidson diagonalization with overlap
     ethr =  1.00E-02,  avg # of iterations =  2.0

     negative rho (up, down):  7.125E-04 0.000E+00

     total cpu time spent up to now is      118.5 secs

     total energy              =    -785.43191326 Ry
     Harris-Foulkes estimate   =    -789.92432594 Ry
     estimated scf accuracy    <       7.10287689 Ry

     iteration #  2     ecut=    70.00 Ry     beta= 0.70
     Davidson diagonalization with overlap
     ethr =  3.35E-03,  avg # of iterations =  7.0

     negative rho (up, down):  8.203E-04 0.000E+00

     total cpu time spent up to now is      184.7 secs

     total energy              =    -779.59810893 Ry
     Harris-Foulkes estimate   =    -788.49958278 Ry
     estimated scf accuracy    <      26.64908171 Ry

     iteration #  3     ecut=    70.00 Ry     beta= 0.70
     Davidson diagonalization with overlap
     ethr =  3.35E-03,  avg # of iterations =  4.0

     negative rho (up, down):  1.076E-03 0.000E+00

     total cpu time spent up to now is      261.0 secs

     total energy              =    -784.22732385 Ry
     Harris-Foulkes estimate   =    -790.55911855 Ry
     estimated scf accuracy    <      38.47521493 Ry

     iteration #  4     ecut=    70.00 Ry     beta= 0.70
     Davidson diagonalization with overlap
     ethr =  3.35E-03,  avg # of iterations =  4.0

     negative rho (up, down):  1.030E-03 0.000E+00

     total cpu time spent up to now is      312.1 secs

     total energy              =    -786.74486454 Ry
     Harris-Foulkes estimate   =    -787.29582599 Ry
     estimated scf accuracy    <       1.91863115 Ry

     iteration #  5     ecut=    70.00 Ry     beta= 0.70
     Davidson diagonalization with overlap
     ethr =  9.05E-04,  avg # of iterations =  3.0

     negative rho (up, down):  1.196E-03 0.000E+00

     total cpu time spent up to now is      363.4 secs

     total energy              =    -786.93092054 Ry
     Harris-Foulkes estimate   =    -786.98903995 Ry
     estimated scf accuracy    <       0.17243529 Ry

     iteration #  6     ecut=    70.00 Ry     beta= 0.70
     Davidson diagonalization with overlap
     ethr =  8.13E-05,  avg # of iterations = 10.0

     negative rho (up, down):  1.348E-03 0.000E+00

     total cpu time spent up to now is      421.8 secs

     total energy              =    -786.93885558 Ry
     Harris-Foulkes estimate   =    -786.97621325 Ry
     estimated scf accuracy    <       0.18683364 Ry

     iteration #  7     ecut=    70.00 Ry     beta= 0.70
     Davidson diagonalization with overlap
     ethr =  8.13E-05,  avg # of iterations =  2.0

     negative rho (up, down):  1.502E-03 0.000E+00

     total cpu time spent up to now is      470.1 secs

     total energy              =    -786.93888923 Ry
     Harris-Foulkes estimate   =    -786.96396170 Ry
     estimated scf accuracy    <       0.19879599 Ry

     iteration #  8     ecut=    70.00 Ry     beta= 0.70
     Davidson diagonalization with overlap
     ethr =  8.13E-05,  avg # of iterations =  2.0

     negative rho (up, down):  1.844E-03 0.000E+00

     total cpu time spent up to now is      518.4 secs

     total energy              =    -786.94240824 Ry
     Harris-Foulkes estimate   =    -786.95174629 Ry
     estimated scf accuracy    <       0.05101392 Ry

     iteration #  9     ecut=    70.00 Ry     beta= 0.70
     Davidson diagonalization with overlap
     ethr =  2.41E-05,  avg # of iterations =  2.0

     negative rho (up, down):  2.052E-03 0.000E+00

     total cpu time spent up to now is      566.8 secs

     total energy              =    -786.93841118 Ry
     Harris-Foulkes estimate   =    -786.94889897 Ry
     estimated scf accuracy    <       0.06187407 Ry

     iteration # 10     ecut=    70.00 Ry     beta= 0.70
     Davidson diagonalization with overlap
     ethr =  2.41E-05,  avg # of iterations =  4.0

     negative rho (up, down):  2.412E-03 0.000E+00

     total cpu time spent up to now is      615.4 secs

     total energy              =    -786.94220648 Ry
     Harris-Foulkes estimate   =    -786.95385790 Ry
     estimated scf accuracy    <       0.08857569 Ry

     iteration # 11     ecut=    70.00 Ry     beta= 0.70
     Davidson diagonalization with overlap
     ethr =  2.41E-05,  avg # of iterations =  1.0

     negative rho (up, down):  2.544E-03 0.000E+00

     total cpu time spent up to now is      663.4 secs

     total energy              =    -786.94363934 Ry
     Harris-Foulkes estimate   =    -786.94585859 Ry
     estimated scf accuracy    <       0.04840361 Ry

     iteration # 12     ecut=    70.00 Ry     beta= 0.70
     Davidson diagonalization with overlap
     ethr =  2.28E-05,  avg # of iterations =  1.0

     negative rho (up, down):  2.542E-03 0.000E+00

     total cpu time spent up to now is      711.4 secs

     total energy              =    -786.94389324 Ry
     Harris-Foulkes estimate   =    -786.94465690 Ry
     estimated scf accuracy    <       0.01484837 Ry

     iteration # 13     ecut=    70.00 Ry     beta= 0.70
     Davidson diagonalization with overlap
     ethr =  7.00E-06,  avg # of iterations =  1.0

     negative rho (up, down):  2.520E-03 0.000E+00

     total cpu time spent up to now is      759.4 secs

     total energy              =    -786.94428320 Ry
     Harris-Foulkes estimate   =    -786.94445007 Ry
     estimated scf accuracy    <       0.00304287 Ry

     iteration # 14     ecut=    70.00 Ry     beta= 0.70
     Davidson diagonalization with overlap
     ethr =  1.44E-06,  avg # of iterations =  3.0

     negative rho (up, down):  2.501E-03 0.000E+00

     total cpu time spent up to now is      807.9 secs

     total energy              =    -786.94434048 Ry
     Harris-Foulkes estimate   =    -786.94437353 Ry
     estimated scf accuracy    <       0.00047127 Ry

     iteration # 15     ecut=    70.00 Ry     beta= 0.70
     Davidson diagonalization with overlap
     ethr =  2.22E-07,  avg # of iterations =  2.0

     negative rho (up, down):  2.494E-03 0.000E+00

     total cpu time spent up to now is      856.1 secs

     total energy              =    -786.94436082 Ry
     Harris-Foulkes estimate   =    -786.94439042 Ry
     estimated scf accuracy    <       0.00084937 Ry

     iteration # 16     ecut=    70.00 Ry     beta= 0.70
     Davidson diagonalization with overlap
     ethr =  2.22E-07,  avg # of iterations =  1.0

     negative rho (up, down):  2.500E-03 0.000E+00

     total cpu time spent up to now is      904.2 secs

     total energy              =    -786.94433263 Ry
     Harris-Foulkes estimate   =    -786.94437474 Ry
     estimated scf accuracy    <       0.00038628 Ry

     iteration # 17     ecut=    70.00 Ry     beta= 0.70
     Davidson diagonalization with overlap
     ethr =  1.82E-07,  avg # of iterations =  3.0

     negative rho (up, down):  2.499E-03 0.000E+00

     total cpu time spent up to now is      953.8 secs

     total energy              =    -786.94435260 Ry
     Harris-Foulkes estimate   =    -786.94439911 Ry
     estimated scf accuracy    <       0.00078157 Ry

     iteration # 18     ecut=    70.00 Ry     beta= 0.70
     Davidson diagonalization with overlap
     ethr =  1.82E-07,  avg # of iterations =  1.0

     negative rho (up, down):  2.500E-03 0.000E+00

     total cpu time spent up to now is     1001.7 secs

     total energy              =    -786.94437405 Ry
     Harris-Foulkes estimate   =    -786.94437614 Ry
     estimated scf accuracy    <       0.00001207 Ry

     iteration # 19     ecut=    70.00 Ry     beta= 0.70
     Davidson diagonalization with overlap
     ethr =  5.69E-09,  avg # of iterations =  3.0

     negative rho (up, down):  2.500E-03 0.000E+00

     total cpu time spent up to now is     1056.5 secs

     total energy              =    -786.94437745 Ry
     Harris-Foulkes estimate   =    -786.94437700 Ry
     estimated scf accuracy    <       0.00001193 Ry

     iteration # 20     ecut=    70.00 Ry     beta= 0.70
     Davidson diagonalization with overlap
     ethr =  5.63E-09,  avg # of iterations =  3.0

     negative rho (up, down):  2.501E-03 0.000E+00

     total cpu time spent up to now is     1107.5 secs

     total energy              =    -786.94437941 Ry
     Harris-Foulkes estimate   =    -786.94437963 Ry
     estimated scf accuracy    <       0.00002180 Ry

     iteration # 21     ecut=    70.00 Ry     beta= 0.70
     Davidson diagonalization with overlap
     ethr =  5.63E-09,  avg # of iterations =  2.0

     negative rho (up, down):  2.502E-03 0.000E+00

     total cpu time spent up to now is     1157.1 secs

     total energy              =    -786.94438188 Ry
     Harris-Foulkes estimate   =    -786.94438076 Ry
     estimated scf accuracy    <       0.00000124 Ry

     iteration # 22     ecut=    70.00 Ry     beta= 0.70
     Davidson diagonalization with overlap
     ethr =  5.85E-10,  avg # of iterations =  3.0

     negative rho (up, down):  2.503E-03 0.000E+00

     total cpu time spent up to now is     1211.3 secs

     total energy              =    -786.94438355 Ry
     Harris-Foulkes estimate   =    -786.94438253 Ry
     estimated scf accuracy    <       0.00000221 Ry

     iteration # 23     ecut=    70.00 Ry     beta= 0.70
     Davidson diagonalization with overlap
     ethr =  5.85E-10,  avg # of iterations =  4.0

     negative rho (up, down):  2.504E-03 0.000E+00

     total cpu time spent up to now is     1266.6 secs

     total energy              =    -786.94438565 Ry
     Harris-Foulkes estimate   =    -786.94438496 Ry
     estimated scf accuracy    <       0.00000202 Ry

     iteration # 24     ecut=    70.00 Ry     beta= 0.70
     Davidson diagonalization with overlap
     ethr =  5.85E-10,  avg # of iterations =  3.0

     negative rho (up, down):  2.504E-03 0.000E+00

     total cpu time spent up to now is     1320.5 secs

     total energy              =    -786.94438650 Ry
     Harris-Foulkes estimate   =    -786.94438643 Ry
     estimated scf accuracy    <       0.00000453 Ry

     iteration # 25     ecut=    70.00 Ry     beta= 0.70
     Davidson diagonalization with overlap
     ethr =  5.85E-10,  avg # of iterations =  4.0

     negative rho (up, down):  2.506E-03 0.000E+00

     total cpu time spent up to now is     1377.8 secs

     total energy              =    -786.94438521 Ry
     Harris-Foulkes estimate   =    -786.94438879 Ry
     estimated scf accuracy    <       0.00000434 Ry

     iteration # 26     ecut=    70.00 Ry     beta= 0.70
     Davidson diagonalization with overlap
     ethr =  5.85E-10,  avg # of iterations =  4.0

     negative rho (up, down):  2.508E-03 0.000E+00

     total cpu time spent up to now is     1436.7 secs

     total energy              =    -786.94438714 Ry
     Harris-Foulkes estimate   =    -786.94439183 Ry
     estimated scf accuracy    <       0.00000178 Ry

     iteration # 27     ecut=    70.00 Ry     beta= 0.70
     Davidson diagonalization with overlap
     ethr =  5.85E-10,  avg # of iterations =  4.0

     negative rho (up, down):  2.511E-03 0.000E+00

     total cpu time spent up to now is     1494.7 secs

     End of self-consistent calculation

          k = 0.0000 0.0000 0.0000 ( 87777 PWs)   bands (ev):

   -71.8541 -44.1470 -44.1466 -43.0370 -19.6383 -18.8000 -18.7998 -18.7071
   -18.7070 -18.7057 -18.3362 -16.9526 -16.9525 -16.9472 -16.8417 -16.8416
   -16.5398 -16.0994 -16.0993 -15.9989 -15.9182 -15.9180 -15.2049 -13.9626
   -13.9625 -13.9194 -13.8683 -13.8682 -13.2054 -12.9434 -12.9433 -12.9140
   -12.5891 -12.5890 -12.1507 -11.7039 -11.7038 -11.5392 -11.2331 -11.2331
   -10.2669  -9.4843  -9.4841  -9.3255  -9.1911  -9.1910  -9.0980  -9.0664
    -9.0663  -9.0550  -8.5403  -8.5402  -7.9965  -7.9965  -7.8979  -7.7913
    -7.7087  -7.2880  -7.2880  -7.0374  -7.0361  -6.9814  -6.7451  -6.7067
    -6.7066  -6.6918  -6.6915  -6.6677  -6.6007  -6.4364  -6.4364  -6.4079
    -6.4030  -6.4029  -6.3889  -6.3545  -5.3992  -5.3985  -5.3276  -5.3275
    -5.0632  -5.0631  -4.8612  -4.7668  -4.6119  -4.5888  -4.5886  -4.2743
    -4.2559  -4.0399  -4.0398  -3.7227  -3.7224  -3.6410  -3.5448  -3.5447
    -3.4811  -3.4810  -3.0086  -2.4374  -2.4373  -1.7238  -1.6786  -1.6786
    -0.7202  -0.5438  -0.5437  -0.5058   1.0612   1.0833   1.0835   1.7716
     1.8661   1.8663   2.4518   2.9220   2.9220   2.9825   3.3723   3.4038
     3.4087   3.6549   3.7033   3.7955   3.7981   3.8337   4.0299

     occupation numbers 
     1.0000   1.0000   1.0000   1.0000   1.0000   1.0000   1.0000   1.0000
     1.0000   1.0000   1.0000   1.0000   1.0000   1.0000   1.0000   1.0000
     1.0000   1.0000   1.0000   1.0000   1.0000   1.0000   1.0000   1.0000
     1.0000   1.0000   1.0000   1.0000   1.0000   1.0000   1.0000   1.0000
     1.0000   1.0000   1.0000   1.0000   1.0000   1.0000   1.0000   1.0000
     1.0000   1.0000   1.0000   1.0000   1.0000   1.0000   1.0000   1.0000
     1.0000   1.0000   1.0000   1.0000   1.0000   1.0000   1.0000   1.0000
     1.0000   1.0000   1.0000   1.0000   1.0000   1.0000   1.0000   1.0000
     1.0000   1.0000   1.0000   1.0000   1.0000   1.0000   1.0000   1.0000
     1.0000   1.0000   1.0000   1.0000   1.0000   1.0000   1.0000   1.0000
     1.0000   1.0000   1.0000   1.0000   1.0000   1.0000   1.0000   1.0000
     1.0000   1.0000   1.0000   1.0000   1.0000   1.0000   1.0000   1.0000
     1.0000   1.0000   1.0000   1.0000   1.0000   1.0000   1.0000   1.0000
     1.0000   0.5024   0.4976   0.0000   0.0000   0.0000   0.0000   0.0000
     0.0000   0.0000   0.0000   0.0000   0.0000   0.0000   0.0000   0.0000
     0.0000   0.0000   0.0000   0.0000   0.0000   0.0000   0.0000

     the Fermi energy is    -0.5419 ev

!    total energy              =    -786.94439320 Ry
     Harris-Foulkes estimate   =    -786.94439399 Ry
     estimated scf accuracy    <       0.00000077 Ry

     The total energy is the sum of the following terms:

     one-electron contribution =   -2631.74512399 Ry
     hartree contribution      =    1361.50940152 Ry
     xc contribution           =    -254.33423956 Ry
     ewald contribution        =     737.62622521 Ry
     smearing contrib. (-TS)   =      -0.00065639 Ry

     convergence has been achieved in  27 iterations

     Writing output data file gr-12.save/

     init_run     :     51.57s CPU     52.63s WALL (       1 calls)
     electrons    :   1397.50s CPU   1441.15s WALL (       1 calls)

     Called by init_run:
     wfcinit      :     20.57s CPU     20.71s WALL (       1 calls)
     wfcinit:atom :      0.02s CPU      0.04s WALL (       1 calls)
     wfcinit:wfcr :     20.39s CPU     20.48s WALL (       1 calls)
     potinit      :     13.56s CPU     13.99s WALL (       1 calls)
     hinit0       :     12.78s CPU     12.79s WALL (       1 calls)

     Called by electrons:
     c_bands      :    850.22s CPU    855.81s WALL (      27 calls)
     sum_band     :    269.19s CPU    283.94s WALL (      27 calls)
     v_of_rho     :    168.98s CPU    178.88s WALL (      28 calls)
     v_h          :      1.91s CPU      1.96s WALL (      28 calls)
     v_xc         :    167.07s CPU    176.92s WALL (      28 calls)
     newd         :    110.69s CPU    124.73s WALL (      28 calls)
     mix_rho      :      5.30s CPU      5.39s WALL (      27 calls)

     Called by c_bands:
     init_us_2    :      2.30s CPU      2.35s WALL (      55 calls)
     cegterg      :    844.19s CPU    849.74s WALL (      27 calls)

     Called by sum_band:
     sum_band:bec :      0.02s CPU      0.02s WALL (      27 calls)
     addusdens    :    165.92s CPU    179.93s WALL (      27 calls)

     Called by *egterg:
     h_psi        :    445.26s CPU    449.02s WALL (     111 calls)
     s_psi        :    149.83s CPU    150.02s WALL (     111 calls)
     g_psi        :      0.48s CPU      0.49s WALL (      83 calls)
     cdiaghg      :      7.64s CPU      7.64s WALL (     110 calls)
     cegterg:over :    104.79s CPU    104.89s WALL (      83 calls)
     cegterg:upda :     64.22s CPU     64.72s WALL (      83 calls)
     cegterg:last :     43.80s CPU     43.83s WALL (      27 calls)

     Called by h_psi:
     h_psi:pot    :    444.78s CPU    447.91s WALL (     111 calls)
     h_psi:calbec :    150.54s CPU    150.69s WALL (     111 calls)
     vloc_psi     :    144.32s CPU    147.19s WALL (     111 calls)
     add_vuspsi   :    149.91s CPU    150.02s WALL (     111 calls)

     General routines
     calbec       :    214.17s CPU    214.38s WALL (     138 calls)
     fft          :     93.97s CPU     97.59s WALL (    1762 calls)
     ffts         :      0.94s CPU      1.00s WALL (      55 calls)
     fftw         :    153.74s CPU    156.88s WALL (   19709 calls)
     interpolate  :      2.29s CPU      2.36s WALL (      28 calls)

     Parallel routines
     fft_scatt_xy :     42.16s CPU     42.78s WALL (   21526 calls)
     fft_scatt_yz :     86.94s CPU     91.75s WALL (   21526 calls)

     PWSCF        :  24m10.21s CPU  24m55.16s WALL


   This run was terminated on:   5:40:14  20Jul2022            

=------------------------------------------------------------------------------=
   JOB DONE.
=------------------------------------------------------------------------------=
