
     Program PWSCF v.6.4.1 starts on 20Jul2022 at  4:26:53 

     This program is part of the open-source Quantum ESPRESSO suite
     for quantum simulation of materials; please cite
         "P. Giannozzi et al., J. Phys.:Condens. Matter 21 395502 (2009);
         "P. Giannozzi et al., J. Phys.:Condens. Matter 29 465901 (2017);
          URL http://www.quantum-espresso.org", 
     in publications or presentations arising from this work. More details at
     http://www.quantum-espresso.org/quote

     Parallel version (MPI), running on     6 processors

     MPI processes distributed on     1 nodes
     R & G space division:  proc/nbgrp/npool/nimage =       6
     Reading input from distance-5.0.in

     Current dimensions of program PWSCF are:
     Max number of different atomic species (ntypx) = 10
     Max number of k-points (npk) =  40000
     Max angular momentum in pseudopotentials (lmaxx) =  3

     IMPORTANT: XC functional enforced from input :
     Exchange-correlation      = RVV10 ( 1  4 13  4 3 0)
     Any further DFT definition will be discarded
     Please, verify this is what you really want

               file H.pbe-rrkjus.UPF: wavefunction(s)  1S renormalized
               file Cr.pbe-spn-rrkjus_psl.1.0.0.UPF: wavefunction(s)  3P renormalized

     Subspace diagonalization in iterative solution of the eigenvalue problem:
     a serial algorithm will be used


     Parallelization info
     --------------------
     sticks:   dense  smooth     PW     G-vecs:    dense   smooth      PW
     Min        3051    1746    432               270999   117096   14629
     Max        3053    1747    437               271001   117099   14630
     Sum       18313   10477   2611              1626001   702581   87777



     bravais-lattice index     =            4
     lattice parameter (alat)  =      23.2937  a.u.
     unit-cell volume          =    8879.8548 (a.u.)^3
     number of atoms/cell      =           52
     number of atomic types    =            3
     number of electrons       =       212.00
     number of Kohn-Sham states=          127
     kinetic-energy cutoff     =      70.0000  Ry
     charge density cutoff     =     490.0000  Ry
     convergence threshold     =      1.0E-06
     mixing beta               =       0.7000
     number of iterations used =            8  plain     mixing
     Exchange-correlation      = RVV10 ( 1  4 13  4 3 0)

     celldm(1)=  23.293684  celldm(2)=   0.000000  celldm(3)=   0.811261
     celldm(4)=   0.000000  celldm(5)=   0.000000  celldm(6)=   0.000000

     crystal axes: (cart. coord. in units of alat)
               a(1) = (   1.000000   0.000000   0.000000 )  
               a(2) = (  -0.500000   0.866025   0.000000 )  
               a(3) = (   0.000000   0.000000   0.811261 )  

     reciprocal axes: (cart. coord. in units 2 pi/alat)
               b(1) = (  1.000000  0.577350 -0.000000 )  
               b(2) = (  0.000000  1.154701  0.000000 )  
               b(3) = (  0.000000 -0.000000  1.232649 )  


     PseudoPot. # 1 for H  read from file:
     /home/cristian/Escritorio/Proyecto_Grafeno/pseudopotenciales/H.pbe-rrkjus.UPF
     MD5 check sum: 7cc9d459525c9a0585f487a71c3c9563
     Pseudo is Ultrasoft, Zval =  1.0
     Generated by new atomic code, or converted to UPF format
     Using radial grid of 1061 points,  2 beta functions with: 
                l(1) =   0
                l(2) =   0
     Q(r) pseudized with 0 coefficients 


     PseudoPot. # 2 for C  read from file:
     /home/cristian/Escritorio/Proyecto_Grafeno/pseudopotenciales/C.pbe-n-rrkjus_psl.1.0.0.UPF
     MD5 check sum: 1fdd950c42eb37d8afe3dd2f8d12311e
     Pseudo is Ultrasoft + core correction, Zval =  4.0
     Generated using "atomic" code by A. Dal Corso v.6.3MaX
     Using radial grid of 1073 points,  4 beta functions with: 
                l(1) =   0
                l(2) =   0
                l(3) =   1
                l(4) =   1
     Q(r) pseudized with 0 coefficients 


     PseudoPot. # 3 for Cr read from file:
     /home/cristian/Escritorio/Proyecto_Grafeno/pseudopotenciales/Cr.pbe-spn-rrkjus_psl.1.0.0.UPF
     MD5 check sum: 793d051e4f89dd1e3290b85340a92c0a
     Pseudo is Ultrasoft + core correction, Zval = 14.0
     Generated using "atomic" code by A. Dal Corso v.6.2.2
     Using radial grid of 1183 points,  6 beta functions with: 
                l(1) =   0
                l(2) =   0
                l(3) =   1
                l(4) =   1
                l(5) =   2
                l(6) =   2
     Q(r) pseudized with 0 coefficients 


     vdW kernel table read from file rVV10_kernel_table
     MD5 check sum: b8e2538accc0c0b3206b45ba4daaba6c

     atomic species   valence    mass     pseudopotential
        H              1.00     1.00794     H ( 1.00)
        C              4.00    12.01070     C ( 1.00)
        Cr            14.00    51.99610     Cr( 1.00)

     No symmetry found


                                    s                        frac. trans.

      isym =  1     identity                                     

 cryst.   s( 1) = (     1          0          0      )
                  (     0          1          0      )
                  (     0          0          1      )

 cart.    s( 1) = (  1.0000000  0.0000000  0.0000000 )
                  (  0.0000000  1.0000000  0.0000000 )
                  (  0.0000000  0.0000000  1.0000000 )


     point group C_1 (1)    
     there are  1 classes
     the character table:

       E    
A      1.00

     the symmetry operations in each class and the name of the first element:

     E        1
          identity                                               

   Cartesian axes

     site n.     atom                  positions (alat units)
         1           H   tau(   1) = (   0.2500000   0.4907477   0.4056306  )
         2           H   tau(   2) = (   0.2500000   0.4907477   0.4666433  )
         3           C   tau(   3) = (   0.0000000   0.0000000   0.0000000  )
         4           C   tau(   4) = (   0.0000000   0.1154701   0.0000000  )
         5           C   tau(   5) = (  -0.1000000   0.1732051   0.0000000  )
         6           C   tau(   6) = (  -0.1000000   0.2886751   0.0000000  )
         7           C   tau(   7) = (  -0.2000000   0.3464102   0.0000000  )
         8           C   tau(   8) = (  -0.2000000   0.4618802   0.0000000  )
         9           C   tau(   9) = (  -0.3000000   0.5196152   0.0000000  )
        10           C   tau(  10) = (  -0.3000000   0.6350853   0.0000000  )
        11           C   tau(  11) = (  -0.4000000   0.6928203   0.0000000  )
        12           C   tau(  12) = (  -0.4000000   0.8082904   0.0000000  )
        13           C   tau(  13) = (   0.2000000   0.0000000   0.0000000  )
        14           C   tau(  14) = (   0.2000000   0.1154701   0.0000000  )
        15           C   tau(  15) = (   0.1000000   0.1732051   0.0000000  )
        16           C   tau(  16) = (   0.1000000   0.2886751   0.0000000  )
        17           C   tau(  17) = (   0.0000000   0.3464102   0.0000000  )
        18           C   tau(  18) = (   0.0000000   0.4618802   0.0000000  )
        19           C   tau(  19) = (  -0.1000000   0.5196152   0.0000000  )
        20           C   tau(  20) = (  -0.1000000   0.6350853   0.0000000  )
        21           C   tau(  21) = (  -0.2000000   0.6928203   0.0000000  )
        22           C   tau(  22) = (  -0.2000000   0.8082904   0.0000000  )
        23           C   tau(  23) = (   0.4000000   0.0000000   0.0000000  )
        24           C   tau(  24) = (   0.4000000   0.1154701   0.0000000  )
        25           C   tau(  25) = (   0.3000000   0.1732051   0.0000000  )
        26           C   tau(  26) = (   0.3000000   0.2886751   0.0000000  )
        27           C   tau(  27) = (   0.2000000   0.3464102   0.0000000  )
        28           Cr  tau(  28) = (   0.2000000   0.4618802   0.0000000  )
        29           C   tau(  29) = (   0.1000000   0.5196152   0.0000000  )
        30           C   tau(  30) = (   0.1000000   0.6350853   0.0000000  )
        31           C   tau(  31) = (   0.0000000   0.6928203   0.0000000  )
        32           C   tau(  32) = (   0.0000000   0.8082904   0.0000000  )
        33           C   tau(  33) = (   0.6000000   0.0000000   0.0000000  )
        34           C   tau(  34) = (   0.6000000   0.1154701   0.0000000  )
        35           C   tau(  35) = (   0.5000000   0.1732051   0.0000000  )
        36           C   tau(  36) = (   0.5000000   0.2886751   0.0000000  )
        37           C   tau(  37) = (   0.4000000   0.3464102   0.0000000  )
        38           C   tau(  38) = (   0.4000000   0.4618802   0.0000000  )
        39           C   tau(  39) = (   0.3000000   0.5196152   0.0000000  )
        40           C   tau(  40) = (   0.3000000   0.6350853   0.0000000  )
        41           C   tau(  41) = (   0.2000000   0.6928203   0.0000000  )
        42           C   tau(  42) = (   0.2000000   0.8082904   0.0000000  )
        43           C   tau(  43) = (   0.8000000   0.0000000   0.0000000  )
        44           C   tau(  44) = (   0.8000000   0.1154701   0.0000000  )
        45           C   tau(  45) = (   0.7000000   0.1732051   0.0000000  )
        46           C   tau(  46) = (   0.7000000   0.2886751   0.0000000  )
        47           C   tau(  47) = (   0.6000000   0.3464102   0.0000000  )
        48           C   tau(  48) = (   0.6000000   0.4618802   0.0000000  )
        49           C   tau(  49) = (   0.5000000   0.5196152   0.0000000  )
        50           C   tau(  50) = (   0.5000000   0.6350853   0.0000000  )
        51           C   tau(  51) = (   0.4000000   0.6928203   0.0000000  )
        52           C   tau(  52) = (   0.4000000   0.8082904   0.0000000  )

   Crystallographic axes

     site n.     atom                  positions (cryst. coord.)
         1           H   tau(   1) = (  0.5333333  0.5666667  0.5000000  )
         2           H   tau(   2) = (  0.5333333  0.5666667  0.5752072  )
         3           C   tau(   3) = (  0.0000000  0.0000000  0.0000000  )
         4           C   tau(   4) = (  0.0666667  0.1333333  0.0000000  )
         5           C   tau(   5) = (  0.0000000  0.2000000  0.0000000  )
         6           C   tau(   6) = (  0.0666667  0.3333333  0.0000000  )
         7           C   tau(   7) = (  0.0000000  0.4000000  0.0000000  )
         8           C   tau(   8) = (  0.0666667  0.5333333  0.0000000  )
         9           C   tau(   9) = (  0.0000000  0.6000000  0.0000000  )
        10           C   tau(  10) = (  0.0666667  0.7333333  0.0000000  )
        11           C   tau(  11) = (  0.0000000  0.8000000  0.0000000  )
        12           C   tau(  12) = (  0.0666667  0.9333333  0.0000000  )
        13           C   tau(  13) = (  0.2000000  0.0000000  0.0000000  )
        14           C   tau(  14) = (  0.2666667  0.1333333  0.0000000  )
        15           C   tau(  15) = (  0.2000000  0.2000000  0.0000000  )
        16           C   tau(  16) = (  0.2666667  0.3333333  0.0000000  )
        17           C   tau(  17) = (  0.2000000  0.4000000  0.0000000  )
        18           C   tau(  18) = (  0.2666667  0.5333333  0.0000000  )
        19           C   tau(  19) = (  0.2000000  0.6000000  0.0000000  )
        20           C   tau(  20) = (  0.2666667  0.7333333  0.0000000  )
        21           C   tau(  21) = (  0.2000000  0.8000000  0.0000000  )
        22           C   tau(  22) = (  0.2666667  0.9333333  0.0000000  )
        23           C   tau(  23) = (  0.4000000  0.0000000  0.0000000  )
        24           C   tau(  24) = (  0.4666667  0.1333333  0.0000000  )
        25           C   tau(  25) = (  0.4000000  0.2000000  0.0000000  )
        26           C   tau(  26) = (  0.4666667  0.3333333  0.0000000  )
        27           C   tau(  27) = (  0.4000000  0.4000000  0.0000000  )
        28           Cr  tau(  28) = (  0.4666667  0.5333333  0.0000000  )
        29           C   tau(  29) = (  0.4000000  0.6000000  0.0000000  )
        30           C   tau(  30) = (  0.4666667  0.7333333  0.0000000  )
        31           C   tau(  31) = (  0.4000000  0.8000000  0.0000000  )
        32           C   tau(  32) = (  0.4666667  0.9333333  0.0000000  )
        33           C   tau(  33) = (  0.6000000  0.0000000  0.0000000  )
        34           C   tau(  34) = (  0.6666667  0.1333333  0.0000000  )
        35           C   tau(  35) = (  0.6000000  0.2000000  0.0000000  )
        36           C   tau(  36) = (  0.6666667  0.3333333  0.0000000  )
        37           C   tau(  37) = (  0.6000000  0.4000000  0.0000000  )
        38           C   tau(  38) = (  0.6666667  0.5333333  0.0000000  )
        39           C   tau(  39) = (  0.6000000  0.6000000  0.0000000  )
        40           C   tau(  40) = (  0.6666667  0.7333333  0.0000000  )
        41           C   tau(  41) = (  0.6000000  0.8000000  0.0000000  )
        42           C   tau(  42) = (  0.6666667  0.9333333  0.0000000  )
        43           C   tau(  43) = (  0.8000000  0.0000000  0.0000000  )
        44           C   tau(  44) = (  0.8666667  0.1333333  0.0000000  )
        45           C   tau(  45) = (  0.8000000  0.2000000  0.0000000  )
        46           C   tau(  46) = (  0.8666667  0.3333333  0.0000000  )
        47           C   tau(  47) = (  0.8000000  0.4000000  0.0000000  )
        48           C   tau(  48) = (  0.8666667  0.5333333  0.0000000  )
        49           C   tau(  49) = (  0.8000000  0.6000000  0.0000000  )
        50           C   tau(  50) = (  0.8666667  0.7333333  0.0000000  )
        51           C   tau(  51) = (  0.8000000  0.8000000  0.0000000  )
        52           C   tau(  52) = (  0.8666667  0.9333333  0.0000000  )

     number of k points=     1  Marzari-Vanderbilt smearing, width (Ry)=  0.0010
                       cart. coord. in units 2pi/alat
        k(    1) = (   0.0000000   0.0000000   0.0000000), wk =   2.0000000

                       cryst. coord.
        k(    1) = (   0.0000000   0.0000000   0.0000000), wk =   2.0000000

     Dense  grid:  1626001 G-vectors     FFT dimensions: ( 180, 180, 135)

     Smooth grid:   702581 G-vectors     FFT dimensions: ( 125, 125, 108)

     Dynamical RAM for                 wfc:      28.36 MB

     Dynamical RAM for     wfc (w. buffer):      28.36 MB

     Dynamical RAM for           str. fact:      12.41 MB

     Dynamical RAM for           local pot:       0.00 MB

     Dynamical RAM for          nlocal pot:      92.46 MB

     Dynamical RAM for                qrad:      19.73 MB

     Dynamical RAM for          rho,v,vnew:      29.46 MB

     Dynamical RAM for               rhoin:       9.82 MB

     Dynamical RAM for            rho*nmix:      66.16 MB

     Dynamical RAM for           G-vectors:      16.40 MB

     Dynamical RAM for          h,s,v(r/c):      11.81 MB

     Dynamical RAM for          <psi|beta>:       0.80 MB

     Dynamical RAM for                 psi:     113.46 MB

     Dynamical RAM for                hpsi:     113.46 MB

     Dynamical RAM for                spsi:     113.46 MB

     Dynamical RAM for      wfcinit/wfcrot:      93.90 MB

     Dynamical RAM for           addusdens:     971.75 MB

     Estimated static dynamical RAM per process >     319.78 MB

     Estimated max dynamical RAM per process >       1.26 GB

     Estimated total dynamical RAM >       7.57 GB

     Check: negative core charge=   -0.000002

     Initial potential from superposition of free atoms

     starting charge  211.80478, renormalised to  212.00000

     negative rho (up, down):  4.345E-04 0.000E+00


---------------------------------------------------------------------------------
Carrying out rVV10 run using the following parameters:
Nqs =      20    Nr_points =    1024   r_max =   100.000
b_value =  6.30000    beta =  0.00901
     q_mesh =  0.00010000  0.00030000  0.00058939  0.00100810
               0.00161396  0.00249058  0.00375900  0.00559430
               0.00824984  0.01209221  0.01765183  0.02569619
               0.03733578  0.05417739  0.07854596  0.11380545
               0.16482331  0.23864234  0.34545298  0.50000000

Gradients computed in Reciprocal space

---------------------------------------------------------------------------------


     Starting wfcs are  208 randomized atomic wfcs

     total cpu time spent up to now is       49.9 secs

     Self-consistent Calculation

     iteration #  1     ecut=    70.00 Ry     beta= 0.70
     Davidson diagonalization with overlap
     ethr =  1.00E-02,  avg # of iterations =  2.0

     negative rho (up, down):  7.059E-04 0.000E+00

     total cpu time spent up to now is      115.1 secs

     total energy              =    -785.45271800 Ry
     Harris-Foulkes estimate   =    -789.92638440 Ry
     estimated scf accuracy    <       7.08271201 Ry

     iteration #  2     ecut=    70.00 Ry     beta= 0.70
     Davidson diagonalization with overlap
     ethr =  3.34E-03,  avg # of iterations =  7.0

     negative rho (up, down):  8.116E-04 0.000E+00

     total cpu time spent up to now is      181.4 secs

     total energy              =    -779.66945068 Ry
     Harris-Foulkes estimate   =    -788.38035833 Ry
     estimated scf accuracy    <      25.78569634 Ry

     iteration #  3     ecut=    70.00 Ry     beta= 0.70
     Davidson diagonalization with overlap
     ethr =  3.34E-03,  avg # of iterations =  4.0

     negative rho (up, down):  1.063E-03 0.000E+00

     total cpu time spent up to now is      258.3 secs

     total energy              =    -784.24374274 Ry
     Harris-Foulkes estimate   =    -790.66173275 Ry
     estimated scf accuracy    <      38.99767640 Ry

     iteration #  4     ecut=    70.00 Ry     beta= 0.70
     Davidson diagonalization with overlap
     ethr =  3.34E-03,  avg # of iterations =  4.0

     negative rho (up, down):  1.063E-03 0.000E+00

     total cpu time spent up to now is      310.1 secs

     total energy              =    -786.74502398 Ry
     Harris-Foulkes estimate   =    -787.29360969 Ry
     estimated scf accuracy    <       2.25650428 Ry

     iteration #  5     ecut=    70.00 Ry     beta= 0.70
     Davidson diagonalization with overlap
     ethr =  1.06E-03,  avg # of iterations =  3.0

     negative rho (up, down):  1.150E-03 0.000E+00

     total cpu time spent up to now is      359.8 secs

     total energy              =    -786.91737570 Ry
     Harris-Foulkes estimate   =    -786.99842807 Ry
     estimated scf accuracy    <       0.25619685 Ry

     iteration #  6     ecut=    70.00 Ry     beta= 0.70
     Davidson diagonalization with overlap
     ethr =  1.21E-04,  avg # of iterations =  9.0

     negative rho (up, down):  1.332E-03 0.000E+00

     total cpu time spent up to now is      417.7 secs

     total energy              =    -786.94166716 Ry
     Harris-Foulkes estimate   =    -786.99047313 Ry
     estimated scf accuracy    <       0.24197965 Ry

     iteration #  7     ecut=    70.00 Ry     beta= 0.70
     Davidson diagonalization with overlap
     ethr =  1.14E-04,  avg # of iterations =  1.0

     negative rho (up, down):  1.454E-03 0.000E+00

     total cpu time spent up to now is      465.6 secs

     total energy              =    -786.94037828 Ry
     Harris-Foulkes estimate   =    -786.95701863 Ry
     estimated scf accuracy    <       0.09753734 Ry

     iteration #  8     ecut=    70.00 Ry     beta= 0.70
     Davidson diagonalization with overlap
     ethr =  4.60E-05,  avg # of iterations =  3.0

     negative rho (up, down):  1.894E-03 0.000E+00

     total cpu time spent up to now is      514.4 secs

     total energy              =    -786.94407267 Ry
     Harris-Foulkes estimate   =    -786.95887558 Ry
     estimated scf accuracy    <       0.10349101 Ry

     iteration #  9     ecut=    70.00 Ry     beta= 0.70
     Davidson diagonalization with overlap
     ethr =  4.60E-05,  avg # of iterations =  2.0

     negative rho (up, down):  3.065E-03 0.000E+00

     total cpu time spent up to now is      562.7 secs

     total energy              =    -786.92920773 Ry
     Harris-Foulkes estimate   =    -786.95166464 Ry
     estimated scf accuracy    <       0.62287255 Ry

     iteration # 10     ecut=    70.00 Ry     beta= 0.70
     Davidson diagonalization with overlap
     ethr =  4.60E-05,  avg # of iterations = 14.0

     negative rho (up, down):  2.488E-03 0.000E+00

     total cpu time spent up to now is      615.0 secs

     total energy              =    -786.94250496 Ry
     Harris-Foulkes estimate   =    -786.94636380 Ry
     estimated scf accuracy    <       0.05877501 Ry

     iteration # 11     ecut=    70.00 Ry     beta= 0.70
     Davidson diagonalization with overlap
     ethr =  2.77E-05,  avg # of iterations =  1.0

     negative rho (up, down):  2.463E-03 0.000E+00

     total cpu time spent up to now is      663.1 secs

     total energy              =    -786.94261556 Ry
     Harris-Foulkes estimate   =    -786.94537059 Ry
     estimated scf accuracy    <       0.04068384 Ry

     iteration # 12     ecut=    70.00 Ry     beta= 0.70
     Davidson diagonalization with overlap
     ethr =  1.92E-05,  avg # of iterations =  1.0

     negative rho (up, down):  2.505E-03 0.000E+00

     total cpu time spent up to now is      711.1 secs

     total energy              =    -786.94352883 Ry
     Harris-Foulkes estimate   =    -786.94533761 Ry
     estimated scf accuracy    <       0.03752500 Ry

     iteration # 13     ecut=    70.00 Ry     beta= 0.70
     Davidson diagonalization with overlap
     ethr =  1.77E-05,  avg # of iterations =  1.0

     negative rho (up, down):  2.478E-03 0.000E+00

     total cpu time spent up to now is      759.2 secs

     total energy              =    -786.94405348 Ry
     Harris-Foulkes estimate   =    -786.94472447 Ry
     estimated scf accuracy    <       0.00513351 Ry

     iteration # 14     ecut=    70.00 Ry     beta= 0.70
     Davidson diagonalization with overlap
     ethr =  2.42E-06,  avg # of iterations =  4.0

     negative rho (up, down):  2.469E-03 0.000E+00

     total cpu time spent up to now is      808.7 secs

     total energy              =    -786.94428341 Ry
     Harris-Foulkes estimate   =    -786.94437569 Ry
     estimated scf accuracy    <       0.00174937 Ry

     iteration # 15     ecut=    70.00 Ry     beta= 0.70
     Davidson diagonalization with overlap
     ethr =  8.25E-07,  avg # of iterations =  2.0

     negative rho (up, down):  2.468E-03 0.000E+00

     total cpu time spent up to now is      857.0 secs

     total energy              =    -786.94431770 Ry
     Harris-Foulkes estimate   =    -786.94436928 Ry
     estimated scf accuracy    <       0.00167648 Ry

     iteration # 16     ecut=    70.00 Ry     beta= 0.70
     Davidson diagonalization with overlap
     ethr =  7.91E-07,  avg # of iterations =  1.0

     negative rho (up, down):  2.464E-03 0.000E+00

     total cpu time spent up to now is      905.0 secs

     total energy              =    -786.94432303 Ry
     Harris-Foulkes estimate   =    -786.94433797 Ry
     estimated scf accuracy    <       0.00151500 Ry

     iteration # 17     ecut=    70.00 Ry     beta= 0.70
     Davidson diagonalization with overlap
     ethr =  7.15E-07,  avg # of iterations =  1.0

     negative rho (up, down):  2.462E-03 0.000E+00

     total cpu time spent up to now is      953.0 secs

     total energy              =    -786.94428992 Ry
     Harris-Foulkes estimate   =    -786.94433014 Ry
     estimated scf accuracy    <       0.00171796 Ry

     iteration # 18     ecut=    70.00 Ry     beta= 0.70
     Davidson diagonalization with overlap
     ethr =  7.15E-07,  avg # of iterations =  1.0

     negative rho (up, down):  2.466E-03 0.000E+00

     total cpu time spent up to now is     1001.7 secs

     total energy              =    -786.94375729 Ry
     Harris-Foulkes estimate   =    -786.94429940 Ry
     estimated scf accuracy    <       0.00120924 Ry

     iteration # 19     ecut=    70.00 Ry     beta= 0.70
     Davidson diagonalization with overlap
     ethr =  5.70E-07,  avg # of iterations =  4.0

     negative rho (up, down):  2.475E-03 0.000E+00

     total cpu time spent up to now is     1057.2 secs

     total energy              =    -786.94389417 Ry
     Harris-Foulkes estimate   =    -786.94428894 Ry
     estimated scf accuracy    <       0.00318815 Ry

     iteration # 20     ecut=    70.00 Ry     beta= 0.70
     Davidson diagonalization with overlap
     ethr =  5.70E-07,  avg # of iterations =  3.0

     negative rho (up, down):  2.481E-03 0.000E+00

     total cpu time spent up to now is     1107.7 secs

     total energy              =    -786.94412446 Ry
     Harris-Foulkes estimate   =    -786.94415929 Ry
     estimated scf accuracy    <       0.00027019 Ry

     iteration # 21     ecut=    70.00 Ry     beta= 0.70
     Davidson diagonalization with overlap
     ethr =  1.27E-07,  avg # of iterations =  3.0

     negative rho (up, down):  2.482E-03 0.000E+00

     total cpu time spent up to now is     1157.3 secs

     total energy              =    -786.94412085 Ry
     Harris-Foulkes estimate   =    -786.94415516 Ry
     estimated scf accuracy    <       0.00024480 Ry

     iteration # 22     ecut=    70.00 Ry     beta= 0.70
     Davidson diagonalization with overlap
     ethr =  1.15E-07,  avg # of iterations =  1.0

     negative rho (up, down):  2.482E-03 0.000E+00

     total cpu time spent up to now is     1205.4 secs

     total energy              =    -786.94409689 Ry
     Harris-Foulkes estimate   =    -786.94419153 Ry
     estimated scf accuracy    <       0.00289712 Ry

     iteration # 23     ecut=    70.00 Ry     beta= 0.70
     Davidson diagonalization with overlap
     ethr =  1.15E-07,  avg # of iterations =  2.0

     negative rho (up, down):  2.484E-03 0.000E+00

     total cpu time spent up to now is     1253.7 secs

     total energy              =    -786.94414068 Ry
     Harris-Foulkes estimate   =    -786.94414927 Ry
     estimated scf accuracy    <       0.00015364 Ry

     iteration # 24     ecut=    70.00 Ry     beta= 0.70
     Davidson diagonalization with overlap
     ethr =  7.25E-08,  avg # of iterations =  1.0

     negative rho (up, down):  2.485E-03 0.000E+00

     total cpu time spent up to now is     1301.7 secs

     total energy              =    -786.94414425 Ry
     Harris-Foulkes estimate   =    -786.94414516 Ry
     estimated scf accuracy    <       0.00000881 Ry

     iteration # 25     ecut=    70.00 Ry     beta= 0.70
     Davidson diagonalization with overlap
     ethr =  4.16E-09,  avg # of iterations =  4.0

     negative rho (up, down):  2.486E-03 0.000E+00

     total cpu time spent up to now is     1352.8 secs

     total energy              =    -786.94414530 Ry
     Harris-Foulkes estimate   =    -786.94414560 Ry
     estimated scf accuracy    <       0.00000325 Ry

     iteration # 26     ecut=    70.00 Ry     beta= 0.70
     Davidson diagonalization with overlap
     ethr =  1.53E-09,  avg # of iterations =  2.0

     negative rho (up, down):  2.487E-03 0.000E+00

     total cpu time spent up to now is     1402.5 secs

     total energy              =    -786.94414575 Ry
     Harris-Foulkes estimate   =    -786.94414566 Ry
     estimated scf accuracy    <       0.00000248 Ry

     iteration # 27     ecut=    70.00 Ry     beta= 0.70
     Davidson diagonalization with overlap
     ethr =  1.17E-09,  avg # of iterations =  2.0

     negative rho (up, down):  2.487E-03 0.000E+00

     total cpu time spent up to now is     1451.7 secs

     End of self-consistent calculation

          k = 0.0000 0.0000 0.0000 ( 87777 PWs)   bands (ev):

   -71.8521 -44.1460 -44.1456 -43.0346 -19.6386 -18.8002 -18.8002 -18.7072
   -18.7072 -18.7060 -18.3363 -16.9528 -16.9527 -16.9475 -16.8418 -16.8418
   -16.5401 -16.0996 -16.0995 -15.9991 -15.9183 -15.9182 -15.2051 -13.9628
   -13.9628 -13.9196 -13.8686 -13.8685 -13.2056 -12.9437 -12.9436 -12.9143
   -12.5891 -12.5891 -12.1510 -11.7041 -11.7040 -11.5394 -11.2332 -11.2331
   -10.2671  -9.4844  -9.4843  -9.3257  -9.1913  -9.1913  -9.0983  -9.0667
    -9.0667  -9.0553  -8.5403  -8.5403  -7.9967  -7.9967  -7.8982  -7.7915
    -7.7090  -7.2882  -7.2882  -7.0371  -7.0364  -6.9815  -6.7261  -6.7068
    -6.7068  -6.6921  -6.6918  -6.6684  -6.6009  -6.4367  -6.4366  -6.4082
    -6.4033  -6.4032  -6.3908  -6.3548  -5.3992  -5.3987  -5.3276  -5.3275
    -5.0633  -5.0633  -4.8615  -4.7670  -4.6123  -4.5891  -4.5889  -4.2739
    -4.2564  -4.0401  -4.0401  -3.7230  -3.7227  -3.6412  -3.5444  -3.5444
    -3.4799  -3.4799  -3.0093  -2.4376  -2.4376  -1.7240  -1.6790  -1.6789
    -0.7211  -0.5439  -0.5438  -0.5054   1.0610   1.0830   1.0832   1.7712
     1.8659   1.8660   2.4539   2.9217   2.9218   2.9822   3.3603   3.4067
     3.4106   3.6552   3.6638   3.7060   3.7958   3.7980   3.8305

     occupation numbers 
     1.0000   1.0000   1.0000   1.0000   1.0000   1.0000   1.0000   1.0000
     1.0000   1.0000   1.0000   1.0000   1.0000   1.0000   1.0000   1.0000
     1.0000   1.0000   1.0000   1.0000   1.0000   1.0000   1.0000   1.0000
     1.0000   1.0000   1.0000   1.0000   1.0000   1.0000   1.0000   1.0000
     1.0000   1.0000   1.0000   1.0000   1.0000   1.0000   1.0000   1.0000
     1.0000   1.0000   1.0000   1.0000   1.0000   1.0000   1.0000   1.0000
     1.0000   1.0000   1.0000   1.0000   1.0000   1.0000   1.0000   1.0000
     1.0000   1.0000   1.0000   1.0000   1.0000   1.0000   1.0000   1.0000
     1.0000   1.0000   1.0000   1.0000   1.0000   1.0000   1.0000   1.0000
     1.0000   1.0000   1.0000   1.0000   1.0000   1.0000   1.0000   1.0000
     1.0000   1.0000   1.0000   1.0000   1.0000   1.0000   1.0000   1.0000
     1.0000   1.0000   1.0000   1.0000   1.0000   1.0000   1.0000   1.0000
     1.0000   1.0000   1.0000   1.0000   1.0000   1.0000   1.0000   1.0000
     1.0000   0.5010   0.4990   0.0000   0.0000   0.0000   0.0000   0.0000
     0.0000   0.0000   0.0000   0.0000   0.0000   0.0000   0.0000   0.0000
     0.0000   0.0000   0.0000   0.0000   0.0000   0.0000   0.0000

     the Fermi energy is    -0.5419 ev

!    total energy              =    -786.94414614 Ry
     Harris-Foulkes estimate   =    -786.94414595 Ry
     estimated scf accuracy    <       0.00000020 Ry

     The total energy is the sum of the following terms:

     one-electron contribution =   -2630.56307126 Ry
     hartree contribution      =    1360.91630280 Ry
     xc contribution           =    -254.33373345 Ry
     ewald contribution        =     737.03701216 Ry
     smearing contrib. (-TS)   =      -0.00065639 Ry

     convergence has been achieved in  27 iterations

     Writing output data file gr-12.save/

     init_run     :     47.59s CPU     48.74s WALL (       1 calls)
     electrons    :   1358.15s CPU   1401.94s WALL (       1 calls)

     Called by init_run:
     wfcinit      :     20.61s CPU     20.77s WALL (       1 calls)
     wfcinit:atom :      0.02s CPU      0.05s WALL (       1 calls)
     wfcinit:wfcr :     20.42s CPU     20.52s WALL (       1 calls)
     potinit      :     12.13s CPU     12.52s WALL (       1 calls)
     hinit0       :     10.32s CPU     10.35s WALL (       1 calls)

     Called by electrons:
     c_bands      :    810.76s CPU    815.54s WALL (      27 calls)
     sum_band     :    269.30s CPU    284.50s WALL (      27 calls)
     v_of_rho     :    169.18s CPU    179.33s WALL (      28 calls)
     v_h          :      1.91s CPU      1.98s WALL (      28 calls)
     v_xc         :    167.26s CPU    177.34s WALL (      28 calls)
     newd         :    110.56s CPU    124.87s WALL (      28 calls)
     mix_rho      :      5.36s CPU      5.45s WALL (      27 calls)

     Called by c_bands:
     init_us_2    :      2.30s CPU      2.34s WALL (      55 calls)
     cegterg      :    804.86s CPU    809.62s WALL (      27 calls)

     Called by sum_band:
     sum_band:bec :      0.02s CPU      0.02s WALL (      27 calls)
     addusdens    :    164.80s CPU    179.30s WALL (      27 calls)

     Called by *egterg:
     h_psi        :    429.02s CPU    432.38s WALL (     111 calls)
     s_psi        :    144.07s CPU    144.16s WALL (     111 calls)
     g_psi        :      0.42s CPU      0.43s WALL (      83 calls)
     cdiaghg      :      7.18s CPU      7.18s WALL (     110 calls)
     cegterg:over :     97.18s CPU     97.24s WALL (      83 calls)
     cegterg:upda :     56.93s CPU     57.31s WALL (      83 calls)
     cegterg:last :     42.14s CPU     42.15s WALL (      27 calls)

     Called by h_psi:
     h_psi:pot    :    428.50s CPU    431.32s WALL (     111 calls)
     h_psi:calbec :    144.81s CPU    144.90s WALL (     111 calls)
     vloc_psi     :    139.52s CPU    142.20s WALL (     111 calls)
     add_vuspsi   :    144.17s CPU    144.22s WALL (     111 calls)

     General routines
     calbec       :    208.37s CPU    208.49s WALL (     138 calls)
     fft          :     95.86s CPU     99.56s WALL (    1762 calls)
     ffts         :      0.97s CPU      1.00s WALL (      55 calls)
     fftw         :    149.31s CPU    152.31s WALL (   19065 calls)
     interpolate  :      2.29s CPU      2.35s WALL (      28 calls)

     Parallel routines
     fft_scatt_xy :     41.23s CPU     41.80s WALL (   20882 calls)
     fft_scatt_yz :     87.65s CPU     92.50s WALL (   20882 calls)

     PWSCF        :  23m26.96s CPU  24m12.16s WALL


   This run was terminated on:   4:51: 6  20Jul2022            

=------------------------------------------------------------------------------=
   JOB DONE.
=------------------------------------------------------------------------------=
