
     Program PWSCF v.6.4.1 starts on 20Jul2022 at  8:26: 4 

     This program is part of the open-source Quantum ESPRESSO suite
     for quantum simulation of materials; please cite
         "P. Giannozzi et al., J. Phys.:Condens. Matter 21 395502 (2009);
         "P. Giannozzi et al., J. Phys.:Condens. Matter 29 465901 (2017);
          URL http://www.quantum-espresso.org", 
     in publications or presentations arising from this work. More details at
     http://www.quantum-espresso.org/quote

     Parallel version (MPI), running on     6 processors

     MPI processes distributed on     1 nodes
     R & G space division:  proc/nbgrp/npool/nimage =       6
     Reading input from distance-1.8.in

     Current dimensions of program PWSCF are:
     Max number of different atomic species (ntypx) = 10
     Max number of k-points (npk) =  40000
     Max angular momentum in pseudopotentials (lmaxx) =  3

     IMPORTANT: XC functional enforced from input :
     Exchange-correlation      = RVV10 ( 1  4 13  4 3 0)
     Any further DFT definition will be discarded
     Please, verify this is what you really want

               file H.pbe-rrkjus.UPF: wavefunction(s)  1S renormalized
               file Cr.pbe-spn-rrkjus_psl.1.0.0.UPF: wavefunction(s)  3P renormalized

     Subspace diagonalization in iterative solution of the eigenvalue problem:
     a serial algorithm will be used


     Parallelization info
     --------------------
     sticks:   dense  smooth     PW     G-vecs:    dense   smooth      PW
     Min        3051    1746    432               270999   117096   14629
     Max        3053    1747    437               271001   117099   14630
     Sum       18313   10477   2611              1626001   702581   87777



     bravais-lattice index     =            4
     lattice parameter (alat)  =      23.2937  a.u.
     unit-cell volume          =    8879.8548 (a.u.)^3
     number of atoms/cell      =           52
     number of atomic types    =            3
     number of electrons       =       212.00
     number of Kohn-Sham states=          127
     kinetic-energy cutoff     =      70.0000  Ry
     charge density cutoff     =     490.0000  Ry
     convergence threshold     =      1.0E-06
     mixing beta               =       0.7000
     number of iterations used =            8  plain     mixing
     Exchange-correlation      = RVV10 ( 1  4 13  4 3 0)

     celldm(1)=  23.293684  celldm(2)=   0.000000  celldm(3)=   0.811261
     celldm(4)=   0.000000  celldm(5)=   0.000000  celldm(6)=   0.000000

     crystal axes: (cart. coord. in units of alat)
               a(1) = (   1.000000   0.000000   0.000000 )  
               a(2) = (  -0.500000   0.866025   0.000000 )  
               a(3) = (   0.000000   0.000000   0.811261 )  

     reciprocal axes: (cart. coord. in units 2 pi/alat)
               b(1) = (  1.000000  0.577350 -0.000000 )  
               b(2) = (  0.000000  1.154701  0.000000 )  
               b(3) = (  0.000000 -0.000000  1.232649 )  


     PseudoPot. # 1 for H  read from file:
     /home/cristian/Escritorio/Proyecto_Grafeno/pseudopotenciales/H.pbe-rrkjus.UPF
     MD5 check sum: 7cc9d459525c9a0585f487a71c3c9563
     Pseudo is Ultrasoft, Zval =  1.0
     Generated by new atomic code, or converted to UPF format
     Using radial grid of 1061 points,  2 beta functions with: 
                l(1) =   0
                l(2) =   0
     Q(r) pseudized with 0 coefficients 


     PseudoPot. # 2 for C  read from file:
     /home/cristian/Escritorio/Proyecto_Grafeno/pseudopotenciales/C.pbe-n-rrkjus_psl.1.0.0.UPF
     MD5 check sum: 1fdd950c42eb37d8afe3dd2f8d12311e
     Pseudo is Ultrasoft + core correction, Zval =  4.0
     Generated using "atomic" code by A. Dal Corso v.6.3MaX
     Using radial grid of 1073 points,  4 beta functions with: 
                l(1) =   0
                l(2) =   0
                l(3) =   1
                l(4) =   1
     Q(r) pseudized with 0 coefficients 


     PseudoPot. # 3 for Cr read from file:
     /home/cristian/Escritorio/Proyecto_Grafeno/pseudopotenciales/Cr.pbe-spn-rrkjus_psl.1.0.0.UPF
     MD5 check sum: 793d051e4f89dd1e3290b85340a92c0a
     Pseudo is Ultrasoft + core correction, Zval = 14.0
     Generated using "atomic" code by A. Dal Corso v.6.2.2
     Using radial grid of 1183 points,  6 beta functions with: 
                l(1) =   0
                l(2) =   0
                l(3) =   1
                l(4) =   1
                l(5) =   2
                l(6) =   2
     Q(r) pseudized with 0 coefficients 


     vdW kernel table read from file rVV10_kernel_table
     MD5 check sum: b8e2538accc0c0b3206b45ba4daaba6c

     atomic species   valence    mass     pseudopotential
        H              1.00     1.00794     H ( 1.00)
        C              4.00    12.01070     C ( 1.00)
        Cr            14.00    51.99610     Cr( 1.00)

     No symmetry found


                                    s                        frac. trans.

      isym =  1     identity                                     

 cryst.   s( 1) = (     1          0          0      )
                  (     0          1          0      )
                  (     0          0          1      )

 cart.    s( 1) = (  1.0000000  0.0000000  0.0000000 )
                  (  0.0000000  1.0000000  0.0000000 )
                  (  0.0000000  0.0000000  1.0000000 )


     point group C_1 (1)    
     there are  1 classes
     the character table:

       E    
A      1.00

     the symmetry operations in each class and the name of the first element:

     E        1
          identity                                               

   Cartesian axes

     site n.     atom                  positions (alat units)
         1           H   tau(   1) = (   0.2500000   0.4907477   0.1460270  )
         2           H   tau(   2) = (   0.2500000   0.4907477   0.2070397  )
         3           C   tau(   3) = (   0.0000000   0.0000000   0.0000000  )
         4           C   tau(   4) = (   0.0000000   0.1154701   0.0000000  )
         5           C   tau(   5) = (  -0.1000000   0.1732051   0.0000000  )
         6           C   tau(   6) = (  -0.1000000   0.2886751   0.0000000  )
         7           C   tau(   7) = (  -0.2000000   0.3464102   0.0000000  )
         8           C   tau(   8) = (  -0.2000000   0.4618802   0.0000000  )
         9           C   tau(   9) = (  -0.3000000   0.5196152   0.0000000  )
        10           C   tau(  10) = (  -0.3000000   0.6350853   0.0000000  )
        11           C   tau(  11) = (  -0.4000000   0.6928203   0.0000000  )
        12           C   tau(  12) = (  -0.4000000   0.8082904   0.0000000  )
        13           C   tau(  13) = (   0.2000000   0.0000000   0.0000000  )
        14           C   tau(  14) = (   0.2000000   0.1154701   0.0000000  )
        15           C   tau(  15) = (   0.1000000   0.1732051   0.0000000  )
        16           C   tau(  16) = (   0.1000000   0.2886751   0.0000000  )
        17           C   tau(  17) = (   0.0000000   0.3464102   0.0000000  )
        18           C   tau(  18) = (   0.0000000   0.4618802   0.0000000  )
        19           C   tau(  19) = (  -0.1000000   0.5196152   0.0000000  )
        20           C   tau(  20) = (  -0.1000000   0.6350853   0.0000000  )
        21           C   tau(  21) = (  -0.2000000   0.6928203   0.0000000  )
        22           C   tau(  22) = (  -0.2000000   0.8082904   0.0000000  )
        23           C   tau(  23) = (   0.4000000   0.0000000   0.0000000  )
        24           C   tau(  24) = (   0.4000000   0.1154701   0.0000000  )
        25           C   tau(  25) = (   0.3000000   0.1732051   0.0000000  )
        26           C   tau(  26) = (   0.3000000   0.2886751   0.0000000  )
        27           C   tau(  27) = (   0.2000000   0.3464102   0.0000000  )
        28           Cr  tau(  28) = (   0.2000000   0.4618802   0.0000000  )
        29           C   tau(  29) = (   0.1000000   0.5196152   0.0000000  )
        30           C   tau(  30) = (   0.1000000   0.6350853   0.0000000  )
        31           C   tau(  31) = (   0.0000000   0.6928203   0.0000000  )
        32           C   tau(  32) = (   0.0000000   0.8082904   0.0000000  )
        33           C   tau(  33) = (   0.6000000   0.0000000   0.0000000  )
        34           C   tau(  34) = (   0.6000000   0.1154701   0.0000000  )
        35           C   tau(  35) = (   0.5000000   0.1732051   0.0000000  )
        36           C   tau(  36) = (   0.5000000   0.2886751   0.0000000  )
        37           C   tau(  37) = (   0.4000000   0.3464102   0.0000000  )
        38           C   tau(  38) = (   0.4000000   0.4618802   0.0000000  )
        39           C   tau(  39) = (   0.3000000   0.5196152   0.0000000  )
        40           C   tau(  40) = (   0.3000000   0.6350853   0.0000000  )
        41           C   tau(  41) = (   0.2000000   0.6928203   0.0000000  )
        42           C   tau(  42) = (   0.2000000   0.8082904   0.0000000  )
        43           C   tau(  43) = (   0.8000000   0.0000000   0.0000000  )
        44           C   tau(  44) = (   0.8000000   0.1154701   0.0000000  )
        45           C   tau(  45) = (   0.7000000   0.1732051   0.0000000  )
        46           C   tau(  46) = (   0.7000000   0.2886751   0.0000000  )
        47           C   tau(  47) = (   0.6000000   0.3464102   0.0000000  )
        48           C   tau(  48) = (   0.6000000   0.4618802   0.0000000  )
        49           C   tau(  49) = (   0.5000000   0.5196152   0.0000000  )
        50           C   tau(  50) = (   0.5000000   0.6350853   0.0000000  )
        51           C   tau(  51) = (   0.4000000   0.6928203   0.0000000  )
        52           C   tau(  52) = (   0.4000000   0.8082904   0.0000000  )

   Crystallographic axes

     site n.     atom                  positions (cryst. coord.)
         1           H   tau(   1) = (  0.5333333  0.5666667  0.1800000  )
         2           H   tau(   2) = (  0.5333333  0.5666667  0.2552072  )
         3           C   tau(   3) = (  0.0000000  0.0000000  0.0000000  )
         4           C   tau(   4) = (  0.0666667  0.1333333  0.0000000  )
         5           C   tau(   5) = (  0.0000000  0.2000000  0.0000000  )
         6           C   tau(   6) = (  0.0666667  0.3333333  0.0000000  )
         7           C   tau(   7) = (  0.0000000  0.4000000  0.0000000  )
         8           C   tau(   8) = (  0.0666667  0.5333333  0.0000000  )
         9           C   tau(   9) = (  0.0000000  0.6000000  0.0000000  )
        10           C   tau(  10) = (  0.0666667  0.7333333  0.0000000  )
        11           C   tau(  11) = (  0.0000000  0.8000000  0.0000000  )
        12           C   tau(  12) = (  0.0666667  0.9333333  0.0000000  )
        13           C   tau(  13) = (  0.2000000  0.0000000  0.0000000  )
        14           C   tau(  14) = (  0.2666667  0.1333333  0.0000000  )
        15           C   tau(  15) = (  0.2000000  0.2000000  0.0000000  )
        16           C   tau(  16) = (  0.2666667  0.3333333  0.0000000  )
        17           C   tau(  17) = (  0.2000000  0.4000000  0.0000000  )
        18           C   tau(  18) = (  0.2666667  0.5333333  0.0000000  )
        19           C   tau(  19) = (  0.2000000  0.6000000  0.0000000  )
        20           C   tau(  20) = (  0.2666667  0.7333333  0.0000000  )
        21           C   tau(  21) = (  0.2000000  0.8000000  0.0000000  )
        22           C   tau(  22) = (  0.2666667  0.9333333  0.0000000  )
        23           C   tau(  23) = (  0.4000000  0.0000000  0.0000000  )
        24           C   tau(  24) = (  0.4666667  0.1333333  0.0000000  )
        25           C   tau(  25) = (  0.4000000  0.2000000  0.0000000  )
        26           C   tau(  26) = (  0.4666667  0.3333333  0.0000000  )
        27           C   tau(  27) = (  0.4000000  0.4000000  0.0000000  )
        28           Cr  tau(  28) = (  0.4666667  0.5333333  0.0000000  )
        29           C   tau(  29) = (  0.4000000  0.6000000  0.0000000  )
        30           C   tau(  30) = (  0.4666667  0.7333333  0.0000000  )
        31           C   tau(  31) = (  0.4000000  0.8000000  0.0000000  )
        32           C   tau(  32) = (  0.4666667  0.9333333  0.0000000  )
        33           C   tau(  33) = (  0.6000000  0.0000000  0.0000000  )
        34           C   tau(  34) = (  0.6666667  0.1333333  0.0000000  )
        35           C   tau(  35) = (  0.6000000  0.2000000  0.0000000  )
        36           C   tau(  36) = (  0.6666667  0.3333333  0.0000000  )
        37           C   tau(  37) = (  0.6000000  0.4000000  0.0000000  )
        38           C   tau(  38) = (  0.6666667  0.5333333  0.0000000  )
        39           C   tau(  39) = (  0.6000000  0.6000000  0.0000000  )
        40           C   tau(  40) = (  0.6666667  0.7333333  0.0000000  )
        41           C   tau(  41) = (  0.6000000  0.8000000  0.0000000  )
        42           C   tau(  42) = (  0.6666667  0.9333333  0.0000000  )
        43           C   tau(  43) = (  0.8000000  0.0000000  0.0000000  )
        44           C   tau(  44) = (  0.8666667  0.1333333  0.0000000  )
        45           C   tau(  45) = (  0.8000000  0.2000000  0.0000000  )
        46           C   tau(  46) = (  0.8666667  0.3333333  0.0000000  )
        47           C   tau(  47) = (  0.8000000  0.4000000  0.0000000  )
        48           C   tau(  48) = (  0.8666667  0.5333333  0.0000000  )
        49           C   tau(  49) = (  0.8000000  0.6000000  0.0000000  )
        50           C   tau(  50) = (  0.8666667  0.7333333  0.0000000  )
        51           C   tau(  51) = (  0.8000000  0.8000000  0.0000000  )
        52           C   tau(  52) = (  0.8666667  0.9333333  0.0000000  )

     number of k points=     1  Marzari-Vanderbilt smearing, width (Ry)=  0.0010
                       cart. coord. in units 2pi/alat
        k(    1) = (   0.0000000   0.0000000   0.0000000), wk =   2.0000000

                       cryst. coord.
        k(    1) = (   0.0000000   0.0000000   0.0000000), wk =   2.0000000

     Dense  grid:  1626001 G-vectors     FFT dimensions: ( 180, 180, 135)

     Smooth grid:   702581 G-vectors     FFT dimensions: ( 125, 125, 108)

     Dynamical RAM for                 wfc:      28.36 MB

     Dynamical RAM for     wfc (w. buffer):      28.36 MB

     Dynamical RAM for           str. fact:      12.41 MB

     Dynamical RAM for           local pot:       0.00 MB

     Dynamical RAM for          nlocal pot:      92.46 MB

     Dynamical RAM for                qrad:      19.73 MB

     Dynamical RAM for          rho,v,vnew:      29.46 MB

     Dynamical RAM for               rhoin:       9.82 MB

     Dynamical RAM for            rho*nmix:      66.16 MB

     Dynamical RAM for           G-vectors:      16.40 MB

     Dynamical RAM for          h,s,v(r/c):      11.81 MB

     Dynamical RAM for          <psi|beta>:       0.80 MB

     Dynamical RAM for                 psi:     113.46 MB

     Dynamical RAM for                hpsi:     113.46 MB

     Dynamical RAM for                spsi:     113.46 MB

     Dynamical RAM for      wfcinit/wfcrot:      93.90 MB

     Dynamical RAM for           addusdens:     971.75 MB

     Estimated static dynamical RAM per process >     319.78 MB

     Estimated max dynamical RAM per process >       1.26 GB

     Estimated total dynamical RAM >       7.57 GB

     Check: negative core charge=   -0.000002

     Initial potential from superposition of free atoms

     starting charge  211.80478, renormalised to  212.00000

     negative rho (up, down):  6.140E-04 0.000E+00


---------------------------------------------------------------------------------
Carrying out rVV10 run using the following parameters:
Nqs =      20    Nr_points =    1024   r_max =   100.000
b_value =  6.30000    beta =  0.00901
     q_mesh =  0.00010000  0.00030000  0.00058939  0.00100810
               0.00161396  0.00249058  0.00375900  0.00559430
               0.00824984  0.01209221  0.01765183  0.02569619
               0.03733578  0.05417739  0.07854596  0.11380545
               0.16482331  0.23864234  0.34545298  0.50000000

Gradients computed in Reciprocal space

---------------------------------------------------------------------------------


     Starting wfcs are  208 randomized atomic wfcs

     total cpu time spent up to now is       49.8 secs

     Self-consistent Calculation

     iteration #  1     ecut=    70.00 Ry     beta= 0.70
     Davidson diagonalization with overlap
     ethr =  1.00E-02,  avg # of iterations =  2.0

     negative rho (up, down):  1.049E-03 0.000E+00

     total cpu time spent up to now is      114.9 secs

     total energy              =    -781.28001159 Ry
     Harris-Foulkes estimate   =    -790.31587617 Ry
     estimated scf accuracy    <      12.21172885 Ry

     iteration #  2     ecut=    70.00 Ry     beta= 0.70
     Davidson diagonalization with overlap
     ethr =  5.76E-03,  avg # of iterations =  7.0

     negative rho (up, down):  1.192E-03 0.000E+00

     total cpu time spent up to now is      178.0 secs

     total energy              =    -773.21854914 Ry
     Harris-Foulkes estimate   =    -804.59649496 Ry
     estimated scf accuracy    <     118.59318722 Ry

     iteration #  3     ecut=    70.00 Ry     beta= 0.70
     Davidson diagonalization with overlap
     ethr =  5.76E-03,  avg # of iterations =  5.0

     negative rho (up, down):  1.337E-03 0.000E+00

     total cpu time spent up to now is      261.3 secs

     total energy              =    -785.54098382 Ry
     Harris-Foulkes estimate   =    -788.02599660 Ry
     estimated scf accuracy    <       5.75299053 Ry

     iteration #  4     ecut=    70.00 Ry     beta= 0.70
     Davidson diagonalization with overlap
     ethr =  2.71E-03,  avg # of iterations =  4.0

     negative rho (up, down):  1.498E-03 0.000E+00

     total cpu time spent up to now is      320.3 secs

     total energy              =    -785.92360807 Ry
     Harris-Foulkes estimate   =    -787.62097830 Ry
     estimated scf accuracy    <       6.57973117 Ry

     iteration #  5     ecut=    70.00 Ry     beta= 0.70
     Davidson diagonalization with overlap
     ethr =  2.71E-03,  avg # of iterations =  4.0

     negative rho (up, down):  1.861E-03 0.000E+00

     total cpu time spent up to now is      370.9 secs

     total energy              =    -786.91688811 Ry
     Harris-Foulkes estimate   =    -787.17334527 Ry
     estimated scf accuracy    <       1.38715742 Ry

     iteration #  6     ecut=    70.00 Ry     beta= 0.70
     Davidson diagonalization with overlap
     ethr =  6.54E-04,  avg # of iterations =  3.0

     negative rho (up, down):  2.215E-03 0.000E+00

     total cpu time spent up to now is      420.0 secs

     total energy              =    -786.93337715 Ry
     Harris-Foulkes estimate   =    -786.99432210 Ry
     estimated scf accuracy    <       0.41403616 Ry

     iteration #  7     ecut=    70.00 Ry     beta= 0.70
     Davidson diagonalization with overlap
     ethr =  1.95E-04,  avg # of iterations =  2.0

     negative rho (up, down):  2.480E-03 0.000E+00

     total cpu time spent up to now is      468.9 secs

     total energy              =    -786.92721154 Ry
     Harris-Foulkes estimate   =    -786.95642456 Ry
     estimated scf accuracy    <       0.12873048 Ry

     iteration #  8     ecut=    70.00 Ry     beta= 0.70
     Davidson diagonalization with overlap
     ethr =  6.07E-05,  avg # of iterations = 12.0

     negative rho (up, down):  2.623E-03 0.000E+00

     total cpu time spent up to now is      522.1 secs

     total energy              =    -786.92892052 Ry
     Harris-Foulkes estimate   =    -786.95023007 Ry
     estimated scf accuracy    <       0.09755574 Ry

     iteration #  9     ecut=    70.00 Ry     beta= 0.70
     Davidson diagonalization with overlap
     ethr =  4.60E-05,  avg # of iterations =  2.0

     negative rho (up, down):  2.732E-03 0.000E+00

     total cpu time spent up to now is      570.4 secs

     total energy              =    -786.93484905 Ry
     Harris-Foulkes estimate   =    -786.94638586 Ry
     estimated scf accuracy    <       0.07939882 Ry

     iteration # 10     ecut=    70.00 Ry     beta= 0.70
     Davidson diagonalization with overlap
     ethr =  3.75E-05,  avg # of iterations =  1.0

     negative rho (up, down):  2.882E-03 0.000E+00

     total cpu time spent up to now is      618.4 secs

     total energy              =    -786.93502426 Ry
     Harris-Foulkes estimate   =    -786.94362266 Ry
     estimated scf accuracy    <       0.07003789 Ry

     iteration # 11     ecut=    70.00 Ry     beta= 0.70
     Davidson diagonalization with overlap
     ethr =  3.30E-05,  avg # of iterations =  1.0

     negative rho (up, down):  2.749E-03 0.000E+00

     total cpu time spent up to now is      666.4 secs

     total energy              =    -786.93804680 Ry
     Harris-Foulkes estimate   =    -786.94175478 Ry
     estimated scf accuracy    <       0.04968629 Ry

     iteration # 12     ecut=    70.00 Ry     beta= 0.70
     Davidson diagonalization with overlap
     ethr =  2.34E-05,  avg # of iterations =  1.0

     negative rho (up, down):  2.812E-03 0.000E+00

     total cpu time spent up to now is      714.5 secs

     total energy              =    -786.93852241 Ry
     Harris-Foulkes estimate   =    -786.93936182 Ry
     estimated scf accuracy    <       0.00885915 Ry

     iteration # 13     ecut=    70.00 Ry     beta= 0.70
     Davidson diagonalization with overlap
     ethr =  4.18E-06,  avg # of iterations = 17.0

     negative rho (up, down):  2.836E-03 0.000E+00

     total cpu time spent up to now is      766.9 secs

     total energy              =    -786.93885094 Ry
     Harris-Foulkes estimate   =    -786.93928305 Ry
     estimated scf accuracy    <       0.00703248 Ry

     iteration # 14     ecut=    70.00 Ry     beta= 0.70
     Davidson diagonalization with overlap
     ethr =  3.32E-06,  avg # of iterations =  1.0

     negative rho (up, down):  2.857E-03 0.000E+00

     total cpu time spent up to now is      814.9 secs

     total energy              =    -786.93908043 Ry
     Harris-Foulkes estimate   =    -786.93914300 Ry
     estimated scf accuracy    <       0.00118844 Ry

     iteration # 15     ecut=    70.00 Ry     beta= 0.70
     Davidson diagonalization with overlap
     ethr =  5.61E-07,  avg # of iterations =  1.0

     negative rho (up, down):  2.863E-03 0.000E+00

     total cpu time spent up to now is      862.9 secs

     total energy              =    -786.93912190 Ry
     Harris-Foulkes estimate   =    -786.93913379 Ry
     estimated scf accuracy    <       0.00029641 Ry

     iteration # 16     ecut=    70.00 Ry     beta= 0.70
     Davidson diagonalization with overlap
     ethr =  1.40E-07,  avg # of iterations =  2.0

     negative rho (up, down):  2.865E-03 0.000E+00

     total cpu time spent up to now is      911.4 secs

     total energy              =    -786.93914083 Ry
     Harris-Foulkes estimate   =    -786.93914193 Ry
     estimated scf accuracy    <       0.00013592 Ry

     iteration # 17     ecut=    70.00 Ry     beta= 0.70
     Davidson diagonalization with overlap
     ethr =  6.41E-08,  avg # of iterations =  2.0

     negative rho (up, down):  2.867E-03 0.000E+00

     total cpu time spent up to now is      959.9 secs

     total energy              =    -786.93914657 Ry
     Harris-Foulkes estimate   =    -786.93914888 Ry
     estimated scf accuracy    <       0.00011802 Ry

     iteration # 18     ecut=    70.00 Ry     beta= 0.70
     Davidson diagonalization with overlap
     ethr =  5.57E-08,  avg # of iterations =  1.0

     negative rho (up, down):  2.867E-03 0.000E+00

     total cpu time spent up to now is     1008.0 secs

     total energy              =    -786.93915441 Ry
     Harris-Foulkes estimate   =    -786.93915004 Ry
     estimated scf accuracy    <       0.00000497 Ry

     iteration # 19     ecut=    70.00 Ry     beta= 0.70
     Davidson diagonalization with overlap
     ethr =  2.35E-09,  avg # of iterations =  4.0

     negative rho (up, down):  2.871E-03 0.000E+00

     total cpu time spent up to now is     1066.2 secs

     total energy              =    -786.93916127 Ry
     Harris-Foulkes estimate   =    -786.93916153 Ry
     estimated scf accuracy    <       0.00008449 Ry

     iteration # 20     ecut=    70.00 Ry     beta= 0.70
     Davidson diagonalization with overlap
     ethr =  2.35E-09,  avg # of iterations =  3.0

     negative rho (up, down):  2.874E-03 0.000E+00

     total cpu time spent up to now is     1120.8 secs

     total energy              =    -786.93916546 Ry
     Harris-Foulkes estimate   =    -786.93916671 Ry
     estimated scf accuracy    <       0.00003189 Ry

     iteration # 21     ecut=    70.00 Ry     beta= 0.70
     Davidson diagonalization with overlap
     ethr =  2.35E-09,  avg # of iterations =  4.0

     negative rho (up, down):  2.877E-03 0.000E+00

     total cpu time spent up to now is     1176.1 secs

     total energy              =    -786.93917101 Ry
     Harris-Foulkes estimate   =    -786.93917283 Ry
     estimated scf accuracy    <       0.00000402 Ry

     iteration # 22     ecut=    70.00 Ry     beta= 0.70
     Davidson diagonalization with overlap
     ethr =  1.90E-09,  avg # of iterations =  4.0

     negative rho (up, down):  2.881E-03 0.000E+00

     total cpu time spent up to now is     1231.9 secs

     End of self-consistent calculation

          k = 0.0000 0.0000 0.0000 ( 87777 PWs)   bands (ev):

   -71.7470 -44.0586 -44.0464 -42.9181 -19.6163 -18.7779 -18.7725 -18.6871
   -18.6866 -18.6842 -18.3104 -16.9308 -16.9279 -16.9233 -16.8186 -16.8171
   -16.5200 -16.0748 -16.0743 -15.9779 -15.8979 -15.8906 -15.1849 -13.9380
   -13.9344 -13.8929 -13.8477 -13.8471 -13.1869 -12.9210 -12.9186 -12.8910
   -12.5708 -12.5644 -12.1327 -11.6792 -11.6780 -11.5157 -11.2172 -11.2069
   -10.2664  -9.4611  -9.4559  -9.2951  -9.1674  -9.1662  -9.0765  -9.0460
    -9.0454  -9.0348  -8.8536  -8.5155  -8.4852  -7.9698  -7.9693  -7.8693
    -7.7131  -7.6837  -7.2654  -7.2635  -7.0035  -6.9618  -6.9050  -6.6806
    -6.6796  -6.6752  -6.6703  -6.6413  -6.5719  -6.4140  -6.4117  -6.3868
    -6.3825  -6.3801  -6.3334  -6.1874  -5.3587  -5.3031  -5.3011  -5.2892
    -5.0370  -5.0370  -4.8367  -4.7442  -4.5907  -4.5715  -4.5669  -4.2177
    -4.1969  -4.0171  -4.0149  -3.7039  -3.7005  -3.6219  -3.5185  -3.5182
    -3.4278  -3.4253  -2.9115  -2.4166  -2.4059  -1.7008  -1.6595  -1.6594
    -0.6604  -0.5158  -0.5149  -0.0896   1.0833   1.1000   1.1030   1.7908
     1.8913   1.8923   2.3573   2.9362   2.9434   3.0039   3.3484   3.3694
     3.4614   3.6491   3.6607   3.7075   3.8039   3.8232   3.8764

     occupation numbers 
     1.0000   1.0000   1.0000   1.0000   1.0000   1.0000   1.0000   1.0000
     1.0000   1.0000   1.0000   1.0000   1.0000   1.0000   1.0000   1.0000
     1.0000   1.0000   1.0000   1.0000   1.0000   1.0000   1.0000   1.0000
     1.0000   1.0000   1.0000   1.0000   1.0000   1.0000   1.0000   1.0000
     1.0000   1.0000   1.0000   1.0000   1.0000   1.0000   1.0000   1.0000
     1.0000   1.0000   1.0000   1.0000   1.0000   1.0000   1.0000   1.0000
     1.0000   1.0000   1.0000   1.0000   1.0000   1.0000   1.0000   1.0000
     1.0000   1.0000   1.0000   1.0000   1.0000   1.0000   1.0000   1.0000
     1.0000   1.0000   1.0000   1.0000   1.0000   1.0000   1.0000   1.0000
     1.0000   1.0000   1.0000   1.0000   1.0000   1.0000   1.0000   1.0000
     1.0000   1.0000   1.0000   1.0000   1.0000   1.0000   1.0000   1.0000
     1.0000   1.0000   1.0000   1.0000   1.0000   1.0000   1.0000   1.0000
     1.0000   1.0000   1.0000   1.0000   1.0000   1.0000   1.0000   1.0000
     1.0000   0.5264   0.4736   0.0000   0.0000   0.0000   0.0000   0.0000
     0.0000   0.0000   0.0000   0.0000   0.0000   0.0000   0.0000   0.0000
     0.0000   0.0000   0.0000   0.0000   0.0000   0.0000   0.0000

     the Fermi energy is    -0.5135 ev

!    total energy              =    -786.93917673 Ry
     Harris-Foulkes estimate   =    -786.93917695 Ry
     estimated scf accuracy    <       0.00000073 Ry

     The total energy is the sum of the following terms:

     one-electron contribution =   -2670.11047299 Ry
     hartree contribution      =    1380.82495023 Ry
     xc contribution           =    -254.38456698 Ry
     ewald contribution        =     756.73156750 Ry
     smearing contrib. (-TS)   =      -0.00065448 Ry

     convergence has been achieved in  22 iterations

     Writing output data file gr-12.save/

     init_run     :     47.39s CPU     48.60s WALL (       1 calls)
     electrons    :   1147.07s CPU   1182.22s WALL (       1 calls)

     Called by init_run:
     wfcinit      :     20.62s CPU     20.78s WALL (       1 calls)
     wfcinit:atom :      0.04s CPU      0.05s WALL (       1 calls)
     wfcinit:wfcr :     20.42s CPU     20.52s WALL (       1 calls)
     potinit      :     11.93s CPU     12.36s WALL (       1 calls)
     hinit0       :     10.31s CPU     10.35s WALL (       1 calls)

     Called by electrons:
     c_bands      :    701.77s CPU    705.52s WALL (      22 calls)
     sum_band     :    219.25s CPU    231.04s WALL (      22 calls)
     v_of_rho     :    138.44s CPU    146.96s WALL (      23 calls)
     v_h          :      1.52s CPU      1.62s WALL (      23 calls)
     v_xc         :    136.91s CPU    145.35s WALL (      23 calls)
     newd         :     90.75s CPU    102.60s WALL (      23 calls)
     mix_rho      :      4.28s CPU      4.36s WALL (      22 calls)

     Called by c_bands:
     init_us_2    :      1.93s CPU      1.97s WALL (      45 calls)
     cegterg      :    696.40s CPU    700.12s WALL (      22 calls)

     Called by sum_band:
     sum_band:bec :      0.02s CPU      0.02s WALL (      22 calls)
     addusdens    :    135.65s CPU    146.77s WALL (      22 calls)

     Called by *egterg:
     h_psi        :    368.70s CPU    371.36s WALL (     106 calls)
     s_psi        :    124.37s CPU    124.42s WALL (     106 calls)
     g_psi        :      0.39s CPU      0.39s WALL (      83 calls)
     cdiaghg      :      7.53s CPU      7.53s WALL (     105 calls)
     cegterg:over :     86.01s CPU     86.05s WALL (      83 calls)
     cegterg:upda :     54.11s CPU     54.39s WALL (      83 calls)
     cegterg:last :     35.67s CPU     35.68s WALL (      22 calls)

     Called by h_psi:
     h_psi:pot    :    368.24s CPU    370.44s WALL (     106 calls)
     h_psi:calbec :    124.22s CPU    124.28s WALL (     106 calls)
     vloc_psi     :    119.55s CPU    121.66s WALL (     106 calls)
     add_vuspsi   :    124.46s CPU    124.50s WALL (     106 calls)

     General routines
     calbec       :    176.03s CPU    176.12s WALL (     128 calls)
     fft          :     76.41s CPU     79.56s WALL (    1447 calls)
     ffts         :      0.74s CPU      0.79s WALL (      45 calls)
     fftw         :    126.72s CPU    129.13s WALL (   16194 calls)
     interpolate  :      1.89s CPU      1.94s WALL (      23 calls)

     Parallel routines
     fft_scatt_xy :     35.62s CPU     36.08s WALL (   17686 calls)
     fft_scatt_yz :     68.88s CPU     72.88s WALL (   17686 calls)

     PWSCF        :  19m55.71s CPU  20m32.31s WALL


   This run was terminated on:   8:46:36  20Jul2022            

=------------------------------------------------------------------------------=
   JOB DONE.
=------------------------------------------------------------------------------=
