
     Program PWSCF v.6.4.1 starts on 20Jul2022 at  2:48:40 

     This program is part of the open-source Quantum ESPRESSO suite
     for quantum simulation of materials; please cite
         "P. Giannozzi et al., J. Phys.:Condens. Matter 21 395502 (2009);
         "P. Giannozzi et al., J. Phys.:Condens. Matter 29 465901 (2017);
          URL http://www.quantum-espresso.org", 
     in publications or presentations arising from this work. More details at
     http://www.quantum-espresso.org/quote

     Parallel version (MPI), running on     6 processors

     MPI processes distributed on     1 nodes
     R & G space division:  proc/nbgrp/npool/nimage =       6
     Reading input from distance-2.6.in

     Current dimensions of program PWSCF are:
     Max number of different atomic species (ntypx) = 10
     Max number of k-points (npk) =  40000
     Max angular momentum in pseudopotentials (lmaxx) =  3

     IMPORTANT: XC functional enforced from input :
     Exchange-correlation      = RVV10 ( 1  4 13  4 3 0)
     Any further DFT definition will be discarded
     Please, verify this is what you really want

               file H.pbe-rrkjus.UPF: wavefunction(s)  1S renormalized
               file Cr.pbe-spn-rrkjus_psl.1.0.0.UPF: wavefunction(s)  3P renormalized

     Subspace diagonalization in iterative solution of the eigenvalue problem:
     a serial algorithm will be used


     Parallelization info
     --------------------
     sticks:   dense  smooth     PW     G-vecs:    dense   smooth      PW
     Min        3051    1746    432               270999   117096   14629
     Max        3053    1747    437               271001   117099   14630
     Sum       18313   10477   2611              1626001   702581   87777



     bravais-lattice index     =            4
     lattice parameter (alat)  =      23.2937  a.u.
     unit-cell volume          =    8879.8548 (a.u.)^3
     number of atoms/cell      =           52
     number of atomic types    =            3
     number of electrons       =       212.00
     number of Kohn-Sham states=          127
     kinetic-energy cutoff     =      70.0000  Ry
     charge density cutoff     =     490.0000  Ry
     convergence threshold     =      1.0E-06
     mixing beta               =       0.7000
     number of iterations used =            8  plain     mixing
     Exchange-correlation      = RVV10 ( 1  4 13  4 3 0)

     celldm(1)=  23.293684  celldm(2)=   0.000000  celldm(3)=   0.811261
     celldm(4)=   0.000000  celldm(5)=   0.000000  celldm(6)=   0.000000

     crystal axes: (cart. coord. in units of alat)
               a(1) = (   1.000000   0.000000   0.000000 )  
               a(2) = (  -0.500000   0.866025   0.000000 )  
               a(3) = (   0.000000   0.000000   0.811261 )  

     reciprocal axes: (cart. coord. in units 2 pi/alat)
               b(1) = (  1.000000  0.577350 -0.000000 )  
               b(2) = (  0.000000  1.154701  0.000000 )  
               b(3) = (  0.000000 -0.000000  1.232649 )  


     PseudoPot. # 1 for H  read from file:
     /home/cristian/Escritorio/Proyecto_Grafeno/pseudopotenciales/H.pbe-rrkjus.UPF
     MD5 check sum: 7cc9d459525c9a0585f487a71c3c9563
     Pseudo is Ultrasoft, Zval =  1.0
     Generated by new atomic code, or converted to UPF format
     Using radial grid of 1061 points,  2 beta functions with: 
                l(1) =   0
                l(2) =   0
     Q(r) pseudized with 0 coefficients 


     PseudoPot. # 2 for C  read from file:
     /home/cristian/Escritorio/Proyecto_Grafeno/pseudopotenciales/C.pbe-n-rrkjus_psl.1.0.0.UPF
     MD5 check sum: 1fdd950c42eb37d8afe3dd2f8d12311e
     Pseudo is Ultrasoft + core correction, Zval =  4.0
     Generated using "atomic" code by A. Dal Corso v.6.3MaX
     Using radial grid of 1073 points,  4 beta functions with: 
                l(1) =   0
                l(2) =   0
                l(3) =   1
                l(4) =   1
     Q(r) pseudized with 0 coefficients 


     PseudoPot. # 3 for Cr read from file:
     /home/cristian/Escritorio/Proyecto_Grafeno/pseudopotenciales/Cr.pbe-spn-rrkjus_psl.1.0.0.UPF
     MD5 check sum: 793d051e4f89dd1e3290b85340a92c0a
     Pseudo is Ultrasoft + core correction, Zval = 14.0
     Generated using "atomic" code by A. Dal Corso v.6.2.2
     Using radial grid of 1183 points,  6 beta functions with: 
                l(1) =   0
                l(2) =   0
                l(3) =   1
                l(4) =   1
                l(5) =   2
                l(6) =   2
     Q(r) pseudized with 0 coefficients 


     vdW kernel table read from file rVV10_kernel_table
     MD5 check sum: b8e2538accc0c0b3206b45ba4daaba6c

     atomic species   valence    mass     pseudopotential
        H              1.00     1.00794     H ( 1.00)
        C              4.00    12.01070     C ( 1.00)
        Cr            14.00    51.99610     Cr( 1.00)

      2 Sym. Ops. (no inversion) found


                                    s                        frac. trans.

      isym =  1     identity                                     

 cryst.   s( 1) = (     1          0          0      )
                  (     0          1          0      )
                  (     0          0          1      )

 cart.    s( 1) = (  1.0000000  0.0000000  0.0000000 )
                  (  0.0000000  1.0000000  0.0000000 )
                  (  0.0000000  0.0000000  1.0000000 )


      isym =  2     inv. 180 deg rotation - cryst. axis [1,1,0]  

 cryst.   s( 2) = (     0         -1          0      )
                  (    -1          0          0      )
                  (     0          0          1      )

 cart.    s( 2) = (  0.5000000 -0.8660254  0.0000000 )
                  ( -0.8660254 -0.5000000  0.0000000 )
                  (  0.0000000  0.0000000  1.0000000 )


     point group C_s (m)    
     there are  2 classes
     the character table:

       E     s    
A'     1.00  1.00
A''    1.00 -1.00

     the symmetry operations in each class and the name of the first element:

     E        1
          identity                                               
     s        2
          inv. 180 deg rotation - cryst. axis [1,1,0]            

   Cartesian axes

     site n.     atom                  positions (alat units)
         1           H   tau(   1) = (   0.2000000   0.4618802   0.2109279  )
         2           H   tau(   2) = (   0.2000000   0.4618802   0.2719406  )
         3           C   tau(   3) = (   0.0000000   0.0000000   0.0000000  )
         4           C   tau(   4) = (   0.0000000   0.1154701   0.0000000  )
         5           C   tau(   5) = (  -0.1000000   0.1732051   0.0000000  )
         6           C   tau(   6) = (  -0.1000000   0.2886751   0.0000000  )
         7           C   tau(   7) = (  -0.2000000   0.3464102   0.0000000  )
         8           C   tau(   8) = (  -0.2000000   0.4618802   0.0000000  )
         9           C   tau(   9) = (  -0.3000000   0.5196152   0.0000000  )
        10           C   tau(  10) = (  -0.3000000   0.6350853   0.0000000  )
        11           C   tau(  11) = (  -0.4000000   0.6928203   0.0000000  )
        12           C   tau(  12) = (  -0.4000000   0.8082904   0.0000000  )
        13           C   tau(  13) = (   0.2000000   0.0000000   0.0000000  )
        14           C   tau(  14) = (   0.2000000   0.1154701   0.0000000  )
        15           C   tau(  15) = (   0.1000000   0.1732051   0.0000000  )
        16           C   tau(  16) = (   0.1000000   0.2886751   0.0000000  )
        17           C   tau(  17) = (   0.0000000   0.3464102   0.0000000  )
        18           C   tau(  18) = (   0.0000000   0.4618802   0.0000000  )
        19           C   tau(  19) = (  -0.1000000   0.5196152   0.0000000  )
        20           C   tau(  20) = (  -0.1000000   0.6350853   0.0000000  )
        21           C   tau(  21) = (  -0.2000000   0.6928203   0.0000000  )
        22           C   tau(  22) = (  -0.2000000   0.8082904   0.0000000  )
        23           C   tau(  23) = (   0.4000000   0.0000000   0.0000000  )
        24           C   tau(  24) = (   0.4000000   0.1154701   0.0000000  )
        25           C   tau(  25) = (   0.3000000   0.1732051   0.0000000  )
        26           C   tau(  26) = (   0.3000000   0.2886751   0.0000000  )
        27           C   tau(  27) = (   0.2000000   0.3464102   0.0000000  )
        28           Cr  tau(  28) = (   0.2000000   0.4618802   0.0000000  )
        29           C   tau(  29) = (   0.1000000   0.5196152   0.0000000  )
        30           C   tau(  30) = (   0.1000000   0.6350853   0.0000000  )
        31           C   tau(  31) = (   0.0000000   0.6928203   0.0000000  )
        32           C   tau(  32) = (   0.0000000   0.8082904   0.0000000  )
        33           C   tau(  33) = (   0.6000000   0.0000000   0.0000000  )
        34           C   tau(  34) = (   0.6000000   0.1154701   0.0000000  )
        35           C   tau(  35) = (   0.5000000   0.1732051   0.0000000  )
        36           C   tau(  36) = (   0.5000000   0.2886751   0.0000000  )
        37           C   tau(  37) = (   0.4000000   0.3464102   0.0000000  )
        38           C   tau(  38) = (   0.4000000   0.4618802   0.0000000  )
        39           C   tau(  39) = (   0.3000000   0.5196152   0.0000000  )
        40           C   tau(  40) = (   0.3000000   0.6350853   0.0000000  )
        41           C   tau(  41) = (   0.2000000   0.6928203   0.0000000  )
        42           C   tau(  42) = (   0.2000000   0.8082904   0.0000000  )
        43           C   tau(  43) = (   0.8000000   0.0000000   0.0000000  )
        44           C   tau(  44) = (   0.8000000   0.1154701   0.0000000  )
        45           C   tau(  45) = (   0.7000000   0.1732051   0.0000000  )
        46           C   tau(  46) = (   0.7000000   0.2886751   0.0000000  )
        47           C   tau(  47) = (   0.6000000   0.3464102   0.0000000  )
        48           C   tau(  48) = (   0.6000000   0.4618802   0.0000000  )
        49           C   tau(  49) = (   0.5000000   0.5196152   0.0000000  )
        50           C   tau(  50) = (   0.5000000   0.6350853   0.0000000  )
        51           C   tau(  51) = (   0.4000000   0.6928203   0.0000000  )
        52           C   tau(  52) = (   0.4000000   0.8082904   0.0000000  )

   Crystallographic axes

     site n.     atom                  positions (cryst. coord.)
         1           H   tau(   1) = (  0.4666667  0.5333333  0.2600000  )
         2           H   tau(   2) = (  0.4666667  0.5333333  0.3352072  )
         3           C   tau(   3) = (  0.0000000  0.0000000  0.0000000  )
         4           C   tau(   4) = (  0.0666667  0.1333333  0.0000000  )
         5           C   tau(   5) = (  0.0000000  0.2000000  0.0000000  )
         6           C   tau(   6) = (  0.0666667  0.3333333  0.0000000  )
         7           C   tau(   7) = (  0.0000000  0.4000000  0.0000000  )
         8           C   tau(   8) = (  0.0666667  0.5333333  0.0000000  )
         9           C   tau(   9) = (  0.0000000  0.6000000  0.0000000  )
        10           C   tau(  10) = (  0.0666667  0.7333333  0.0000000  )
        11           C   tau(  11) = (  0.0000000  0.8000000  0.0000000  )
        12           C   tau(  12) = (  0.0666667  0.9333333  0.0000000  )
        13           C   tau(  13) = (  0.2000000  0.0000000  0.0000000  )
        14           C   tau(  14) = (  0.2666667  0.1333333  0.0000000  )
        15           C   tau(  15) = (  0.2000000  0.2000000  0.0000000  )
        16           C   tau(  16) = (  0.2666667  0.3333333  0.0000000  )
        17           C   tau(  17) = (  0.2000000  0.4000000  0.0000000  )
        18           C   tau(  18) = (  0.2666667  0.5333333  0.0000000  )
        19           C   tau(  19) = (  0.2000000  0.6000000  0.0000000  )
        20           C   tau(  20) = (  0.2666667  0.7333333  0.0000000  )
        21           C   tau(  21) = (  0.2000000  0.8000000  0.0000000  )
        22           C   tau(  22) = (  0.2666667  0.9333333  0.0000000  )
        23           C   tau(  23) = (  0.4000000  0.0000000  0.0000000  )
        24           C   tau(  24) = (  0.4666667  0.1333333  0.0000000  )
        25           C   tau(  25) = (  0.4000000  0.2000000  0.0000000  )
        26           C   tau(  26) = (  0.4666667  0.3333333  0.0000000  )
        27           C   tau(  27) = (  0.4000000  0.4000000  0.0000000  )
        28           Cr  tau(  28) = (  0.4666667  0.5333333  0.0000000  )
        29           C   tau(  29) = (  0.4000000  0.6000000  0.0000000  )
        30           C   tau(  30) = (  0.4666667  0.7333333  0.0000000  )
        31           C   tau(  31) = (  0.4000000  0.8000000  0.0000000  )
        32           C   tau(  32) = (  0.4666667  0.9333333  0.0000000  )
        33           C   tau(  33) = (  0.6000000  0.0000000  0.0000000  )
        34           C   tau(  34) = (  0.6666667  0.1333333  0.0000000  )
        35           C   tau(  35) = (  0.6000000  0.2000000  0.0000000  )
        36           C   tau(  36) = (  0.6666667  0.3333333  0.0000000  )
        37           C   tau(  37) = (  0.6000000  0.4000000  0.0000000  )
        38           C   tau(  38) = (  0.6666667  0.5333333  0.0000000  )
        39           C   tau(  39) = (  0.6000000  0.6000000  0.0000000  )
        40           C   tau(  40) = (  0.6666667  0.7333333  0.0000000  )
        41           C   tau(  41) = (  0.6000000  0.8000000  0.0000000  )
        42           C   tau(  42) = (  0.6666667  0.9333333  0.0000000  )
        43           C   tau(  43) = (  0.8000000  0.0000000  0.0000000  )
        44           C   tau(  44) = (  0.8666667  0.1333333  0.0000000  )
        45           C   tau(  45) = (  0.8000000  0.2000000  0.0000000  )
        46           C   tau(  46) = (  0.8666667  0.3333333  0.0000000  )
        47           C   tau(  47) = (  0.8000000  0.4000000  0.0000000  )
        48           C   tau(  48) = (  0.8666667  0.5333333  0.0000000  )
        49           C   tau(  49) = (  0.8000000  0.6000000  0.0000000  )
        50           C   tau(  50) = (  0.8666667  0.7333333  0.0000000  )
        51           C   tau(  51) = (  0.8000000  0.8000000  0.0000000  )
        52           C   tau(  52) = (  0.8666667  0.9333333  0.0000000  )

     number of k points=     1  Marzari-Vanderbilt smearing, width (Ry)=  0.0010
                       cart. coord. in units 2pi/alat
        k(    1) = (   0.0000000   0.0000000   0.0000000), wk =   2.0000000

                       cryst. coord.
        k(    1) = (   0.0000000   0.0000000   0.0000000), wk =   2.0000000

     Dense  grid:  1626001 G-vectors     FFT dimensions: ( 180, 180, 135)

     Smooth grid:   702581 G-vectors     FFT dimensions: ( 125, 125, 108)

     Dynamical RAM for                 wfc:      28.36 MB

     Dynamical RAM for     wfc (w. buffer):      28.36 MB

     Dynamical RAM for           str. fact:      12.41 MB

     Dynamical RAM for           local pot:       0.00 MB

     Dynamical RAM for          nlocal pot:      92.46 MB

     Dynamical RAM for                qrad:      19.73 MB

     Dynamical RAM for          rho,v,vnew:      29.46 MB

     Dynamical RAM for               rhoin:       9.82 MB

     Dynamical RAM for            rho*nmix:      66.16 MB

     Dynamical RAM for           G-vectors:      16.40 MB

     Dynamical RAM for          h,s,v(r/c):      11.81 MB

     Dynamical RAM for          <psi|beta>:       0.80 MB

     Dynamical RAM for                 psi:     113.46 MB

     Dynamical RAM for                hpsi:     113.46 MB

     Dynamical RAM for                spsi:     113.46 MB

     Dynamical RAM for      wfcinit/wfcrot:      93.90 MB

     Dynamical RAM for           addusdens:     971.75 MB

     Estimated static dynamical RAM per process >     319.78 MB

     Estimated max dynamical RAM per process >       1.26 GB

     Estimated total dynamical RAM >       7.57 GB

     Check: negative core charge=   -0.000002

     Initial potential from superposition of free atoms

     starting charge  211.80478, renormalised to  212.00000

     negative rho (up, down):  5.040E-04 0.000E+00


---------------------------------------------------------------------------------
Carrying out rVV10 run using the following parameters:
Nqs =      20    Nr_points =    1024   r_max =   100.000
b_value =  6.30000    beta =  0.00901
     q_mesh =  0.00010000  0.00030000  0.00058939  0.00100810
               0.00161396  0.00249058  0.00375900  0.00559430
               0.00824984  0.01209221  0.01765183  0.02569619
               0.03733578  0.05417739  0.07854596  0.11380545
               0.16482331  0.23864234  0.34545298  0.50000000

Gradients computed in Reciprocal space

---------------------------------------------------------------------------------


     Starting wfcs are  208 randomized atomic wfcs

     total cpu time spent up to now is       50.3 secs

     Self-consistent Calculation

     iteration #  1     ecut=    70.00 Ry     beta= 0.70
     Davidson diagonalization with overlap
     ethr =  1.00E-02,  avg # of iterations =  2.0

     negative rho (up, down):  8.694E-04 0.000E+00

     total cpu time spent up to now is      115.3 secs

     total energy              =    -783.54793271 Ry
     Harris-Foulkes estimate   =    -790.04582349 Ry
     estimated scf accuracy    <       9.34690941 Ry

     iteration #  2     ecut=    70.00 Ry     beta= 0.70
     Davidson diagonalization with overlap
     ethr =  4.41E-03,  avg # of iterations =  8.0

     negative rho (up, down):  1.494E-07 0.000E+00

     total cpu time spent up to now is      179.5 secs

     total energy              =    -776.29989809 Ry
     Harris-Foulkes estimate   =    -797.49964992 Ry
     estimated scf accuracy    <      80.37088626 Ry

     iteration #  3     ecut=    70.00 Ry     beta= 0.70
     Davidson diagonalization with overlap
     ethr =  4.41E-03,  avg # of iterations =  5.0

     negative rho (up, down):  1.360E-08 0.000E+00

     total cpu time spent up to now is      272.1 secs

     total energy              =    -785.67337690 Ry
     Harris-Foulkes estimate   =    -787.95068366 Ry
     estimated scf accuracy    <       9.90626473 Ry

     iteration #  4     ecut=    70.00 Ry     beta= 0.70
     Davidson diagonalization with overlap
     ethr =  4.41E-03,  avg # of iterations =  3.0

     negative rho (up, down):  1.911E-06 0.000E+00

     total cpu time spent up to now is      322.7 secs

     total energy              =    -786.76069641 Ry
     Harris-Foulkes estimate   =    -787.32681025 Ry
     estimated scf accuracy    <       1.70844355 Ry

     iteration #  5     ecut=    70.00 Ry     beta= 0.70
     Davidson diagonalization with overlap
     ethr =  8.06E-04,  avg # of iterations =  4.0

     negative rho (up, down):  2.660E-05 0.000E+00

     total cpu time spent up to now is      375.0 secs

     total energy              =    -786.93541844 Ry
     Harris-Foulkes estimate   =    -786.98584860 Ry
     estimated scf accuracy    <       0.17518520 Ry

     iteration #  6     ecut=    70.00 Ry     beta= 0.70
     Davidson diagonalization with overlap
     ethr =  8.26E-05,  avg # of iterations =  7.0

     negative rho (up, down):  8.236E-05 0.000E+00

     total cpu time spent up to now is      432.0 secs

     total energy              =    -786.93297790 Ry
     Harris-Foulkes estimate   =    -786.97513335 Ry
     estimated scf accuracy    <       0.16647378 Ry

     iteration #  7     ecut=    70.00 Ry     beta= 0.70
     Davidson diagonalization with overlap
     ethr =  7.85E-05,  avg # of iterations =  2.0

     negative rho (up, down):  4.270E-04 0.000E+00

     total cpu time spent up to now is      480.8 secs

     total energy              =    -786.93824248 Ry
     Harris-Foulkes estimate   =    -786.97443898 Ry
     estimated scf accuracy    <       0.16724201 Ry

     iteration #  8     ecut=    70.00 Ry     beta= 0.70
     Davidson diagonalization with overlap
     ethr =  7.85E-05,  avg # of iterations =  2.0

     negative rho (up, down):  3.046E-03 0.000E+00

     total cpu time spent up to now is      529.2 secs

     total energy              =    -786.94171279 Ry
     Harris-Foulkes estimate   =    -786.95231799 Ry
     estimated scf accuracy    <       0.04590828 Ry

     iteration #  9     ecut=    70.00 Ry     beta= 0.70
     Davidson diagonalization with overlap
     ethr =  2.17E-05,  avg # of iterations =  3.0

     negative rho (up, down):  2.575E-03 0.000E+00

     total cpu time spent up to now is      579.7 secs

     total energy              =    -786.94872969 Ry
     Harris-Foulkes estimate   =    -786.95301454 Ry
     estimated scf accuracy    <       0.06098297 Ry

     iteration # 10     ecut=    70.00 Ry     beta= 0.70
     Davidson diagonalization with overlap
     ethr =  2.17E-05,  avg # of iterations =  1.0

     negative rho (up, down):  3.177E-03 0.000E+00

     total cpu time spent up to now is      628.0 secs

     total energy              =    -786.94734438 Ry
     Harris-Foulkes estimate   =    -786.94945521 Ry
     estimated scf accuracy    <       0.02598414 Ry

     iteration # 11     ecut=    70.00 Ry     beta= 0.70
     Davidson diagonalization with overlap
     ethr =  1.23E-05,  avg # of iterations =  1.0

     negative rho (up, down):  2.559E-03 0.000E+00

     total cpu time spent up to now is      676.0 secs

     total energy              =    -786.94820457 Ry
     Harris-Foulkes estimate   =    -786.94948219 Ry
     estimated scf accuracy    <       0.02927857 Ry

     iteration # 12     ecut=    70.00 Ry     beta= 0.70
     Davidson diagonalization with overlap
     ethr =  1.23E-05,  avg # of iterations =  1.0

     negative rho (up, down):  2.693E-03 0.000E+00

     total cpu time spent up to now is      724.0 secs

     total energy              =    -786.94888211 Ry
     Harris-Foulkes estimate   =    -786.94893055 Ry
     estimated scf accuracy    <       0.00102283 Ry

     iteration # 13     ecut=    70.00 Ry     beta= 0.70
     Davidson diagonalization with overlap
     ethr =  4.82E-07,  avg # of iterations =  2.0

     negative rho (up, down):  2.692E-03 0.000E+00

     total cpu time spent up to now is      772.3 secs

     total energy              =    -786.94892286 Ry
     Harris-Foulkes estimate   =    -786.94892339 Ry
     estimated scf accuracy    <       0.00015208 Ry

     iteration # 14     ecut=    70.00 Ry     beta= 0.70
     Davidson diagonalization with overlap
     ethr =  7.17E-08,  avg # of iterations =  3.0

     negative rho (up, down):  2.752E-03 0.000E+00

     total cpu time spent up to now is      821.8 secs

     total energy              =    -786.94892648 Ry
     Harris-Foulkes estimate   =    -786.94894068 Ry
     estimated scf accuracy    <       0.00047544 Ry

     iteration # 15     ecut=    70.00 Ry     beta= 0.70
     Davidson diagonalization with overlap
     ethr =  7.17E-08,  avg # of iterations =  2.0

     negative rho (up, down):  2.767E-03 0.000E+00

     total cpu time spent up to now is      870.8 secs

     total energy              =    -786.94894282 Ry
     Harris-Foulkes estimate   =    -786.94893958 Ry
     estimated scf accuracy    <       0.00002252 Ry

     iteration # 16     ecut=    70.00 Ry     beta= 0.70
     Davidson diagonalization with overlap
     ethr =  1.06E-08,  avg # of iterations =  3.0

     negative rho (up, down):  2.765E-03 0.000E+00

     total cpu time spent up to now is      924.4 secs

     total energy              =    -786.94895138 Ry
     Harris-Foulkes estimate   =    -786.94895555 Ry
     estimated scf accuracy    <       0.00028788 Ry

     iteration # 17     ecut=    70.00 Ry     beta= 0.70
     Davidson diagonalization with overlap
     ethr =  1.06E-08,  avg # of iterations =  2.0

     negative rho (up, down):  2.753E-03 0.000E+00

     total cpu time spent up to now is      975.2 secs

     total energy              =    -786.94895921 Ry
     Harris-Foulkes estimate   =    -786.94895802 Ry
     estimated scf accuracy    <       0.00000390 Ry

     iteration # 18     ecut=    70.00 Ry     beta= 0.70
     Davidson diagonalization with overlap
     ethr =  1.84E-09,  avg # of iterations =  4.0

     negative rho (up, down):  2.756E-03 0.000E+00

     total cpu time spent up to now is     1037.0 secs

     total energy              =    -786.94897170 Ry
     Harris-Foulkes estimate   =    -786.94897401 Ry
     estimated scf accuracy    <       0.00007529 Ry

     iteration # 19     ecut=    70.00 Ry     beta= 0.70
     Davidson diagonalization with overlap
     ethr =  1.84E-09,  avg # of iterations =  3.0

     negative rho (up, down):  2.756E-03 0.000E+00

     total cpu time spent up to now is     1093.8 secs

     total energy              =    -786.94897224 Ry
     Harris-Foulkes estimate   =    -786.94897610 Ry
     estimated scf accuracy    <       0.00000283 Ry

     iteration # 20     ecut=    70.00 Ry     beta= 0.70
     Davidson diagonalization with overlap
     ethr =  1.34E-09,  avg # of iterations =  4.0

     negative rho (up, down):  2.756E-03 0.000E+00

     total cpu time spent up to now is     1152.5 secs

     total energy              =    -786.94897868 Ry
     Harris-Foulkes estimate   =    -786.94898171 Ry
     estimated scf accuracy    <       0.00000199 Ry

     iteration # 21     ecut=    70.00 Ry     beta= 0.70
     Davidson diagonalization with overlap
     ethr =  9.37E-10,  avg # of iterations =  4.0

     negative rho (up, down):  2.759E-03 0.000E+00

     total cpu time spent up to now is     1209.5 secs

     End of self-consistent calculation

          k = 0.0000 0.0000 0.0000 ( 87777 PWs)   bands (ev):

   -71.8197 -44.1160 -44.1160 -43.0006 -19.6208 -18.7818 -18.7817 -18.6896
   -18.6896 -18.6892 -18.3161 -16.9346 -16.9345 -16.9297 -16.8231 -16.8231
   -16.5226 -16.0809 -16.0809 -15.9816 -15.8995 -15.8995 -15.1860 -13.9428
   -13.9428 -13.9006 -13.8514 -13.8513 -13.1878 -12.9255 -12.9255 -12.8963
   -12.5707 -12.5707 -12.1330 -11.6853 -11.6853 -11.5211 -11.2144 -11.2144
   -10.2494  -9.4643  -9.4643  -9.3054  -9.1727  -9.1727  -9.0808  -9.0493
    -9.0493  -9.0382  -8.5221  -8.5221  -7.9777  -7.9777  -7.8808  -7.8045
    -7.6903  -7.4125  -7.2704  -7.2704  -7.0173  -7.0173  -6.9598  -6.6880
    -6.6880  -6.6758  -6.6757  -6.6483  -6.5812  -6.4185  -6.4185  -6.3907
    -6.3858  -6.3858  -6.3375  -6.3170  -5.3794  -5.3793  -5.3094  -5.3093
    -5.0447  -5.0447  -4.8431  -4.7493  -4.5951  -4.5719  -4.5719  -4.2475
    -4.2326  -4.0231  -4.0231  -3.7055  -3.7055  -3.6245  -3.5253  -3.5253
    -3.4552  -3.4552  -2.9787  -2.4187  -2.4187  -1.7057  -1.6624  -1.6624
    -0.6981  -0.5228  -0.5228  -0.4420   1.0791   1.0996   1.0997   1.7818
     1.8841   1.8841   2.4015   2.9384   2.9384   3.0002   3.3659   3.3659
     3.4397   3.6607   3.6607   3.7099   3.8139   3.8139   3.8682

     occupation numbers 
     1.0000   1.0000   1.0000   1.0000   1.0000   1.0000   1.0000   1.0000
     1.0000   1.0000   1.0000   1.0000   1.0000   1.0000   1.0000   1.0000
     1.0000   1.0000   1.0000   1.0000   1.0000   1.0000   1.0000   1.0000
     1.0000   1.0000   1.0000   1.0000   1.0000   1.0000   1.0000   1.0000
     1.0000   1.0000   1.0000   1.0000   1.0000   1.0000   1.0000   1.0000
     1.0000   1.0000   1.0000   1.0000   1.0000   1.0000   1.0000   1.0000
     1.0000   1.0000   1.0000   1.0000   1.0000   1.0000   1.0000   1.0000
     1.0000   1.0000   1.0000   1.0000   1.0000   1.0000   1.0000   1.0000
     1.0000   1.0000   1.0000   1.0000   1.0000   1.0000   1.0000   1.0000
     1.0000   1.0000   1.0000   1.0000   1.0000   1.0000   1.0000   1.0000
     1.0000   1.0000   1.0000   1.0000   1.0000   1.0000   1.0000   1.0000
     1.0000   1.0000   1.0000   1.0000   1.0000   1.0000   1.0000   1.0000
     1.0000   1.0000   1.0000   1.0000   1.0000   1.0000   1.0000   1.0000
     1.0000   0.5020   0.4980   0.0000   0.0000   0.0000   0.0000   0.0000
     0.0000   0.0000   0.0000   0.0000   0.0000   0.0000   0.0000   0.0000
     0.0000   0.0000   0.0000   0.0000   0.0000   0.0000   0.0000

     the Fermi energy is    -0.5209 ev

!    total energy              =    -786.94898331 Ry
     Harris-Foulkes estimate   =    -786.94898419 Ry
     estimated scf accuracy    <       0.00000090 Ry

     The total energy is the sum of the following terms:

     one-electron contribution =   -2650.42970162 Ry
     hartree contribution      =    1370.95609680 Ry
     xc contribution           =    -254.34144446 Ry
     ewald contribution        =     746.86672232 Ry
     smearing contrib. (-TS)   =      -0.00065636 Ry

     convergence has been achieved in  21 iterations

     Writing output data file gr-12.save/

     init_run     :     47.90s CPU     49.17s WALL (       1 calls)
     electrons    :   1125.70s CPU   1159.26s WALL (       1 calls)

     Called by init_run:
     wfcinit      :     20.71s CPU     20.87s WALL (       1 calls)
     wfcinit:atom :      0.03s CPU      0.05s WALL (       1 calls)
     wfcinit:wfcr :     20.52s CPU     20.62s WALL (       1 calls)
     potinit      :     12.20s CPU     12.60s WALL (       1 calls)
     hinit0       :     10.47s CPU     10.51s WALL (       1 calls)

     Called by electrons:
     c_bands      :    699.44s CPU    703.27s WALL (      21 calls)
     sum_band     :    210.06s CPU    221.35s WALL (      21 calls)
     v_of_rho     :    133.09s CPU    141.03s WALL (      22 calls)
     v_h          :      1.48s CPU      1.55s WALL (      22 calls)
     v_xc         :    131.61s CPU    139.48s WALL (      22 calls)
     newd         :     86.50s CPU     97.84s WALL (      22 calls)
     mix_rho      :      4.05s CPU      4.14s WALL (      21 calls)

     Called by c_bands:
     init_us_2    :      1.85s CPU      1.90s WALL (      43 calls)
     cegterg      :    694.52s CPU    698.32s WALL (      21 calls)

     Called by sum_band:
     sum_band:bec :      0.02s CPU      0.02s WALL (      21 calls)
     addusdens    :    129.33s CPU    140.06s WALL (      21 calls)

     Called by *egterg:
     h_psi        :    362.67s CPU    365.37s WALL (      88 calls)
     s_psi        :    122.78s CPU    122.84s WALL (      88 calls)
     g_psi        :      0.41s CPU      0.41s WALL (      66 calls)
     cdiaghg      :      6.36s CPU      6.36s WALL (      87 calls)
     cegterg:over :     86.93s CPU     86.98s WALL (      66 calls)
     cegterg:upda :     56.08s CPU     56.38s WALL (      66 calls)
     cegterg:last :     41.58s CPU     41.60s WALL (      22 calls)

     Called by h_psi:
     h_psi:pot    :    362.21s CPU    364.48s WALL (      88 calls)
     h_psi:calbec :    122.19s CPU    122.26s WALL (      88 calls)
     vloc_psi     :    117.70s CPU    119.87s WALL (      88 calls)
     add_vuspsi   :    122.32s CPU    122.35s WALL (      88 calls)

     General routines
     calbec       :    171.70s CPU    171.79s WALL (     109 calls)
     fft          :     72.73s CPU     75.56s WALL (    1384 calls)
     ffts         :      0.72s CPU      0.76s WALL (      43 calls)
     fftw         :    123.92s CPU    126.21s WALL (   15873 calls)
     interpolate  :      1.80s CPU      1.86s WALL (      22 calls)

     Parallel routines
     fft_scatt_xy :     33.93s CPU     34.36s WALL (   17300 calls)
     fft_scatt_yz :     67.28s CPU     70.97s WALL (   17300 calls)

     PWSCF        :  19m34.79s CPU  20m 9.94s WALL


   This run was terminated on:   3: 8:50  20Jul2022            

=------------------------------------------------------------------------------=
   JOB DONE.
=------------------------------------------------------------------------------=
