
     Program PWSCF v.6.4.1 starts on 20Jul2022 at  3: 8:50 

     This program is part of the open-source Quantum ESPRESSO suite
     for quantum simulation of materials; please cite
         "P. Giannozzi et al., J. Phys.:Condens. Matter 21 395502 (2009);
         "P. Giannozzi et al., J. Phys.:Condens. Matter 29 465901 (2017);
          URL http://www.quantum-espresso.org", 
     in publications or presentations arising from this work. More details at
     http://www.quantum-espresso.org/quote

     Parallel version (MPI), running on     6 processors

     MPI processes distributed on     1 nodes
     R & G space division:  proc/nbgrp/npool/nimage =       6
     Reading input from distance-2.4.in

     Current dimensions of program PWSCF are:
     Max number of different atomic species (ntypx) = 10
     Max number of k-points (npk) =  40000
     Max angular momentum in pseudopotentials (lmaxx) =  3

     IMPORTANT: XC functional enforced from input :
     Exchange-correlation      = RVV10 ( 1  4 13  4 3 0)
     Any further DFT definition will be discarded
     Please, verify this is what you really want

               file H.pbe-rrkjus.UPF: wavefunction(s)  1S renormalized
               file Cr.pbe-spn-rrkjus_psl.1.0.0.UPF: wavefunction(s)  3P renormalized

     Subspace diagonalization in iterative solution of the eigenvalue problem:
     a serial algorithm will be used


     Parallelization info
     --------------------
     sticks:   dense  smooth     PW     G-vecs:    dense   smooth      PW
     Min        3051    1746    432               270999   117096   14629
     Max        3053    1747    437               271001   117099   14630
     Sum       18313   10477   2611              1626001   702581   87777



     bravais-lattice index     =            4
     lattice parameter (alat)  =      23.2937  a.u.
     unit-cell volume          =    8879.8548 (a.u.)^3
     number of atoms/cell      =           52
     number of atomic types    =            3
     number of electrons       =       212.00
     number of Kohn-Sham states=          127
     kinetic-energy cutoff     =      70.0000  Ry
     charge density cutoff     =     490.0000  Ry
     convergence threshold     =      1.0E-06
     mixing beta               =       0.7000
     number of iterations used =            8  plain     mixing
     Exchange-correlation      = RVV10 ( 1  4 13  4 3 0)

     celldm(1)=  23.293684  celldm(2)=   0.000000  celldm(3)=   0.811261
     celldm(4)=   0.000000  celldm(5)=   0.000000  celldm(6)=   0.000000

     crystal axes: (cart. coord. in units of alat)
               a(1) = (   1.000000   0.000000   0.000000 )  
               a(2) = (  -0.500000   0.866025   0.000000 )  
               a(3) = (   0.000000   0.000000   0.811261 )  

     reciprocal axes: (cart. coord. in units 2 pi/alat)
               b(1) = (  1.000000  0.577350 -0.000000 )  
               b(2) = (  0.000000  1.154701  0.000000 )  
               b(3) = (  0.000000 -0.000000  1.232649 )  


     PseudoPot. # 1 for H  read from file:
     /home/cristian/Escritorio/Proyecto_Grafeno/pseudopotenciales/H.pbe-rrkjus.UPF
     MD5 check sum: 7cc9d459525c9a0585f487a71c3c9563
     Pseudo is Ultrasoft, Zval =  1.0
     Generated by new atomic code, or converted to UPF format
     Using radial grid of 1061 points,  2 beta functions with: 
                l(1) =   0
                l(2) =   0
     Q(r) pseudized with 0 coefficients 


     PseudoPot. # 2 for C  read from file:
     /home/cristian/Escritorio/Proyecto_Grafeno/pseudopotenciales/C.pbe-n-rrkjus_psl.1.0.0.UPF
     MD5 check sum: 1fdd950c42eb37d8afe3dd2f8d12311e
     Pseudo is Ultrasoft + core correction, Zval =  4.0
     Generated using "atomic" code by A. Dal Corso v.6.3MaX
     Using radial grid of 1073 points,  4 beta functions with: 
                l(1) =   0
                l(2) =   0
                l(3) =   1
                l(4) =   1
     Q(r) pseudized with 0 coefficients 


     PseudoPot. # 3 for Cr read from file:
     /home/cristian/Escritorio/Proyecto_Grafeno/pseudopotenciales/Cr.pbe-spn-rrkjus_psl.1.0.0.UPF
     MD5 check sum: 793d051e4f89dd1e3290b85340a92c0a
     Pseudo is Ultrasoft + core correction, Zval = 14.0
     Generated using "atomic" code by A. Dal Corso v.6.2.2
     Using radial grid of 1183 points,  6 beta functions with: 
                l(1) =   0
                l(2) =   0
                l(3) =   1
                l(4) =   1
                l(5) =   2
                l(6) =   2
     Q(r) pseudized with 0 coefficients 


     vdW kernel table read from file rVV10_kernel_table
     MD5 check sum: b8e2538accc0c0b3206b45ba4daaba6c

     atomic species   valence    mass     pseudopotential
        H              1.00     1.00794     H ( 1.00)
        C              4.00    12.01070     C ( 1.00)
        Cr            14.00    51.99610     Cr( 1.00)

      2 Sym. Ops. (no inversion) found


                                    s                        frac. trans.

      isym =  1     identity                                     

 cryst.   s( 1) = (     1          0          0      )
                  (     0          1          0      )
                  (     0          0          1      )

 cart.    s( 1) = (  1.0000000  0.0000000  0.0000000 )
                  (  0.0000000  1.0000000  0.0000000 )
                  (  0.0000000  0.0000000  1.0000000 )


      isym =  2     inv. 180 deg rotation - cryst. axis [1,1,0]  

 cryst.   s( 2) = (     0         -1          0      )
                  (    -1          0          0      )
                  (     0          0          1      )

 cart.    s( 2) = (  0.5000000 -0.8660254  0.0000000 )
                  ( -0.8660254 -0.5000000  0.0000000 )
                  (  0.0000000  0.0000000  1.0000000 )


     point group C_s (m)    
     there are  2 classes
     the character table:

       E     s    
A'     1.00  1.00
A''    1.00 -1.00

     the symmetry operations in each class and the name of the first element:

     E        1
          identity                                               
     s        2
          inv. 180 deg rotation - cryst. axis [1,1,0]            

   Cartesian axes

     site n.     atom                  positions (alat units)
         1           H   tau(   1) = (   0.2000000   0.4618802   0.1947027  )
         2           H   tau(   2) = (   0.2000000   0.4618802   0.2557154  )
         3           C   tau(   3) = (   0.0000000   0.0000000   0.0000000  )
         4           C   tau(   4) = (   0.0000000   0.1154701   0.0000000  )
         5           C   tau(   5) = (  -0.1000000   0.1732051   0.0000000  )
         6           C   tau(   6) = (  -0.1000000   0.2886751   0.0000000  )
         7           C   tau(   7) = (  -0.2000000   0.3464102   0.0000000  )
         8           C   tau(   8) = (  -0.2000000   0.4618802   0.0000000  )
         9           C   tau(   9) = (  -0.3000000   0.5196152   0.0000000  )
        10           C   tau(  10) = (  -0.3000000   0.6350853   0.0000000  )
        11           C   tau(  11) = (  -0.4000000   0.6928203   0.0000000  )
        12           C   tau(  12) = (  -0.4000000   0.8082904   0.0000000  )
        13           C   tau(  13) = (   0.2000000   0.0000000   0.0000000  )
        14           C   tau(  14) = (   0.2000000   0.1154701   0.0000000  )
        15           C   tau(  15) = (   0.1000000   0.1732051   0.0000000  )
        16           C   tau(  16) = (   0.1000000   0.2886751   0.0000000  )
        17           C   tau(  17) = (   0.0000000   0.3464102   0.0000000  )
        18           C   tau(  18) = (   0.0000000   0.4618802   0.0000000  )
        19           C   tau(  19) = (  -0.1000000   0.5196152   0.0000000  )
        20           C   tau(  20) = (  -0.1000000   0.6350853   0.0000000  )
        21           C   tau(  21) = (  -0.2000000   0.6928203   0.0000000  )
        22           C   tau(  22) = (  -0.2000000   0.8082904   0.0000000  )
        23           C   tau(  23) = (   0.4000000   0.0000000   0.0000000  )
        24           C   tau(  24) = (   0.4000000   0.1154701   0.0000000  )
        25           C   tau(  25) = (   0.3000000   0.1732051   0.0000000  )
        26           C   tau(  26) = (   0.3000000   0.2886751   0.0000000  )
        27           C   tau(  27) = (   0.2000000   0.3464102   0.0000000  )
        28           Cr  tau(  28) = (   0.2000000   0.4618802   0.0000000  )
        29           C   tau(  29) = (   0.1000000   0.5196152   0.0000000  )
        30           C   tau(  30) = (   0.1000000   0.6350853   0.0000000  )
        31           C   tau(  31) = (   0.0000000   0.6928203   0.0000000  )
        32           C   tau(  32) = (   0.0000000   0.8082904   0.0000000  )
        33           C   tau(  33) = (   0.6000000   0.0000000   0.0000000  )
        34           C   tau(  34) = (   0.6000000   0.1154701   0.0000000  )
        35           C   tau(  35) = (   0.5000000   0.1732051   0.0000000  )
        36           C   tau(  36) = (   0.5000000   0.2886751   0.0000000  )
        37           C   tau(  37) = (   0.4000000   0.3464102   0.0000000  )
        38           C   tau(  38) = (   0.4000000   0.4618802   0.0000000  )
        39           C   tau(  39) = (   0.3000000   0.5196152   0.0000000  )
        40           C   tau(  40) = (   0.3000000   0.6350853   0.0000000  )
        41           C   tau(  41) = (   0.2000000   0.6928203   0.0000000  )
        42           C   tau(  42) = (   0.2000000   0.8082904   0.0000000  )
        43           C   tau(  43) = (   0.8000000   0.0000000   0.0000000  )
        44           C   tau(  44) = (   0.8000000   0.1154701   0.0000000  )
        45           C   tau(  45) = (   0.7000000   0.1732051   0.0000000  )
        46           C   tau(  46) = (   0.7000000   0.2886751   0.0000000  )
        47           C   tau(  47) = (   0.6000000   0.3464102   0.0000000  )
        48           C   tau(  48) = (   0.6000000   0.4618802   0.0000000  )
        49           C   tau(  49) = (   0.5000000   0.5196152   0.0000000  )
        50           C   tau(  50) = (   0.5000000   0.6350853   0.0000000  )
        51           C   tau(  51) = (   0.4000000   0.6928203   0.0000000  )
        52           C   tau(  52) = (   0.4000000   0.8082904   0.0000000  )

   Crystallographic axes

     site n.     atom                  positions (cryst. coord.)
         1           H   tau(   1) = (  0.4666667  0.5333333  0.2400000  )
         2           H   tau(   2) = (  0.4666667  0.5333333  0.3152072  )
         3           C   tau(   3) = (  0.0000000  0.0000000  0.0000000  )
         4           C   tau(   4) = (  0.0666667  0.1333333  0.0000000  )
         5           C   tau(   5) = (  0.0000000  0.2000000  0.0000000  )
         6           C   tau(   6) = (  0.0666667  0.3333333  0.0000000  )
         7           C   tau(   7) = (  0.0000000  0.4000000  0.0000000  )
         8           C   tau(   8) = (  0.0666667  0.5333333  0.0000000  )
         9           C   tau(   9) = (  0.0000000  0.6000000  0.0000000  )
        10           C   tau(  10) = (  0.0666667  0.7333333  0.0000000  )
        11           C   tau(  11) = (  0.0000000  0.8000000  0.0000000  )
        12           C   tau(  12) = (  0.0666667  0.9333333  0.0000000  )
        13           C   tau(  13) = (  0.2000000  0.0000000  0.0000000  )
        14           C   tau(  14) = (  0.2666667  0.1333333  0.0000000  )
        15           C   tau(  15) = (  0.2000000  0.2000000  0.0000000  )
        16           C   tau(  16) = (  0.2666667  0.3333333  0.0000000  )
        17           C   tau(  17) = (  0.2000000  0.4000000  0.0000000  )
        18           C   tau(  18) = (  0.2666667  0.5333333  0.0000000  )
        19           C   tau(  19) = (  0.2000000  0.6000000  0.0000000  )
        20           C   tau(  20) = (  0.2666667  0.7333333  0.0000000  )
        21           C   tau(  21) = (  0.2000000  0.8000000  0.0000000  )
        22           C   tau(  22) = (  0.2666667  0.9333333  0.0000000  )
        23           C   tau(  23) = (  0.4000000  0.0000000  0.0000000  )
        24           C   tau(  24) = (  0.4666667  0.1333333  0.0000000  )
        25           C   tau(  25) = (  0.4000000  0.2000000  0.0000000  )
        26           C   tau(  26) = (  0.4666667  0.3333333  0.0000000  )
        27           C   tau(  27) = (  0.4000000  0.4000000  0.0000000  )
        28           Cr  tau(  28) = (  0.4666667  0.5333333  0.0000000  )
        29           C   tau(  29) = (  0.4000000  0.6000000  0.0000000  )
        30           C   tau(  30) = (  0.4666667  0.7333333  0.0000000  )
        31           C   tau(  31) = (  0.4000000  0.8000000  0.0000000  )
        32           C   tau(  32) = (  0.4666667  0.9333333  0.0000000  )
        33           C   tau(  33) = (  0.6000000  0.0000000  0.0000000  )
        34           C   tau(  34) = (  0.6666667  0.1333333  0.0000000  )
        35           C   tau(  35) = (  0.6000000  0.2000000  0.0000000  )
        36           C   tau(  36) = (  0.6666667  0.3333333  0.0000000  )
        37           C   tau(  37) = (  0.6000000  0.4000000  0.0000000  )
        38           C   tau(  38) = (  0.6666667  0.5333333  0.0000000  )
        39           C   tau(  39) = (  0.6000000  0.6000000  0.0000000  )
        40           C   tau(  40) = (  0.6666667  0.7333333  0.0000000  )
        41           C   tau(  41) = (  0.6000000  0.8000000  0.0000000  )
        42           C   tau(  42) = (  0.6666667  0.9333333  0.0000000  )
        43           C   tau(  43) = (  0.8000000  0.0000000  0.0000000  )
        44           C   tau(  44) = (  0.8666667  0.1333333  0.0000000  )
        45           C   tau(  45) = (  0.8000000  0.2000000  0.0000000  )
        46           C   tau(  46) = (  0.8666667  0.3333333  0.0000000  )
        47           C   tau(  47) = (  0.8000000  0.4000000  0.0000000  )
        48           C   tau(  48) = (  0.8666667  0.5333333  0.0000000  )
        49           C   tau(  49) = (  0.8000000  0.6000000  0.0000000  )
        50           C   tau(  50) = (  0.8666667  0.7333333  0.0000000  )
        51           C   tau(  51) = (  0.8000000  0.8000000  0.0000000  )
        52           C   tau(  52) = (  0.8666667  0.9333333  0.0000000  )

     number of k points=     1  Marzari-Vanderbilt smearing, width (Ry)=  0.0010
                       cart. coord. in units 2pi/alat
        k(    1) = (   0.0000000   0.0000000   0.0000000), wk =   2.0000000

                       cryst. coord.
        k(    1) = (   0.0000000   0.0000000   0.0000000), wk =   2.0000000

     Dense  grid:  1626001 G-vectors     FFT dimensions: ( 180, 180, 135)

     Smooth grid:   702581 G-vectors     FFT dimensions: ( 125, 125, 108)

     Dynamical RAM for                 wfc:      28.36 MB

     Dynamical RAM for     wfc (w. buffer):      28.36 MB

     Dynamical RAM for           str. fact:      12.41 MB

     Dynamical RAM for           local pot:       0.00 MB

     Dynamical RAM for          nlocal pot:      92.46 MB

     Dynamical RAM for                qrad:      19.73 MB

     Dynamical RAM for          rho,v,vnew:      29.46 MB

     Dynamical RAM for               rhoin:       9.82 MB

     Dynamical RAM for            rho*nmix:      66.16 MB

     Dynamical RAM for           G-vectors:      16.40 MB

     Dynamical RAM for          h,s,v(r/c):      11.81 MB

     Dynamical RAM for          <psi|beta>:       0.80 MB

     Dynamical RAM for                 psi:     113.46 MB

     Dynamical RAM for                hpsi:     113.46 MB

     Dynamical RAM for                spsi:     113.46 MB

     Dynamical RAM for      wfcinit/wfcrot:      93.90 MB

     Dynamical RAM for           addusdens:     971.75 MB

     Estimated static dynamical RAM per process >     319.78 MB

     Estimated max dynamical RAM per process >       1.26 GB

     Estimated total dynamical RAM >       7.57 GB

     Check: negative core charge=   -0.000002

     Initial potential from superposition of free atoms

     starting charge  211.80478, renormalised to  212.00000

     negative rho (up, down):  5.285E-04 0.000E+00


---------------------------------------------------------------------------------
Carrying out rVV10 run using the following parameters:
Nqs =      20    Nr_points =    1024   r_max =   100.000
b_value =  6.30000    beta =  0.00901
     q_mesh =  0.00010000  0.00030000  0.00058939  0.00100810
               0.00161396  0.00249058  0.00375900  0.00559430
               0.00824984  0.01209221  0.01765183  0.02569619
               0.03733578  0.05417739  0.07854596  0.11380545
               0.16482331  0.23864234  0.34545298  0.50000000

Gradients computed in Reciprocal space

---------------------------------------------------------------------------------


     Starting wfcs are  208 randomized atomic wfcs

     total cpu time spent up to now is       50.5 secs

     Self-consistent Calculation

     iteration #  1     ecut=    70.00 Ry     beta= 0.70
     Davidson diagonalization with overlap
     ethr =  1.00E-02,  avg # of iterations =  2.0

     negative rho (up, down):  9.057E-04 0.000E+00

     total cpu time spent up to now is      115.6 secs

     total energy              =    -783.27496394 Ry
     Harris-Foulkes estimate   =    -790.10077895 Ry
     estimated scf accuracy    <       9.71931518 Ry

     iteration #  2     ecut=    70.00 Ry     beta= 0.70
     Davidson diagonalization with overlap
     ethr =  4.58E-03,  avg # of iterations =  8.0

     negative rho (up, down):  6.503E-07 0.000E+00

     total cpu time spent up to now is      180.0 secs

     total energy              =    -776.09259041 Ry
     Harris-Foulkes estimate   =    -798.41250648 Ry
     estimated scf accuracy    <      83.94872159 Ry

     iteration #  3     ecut=    70.00 Ry     beta= 0.70
     Davidson diagonalization with overlap
     ethr =  4.58E-03,  avg # of iterations =  5.0

     negative rho (up, down):  1.626E-07 0.000E+00

     total cpu time spent up to now is      272.5 secs

     total energy              =    -785.70054812 Ry
     Harris-Foulkes estimate   =    -787.90175556 Ry
     estimated scf accuracy    <       9.25466761 Ry

     iteration #  4     ecut=    70.00 Ry     beta= 0.70
     Davidson diagonalization with overlap
     ethr =  4.37E-03,  avg # of iterations =  3.0

     negative rho (up, down):  6.680E-06 0.000E+00

     total cpu time spent up to now is      322.8 secs

     total energy              =    -786.76155338 Ry
     Harris-Foulkes estimate   =    -787.29834537 Ry
     estimated scf accuracy    <       1.54328083 Ry

     iteration #  5     ecut=    70.00 Ry     beta= 0.70
     Davidson diagonalization with overlap
     ethr =  7.28E-04,  avg # of iterations =  4.0

     negative rho (up, down):  5.725E-05 0.000E+00

     total cpu time spent up to now is      376.2 secs

     total energy              =    -786.93806885 Ry
     Harris-Foulkes estimate   =    -786.98355492 Ry
     estimated scf accuracy    <       0.15554484 Ry

     iteration #  6     ecut=    70.00 Ry     beta= 0.70
     Davidson diagonalization with overlap
     ethr =  7.34E-05,  avg # of iterations =  9.0

     negative rho (up, down):  1.535E-04 0.000E+00

     total cpu time spent up to now is      433.5 secs

     total energy              =    -786.92961919 Ry
     Harris-Foulkes estimate   =    -786.96545961 Ry
     estimated scf accuracy    <       0.11771491 Ry

     iteration #  7     ecut=    70.00 Ry     beta= 0.70
     Davidson diagonalization with overlap
     ethr =  5.55E-05,  avg # of iterations =  3.0

     negative rho (up, down):  5.036E-04 0.000E+00

     total cpu time spent up to now is      484.4 secs

     total energy              =    -786.94114256 Ry
     Harris-Foulkes estimate   =    -786.98622201 Ry
     estimated scf accuracy    <       0.21917836 Ry

     iteration #  8     ecut=    70.00 Ry     beta= 0.70
     Davidson diagonalization with overlap
     ethr =  5.55E-05,  avg # of iterations =  3.0

     negative rho (up, down):  2.087E-03 0.000E+00

     total cpu time spent up to now is      533.9 secs

     total energy              =    -786.94341811 Ry
     Harris-Foulkes estimate   =    -786.95457047 Ry
     estimated scf accuracy    <       0.06672329 Ry

     iteration #  9     ecut=    70.00 Ry     beta= 0.70
     Davidson diagonalization with overlap
     ethr =  3.15E-05,  avg # of iterations =  3.0

     negative rho (up, down):  3.151E-03 0.000E+00

     total cpu time spent up to now is      583.0 secs

     total energy              =    -786.94618624 Ry
     Harris-Foulkes estimate   =    -786.95209613 Ry
     estimated scf accuracy    <       0.04492583 Ry

     iteration # 10     ecut=    70.00 Ry     beta= 0.70
     Davidson diagonalization with overlap
     ethr =  2.12E-05,  avg # of iterations =  1.0

     negative rho (up, down):  2.392E-03 0.000E+00

     total cpu time spent up to now is      631.0 secs

     total energy              =    -786.94833852 Ry
     Harris-Foulkes estimate   =    -786.95016280 Ry
     estimated scf accuracy    <       0.02385600 Ry

     iteration # 11     ecut=    70.00 Ry     beta= 0.70
     Davidson diagonalization with overlap
     ethr =  1.13E-05,  avg # of iterations =  1.0

     negative rho (up, down):  2.612E-03 0.000E+00

     total cpu time spent up to now is      679.1 secs

     total energy              =    -786.94911270 Ry
     Harris-Foulkes estimate   =    -786.95007273 Ry
     estimated scf accuracy    <       0.01979047 Ry

     iteration # 12     ecut=    70.00 Ry     beta= 0.70
     Davidson diagonalization with overlap
     ethr =  9.34E-06,  avg # of iterations =  1.0

     negative rho (up, down):  2.723E-03 0.000E+00

     total cpu time spent up to now is      727.1 secs

     total energy              =    -786.94966591 Ry
     Harris-Foulkes estimate   =    -786.94975412 Ry
     estimated scf accuracy    <       0.00234198 Ry

     iteration # 13     ecut=    70.00 Ry     beta= 0.70
     Davidson diagonalization with overlap
     ethr =  1.10E-06,  avg # of iterations =  4.0

     negative rho (up, down):  2.733E-03 0.000E+00

     total cpu time spent up to now is      776.8 secs

     total energy              =    -786.94971582 Ry
     Harris-Foulkes estimate   =    -786.94972104 Ry
     estimated scf accuracy    <       0.00039197 Ry

     iteration # 14     ecut=    70.00 Ry     beta= 0.70
     Davidson diagonalization with overlap
     ethr =  1.85E-07,  avg # of iterations =  2.0

     negative rho (up, down):  2.791E-03 0.000E+00

     total cpu time spent up to now is      825.4 secs

     total energy              =    -786.94971406 Ry
     Harris-Foulkes estimate   =    -786.94972913 Ry
     estimated scf accuracy    <       0.00035074 Ry

     iteration # 15     ecut=    70.00 Ry     beta= 0.70
     Davidson diagonalization with overlap
     ethr =  1.65E-07,  avg # of iterations =  2.0

     negative rho (up, down):  2.800E-03 0.000E+00

     total cpu time spent up to now is      873.9 secs

     total energy              =    -786.94973939 Ry
     Harris-Foulkes estimate   =    -786.94974188 Ry
     estimated scf accuracy    <       0.00031524 Ry

     iteration # 16     ecut=    70.00 Ry     beta= 0.70
     Davidson diagonalization with overlap
     ethr =  1.49E-07,  avg # of iterations =  2.0

     negative rho (up, down):  2.809E-03 0.000E+00

     total cpu time spent up to now is      922.6 secs

     total energy              =    -786.94974967 Ry
     Harris-Foulkes estimate   =    -786.94974655 Ry
     estimated scf accuracy    <       0.00002969 Ry

     iteration # 17     ecut=    70.00 Ry     beta= 0.70
     Davidson diagonalization with overlap
     ethr =  1.40E-08,  avg # of iterations =  2.0

     negative rho (up, down):  2.806E-03 0.000E+00

     total cpu time spent up to now is      974.6 secs

     total energy              =    -786.94975593 Ry
     Harris-Foulkes estimate   =    -786.94975491 Ry
     estimated scf accuracy    <       0.00000826 Ry

     iteration # 18     ecut=    70.00 Ry     beta= 0.70
     Davidson diagonalization with overlap
     ethr =  3.89E-09,  avg # of iterations =  4.0

     negative rho (up, down):  2.796E-03 0.000E+00

     total cpu time spent up to now is     1030.6 secs

     total energy              =    -786.94976551 Ry
     Harris-Foulkes estimate   =    -786.94976726 Ry
     estimated scf accuracy    <       0.00000358 Ry

     iteration # 19     ecut=    70.00 Ry     beta= 0.70
     Davidson diagonalization with overlap
     ethr =  1.69E-09,  avg # of iterations =  4.0

     negative rho (up, down):  2.797E-03 0.000E+00

     total cpu time spent up to now is     1088.3 secs

     total energy              =    -786.94977325 Ry
     Harris-Foulkes estimate   =    -786.94977563 Ry
     estimated scf accuracy    <       0.00000301 Ry

     iteration # 20     ecut=    70.00 Ry     beta= 0.70
     Davidson diagonalization with overlap
     ethr =  1.42E-09,  avg # of iterations =  4.0

     negative rho (up, down):  2.795E-03 0.000E+00

     total cpu time spent up to now is     1144.9 secs

     total energy              =    -786.94977669 Ry
     Harris-Foulkes estimate   =    -786.94977879 Ry
     estimated scf accuracy    <       0.00000131 Ry

     iteration # 21     ecut=    70.00 Ry     beta= 0.70
     Davidson diagonalization with overlap
     ethr =  6.18E-10,  avg # of iterations =  4.0

     negative rho (up, down):  2.797E-03 0.000E+00

     total cpu time spent up to now is     1203.0 secs

     End of self-consistent calculation

          k = 0.0000 0.0000 0.0000 ( 87777 PWs)   bands (ev):

   -71.8018 -44.0987 -44.0986 -42.9817 -19.6129 -18.7736 -18.7736 -18.6819
   -18.6817 -18.6817 -18.3071 -16.9264 -16.9264 -16.9218 -16.8148 -16.8147
   -16.5149 -16.0726 -16.0726 -15.9738 -15.8911 -15.8910 -15.1775 -13.9339
   -13.9339 -13.8921 -13.8437 -13.8437 -13.1797 -12.9174 -12.9174 -12.8883
   -12.5624 -12.5624 -12.1252 -11.6768 -11.6768 -11.5130 -11.2060 -11.2060
   -10.2420  -9.4551  -9.4551  -9.2963  -9.1645  -9.1645  -9.0730  -9.0417
    -9.0416  -9.0305  -8.5140  -8.5140  -7.9690  -7.9689  -7.8995  -7.8585
    -7.6820  -7.6155  -7.2625  -7.2625  -7.0091  -7.0091  -6.9510  -6.6794
    -6.6793  -6.6687  -6.6686  -6.6408  -6.5723  -6.4105  -6.4105  -6.3829
    -6.3780  -6.3780  -6.3296  -6.2926  -5.3707  -5.3707  -5.3012  -5.3011
    -5.0362  -5.0362  -4.8349  -4.7413  -4.5877  -4.5646  -4.5646  -4.2344
    -4.2208  -4.0156  -4.0155  -3.6981  -3.6981  -3.6172  -3.5168  -3.5168
    -3.4431  -3.4431  -2.9618  -2.4103  -2.4103  -1.6978  -1.6552  -1.6552
    -0.6840  -0.5133  -0.5133  -0.3932   1.0869   1.1068   1.1068   1.7884
     1.8924   1.8924   2.3872   2.9456   2.9456   3.0079   3.3580   3.3580
     3.4341   3.6608   3.6609   3.7119   3.8219   3.8219   3.8742

     occupation numbers 
     1.0000   1.0000   1.0000   1.0000   1.0000   1.0000   1.0000   1.0000
     1.0000   1.0000   1.0000   1.0000   1.0000   1.0000   1.0000   1.0000
     1.0000   1.0000   1.0000   1.0000   1.0000   1.0000   1.0000   1.0000
     1.0000   1.0000   1.0000   1.0000   1.0000   1.0000   1.0000   1.0000
     1.0000   1.0000   1.0000   1.0000   1.0000   1.0000   1.0000   1.0000
     1.0000   1.0000   1.0000   1.0000   1.0000   1.0000   1.0000   1.0000
     1.0000   1.0000   1.0000   1.0000   1.0000   1.0000   1.0000   1.0000
     1.0000   1.0000   1.0000   1.0000   1.0000   1.0000   1.0000   1.0000
     1.0000   1.0000   1.0000   1.0000   1.0000   1.0000   1.0000   1.0000
     1.0000   1.0000   1.0000   1.0000   1.0000   1.0000   1.0000   1.0000
     1.0000   1.0000   1.0000   1.0000   1.0000   1.0000   1.0000   1.0000
     1.0000   1.0000   1.0000   1.0000   1.0000   1.0000   1.0000   1.0000
     1.0000   1.0000   1.0000   1.0000   1.0000   1.0000   1.0000   1.0000
     1.0000   0.5012   0.4988   0.0000   0.0000   0.0000   0.0000   0.0000
     0.0000   0.0000   0.0000   0.0000   0.0000   0.0000   0.0000   0.0000
     0.0000   0.0000   0.0000   0.0000   0.0000   0.0000   0.0000

     the Fermi energy is    -0.5114 ev

!    total energy              =    -786.94978041 Ry
     Harris-Foulkes estimate   =    -786.94978090 Ry
     estimated scf accuracy    <       0.00000043 Ry

     The total energy is the sum of the following terms:

     one-electron contribution =   -2654.90462258 Ry
     hartree contribution      =    1373.24404596 Ry
     xc contribution           =    -254.34688980 Ry
     ewald contribution        =     749.05834237 Ry
     smearing contrib. (-TS)   =      -0.00065636 Ry

     convergence has been achieved in  21 iterations

     Writing output data file gr-12.save/

     init_run     :     48.06s CPU     49.29s WALL (       1 calls)
     electrons    :   1117.29s CPU   1152.66s WALL (       1 calls)

     Called by init_run:
     wfcinit      :     20.54s CPU     20.82s WALL (       1 calls)
     wfcinit:atom :      0.03s CPU      0.04s WALL (       1 calls)
     wfcinit:wfcr :     20.35s CPU     20.57s WALL (       1 calls)
     potinit      :     12.33s CPU     12.68s WALL (       1 calls)
     hinit0       :     10.55s CPU     10.59s WALL (       1 calls)

     Called by electrons:
     c_bands      :    692.70s CPU    696.93s WALL (      21 calls)
     sum_band     :    209.22s CPU    221.42s WALL (      21 calls)
     v_of_rho     :    132.70s CPU    140.68s WALL (      22 calls)
     v_h          :      1.48s CPU      1.52s WALL (      22 calls)
     v_xc         :    131.23s CPU    139.16s WALL (      22 calls)
     newd         :     86.24s CPU     97.89s WALL (      22 calls)
     mix_rho      :      3.99s CPU      4.09s WALL (      21 calls)

     Called by c_bands:
     init_us_2    :      1.84s CPU      1.89s WALL (      43 calls)
     cegterg      :    687.93s CPU    692.13s WALL (      21 calls)

     Called by sum_band:
     sum_band:bec :      0.02s CPU      0.02s WALL (      21 calls)
     addusdens    :    126.97s CPU    138.59s WALL (      21 calls)

     Called by *egterg:
     h_psi        :    358.91s CPU    362.02s WALL (      93 calls)
     s_psi        :    120.38s CPU    120.48s WALL (      93 calls)
     g_psi        :      0.39s CPU      0.39s WALL (      71 calls)
     cdiaghg      :      6.63s CPU      6.63s WALL (      92 calls)
     cegterg:over :     86.70s CPU     86.76s WALL (      71 calls)
     cegterg:upda :     54.81s CPU     55.15s WALL (      71 calls)
     cegterg:last :     41.29s CPU     41.32s WALL (      22 calls)

     Called by h_psi:
     h_psi:pot    :    358.46s CPU    361.13s WALL (      93 calls)
     h_psi:calbec :    121.19s CPU    121.38s WALL (      93 calls)
     vloc_psi     :    116.97s CPU    119.38s WALL (      93 calls)
     add_vuspsi   :    120.30s CPU    120.36s WALL (      93 calls)

     General routines
     calbec       :    170.71s CPU    170.94s WALL (     114 calls)
     fft          :     73.18s CPU     76.20s WALL (    1384 calls)
     ffts         :      0.74s CPU      0.77s WALL (      43 calls)
     fftw         :    123.50s CPU    126.00s WALL (   15761 calls)
     interpolate  :      1.79s CPU      1.85s WALL (      22 calls)

     Parallel routines
     fft_scatt_xy :     33.36s CPU     33.83s WALL (   17188 calls)
     fft_scatt_yz :     69.62s CPU     73.53s WALL (   17188 calls)

     PWSCF        :  19m26.60s CPU  20m 3.49s WALL


   This run was terminated on:   3:28:53  20Jul2022            

=------------------------------------------------------------------------------=
   JOB DONE.
=------------------------------------------------------------------------------=
