
     Program PWSCF v.6.4.1 starts on 20Jul2022 at  4: 6:48 

     This program is part of the open-source Quantum ESPRESSO suite
     for quantum simulation of materials; please cite
         "P. Giannozzi et al., J. Phys.:Condens. Matter 21 395502 (2009);
         "P. Giannozzi et al., J. Phys.:Condens. Matter 29 465901 (2017);
          URL http://www.quantum-espresso.org", 
     in publications or presentations arising from this work. More details at
     http://www.quantum-espresso.org/quote

     Parallel version (MPI), running on     6 processors

     MPI processes distributed on     1 nodes
     R & G space division:  proc/nbgrp/npool/nimage =       6
     Reading input from distance-1.8.in

     Current dimensions of program PWSCF are:
     Max number of different atomic species (ntypx) = 10
     Max number of k-points (npk) =  40000
     Max angular momentum in pseudopotentials (lmaxx) =  3

     IMPORTANT: XC functional enforced from input :
     Exchange-correlation      = RVV10 ( 1  4 13  4 3 0)
     Any further DFT definition will be discarded
     Please, verify this is what you really want

               file H.pbe-rrkjus.UPF: wavefunction(s)  1S renormalized
               file Cr.pbe-spn-rrkjus_psl.1.0.0.UPF: wavefunction(s)  3P renormalized

     Subspace diagonalization in iterative solution of the eigenvalue problem:
     a serial algorithm will be used


     Parallelization info
     --------------------
     sticks:   dense  smooth     PW     G-vecs:    dense   smooth      PW
     Min        3051    1746    432               270999   117096   14629
     Max        3053    1747    437               271001   117099   14630
     Sum       18313   10477   2611              1626001   702581   87777



     bravais-lattice index     =            4
     lattice parameter (alat)  =      23.2937  a.u.
     unit-cell volume          =    8879.8548 (a.u.)^3
     number of atoms/cell      =           52
     number of atomic types    =            3
     number of electrons       =       212.00
     number of Kohn-Sham states=          127
     kinetic-energy cutoff     =      70.0000  Ry
     charge density cutoff     =     490.0000  Ry
     convergence threshold     =      1.0E-06
     mixing beta               =       0.7000
     number of iterations used =            8  plain     mixing
     Exchange-correlation      = RVV10 ( 1  4 13  4 3 0)

     celldm(1)=  23.293684  celldm(2)=   0.000000  celldm(3)=   0.811261
     celldm(4)=   0.000000  celldm(5)=   0.000000  celldm(6)=   0.000000

     crystal axes: (cart. coord. in units of alat)
               a(1) = (   1.000000   0.000000   0.000000 )  
               a(2) = (  -0.500000   0.866025   0.000000 )  
               a(3) = (   0.000000   0.000000   0.811261 )  

     reciprocal axes: (cart. coord. in units 2 pi/alat)
               b(1) = (  1.000000  0.577350 -0.000000 )  
               b(2) = (  0.000000  1.154701  0.000000 )  
               b(3) = (  0.000000 -0.000000  1.232649 )  


     PseudoPot. # 1 for H  read from file:
     /home/cristian/Escritorio/Proyecto_Grafeno/pseudopotenciales/H.pbe-rrkjus.UPF
     MD5 check sum: 7cc9d459525c9a0585f487a71c3c9563
     Pseudo is Ultrasoft, Zval =  1.0
     Generated by new atomic code, or converted to UPF format
     Using radial grid of 1061 points,  2 beta functions with: 
                l(1) =   0
                l(2) =   0
     Q(r) pseudized with 0 coefficients 


     PseudoPot. # 2 for C  read from file:
     /home/cristian/Escritorio/Proyecto_Grafeno/pseudopotenciales/C.pbe-n-rrkjus_psl.1.0.0.UPF
     MD5 check sum: 1fdd950c42eb37d8afe3dd2f8d12311e
     Pseudo is Ultrasoft + core correction, Zval =  4.0
     Generated using "atomic" code by A. Dal Corso v.6.3MaX
     Using radial grid of 1073 points,  4 beta functions with: 
                l(1) =   0
                l(2) =   0
                l(3) =   1
                l(4) =   1
     Q(r) pseudized with 0 coefficients 


     PseudoPot. # 3 for Cr read from file:
     /home/cristian/Escritorio/Proyecto_Grafeno/pseudopotenciales/Cr.pbe-spn-rrkjus_psl.1.0.0.UPF
     MD5 check sum: 793d051e4f89dd1e3290b85340a92c0a
     Pseudo is Ultrasoft + core correction, Zval = 14.0
     Generated using "atomic" code by A. Dal Corso v.6.2.2
     Using radial grid of 1183 points,  6 beta functions with: 
                l(1) =   0
                l(2) =   0
                l(3) =   1
                l(4) =   1
                l(5) =   2
                l(6) =   2
     Q(r) pseudized with 0 coefficients 


     vdW kernel table read from file rVV10_kernel_table
     MD5 check sum: b8e2538accc0c0b3206b45ba4daaba6c

     atomic species   valence    mass     pseudopotential
        H              1.00     1.00794     H ( 1.00)
        C              4.00    12.01070     C ( 1.00)
        Cr            14.00    51.99610     Cr( 1.00)

      2 Sym. Ops. (no inversion) found


                                    s                        frac. trans.

      isym =  1     identity                                     

 cryst.   s( 1) = (     1          0          0      )
                  (     0          1          0      )
                  (     0          0          1      )

 cart.    s( 1) = (  1.0000000  0.0000000  0.0000000 )
                  (  0.0000000  1.0000000  0.0000000 )
                  (  0.0000000  0.0000000  1.0000000 )


      isym =  2     inv. 180 deg rotation - cryst. axis [1,1,0]  

 cryst.   s( 2) = (     0         -1          0      )
                  (    -1          0          0      )
                  (     0          0          1      )

 cart.    s( 2) = (  0.5000000 -0.8660254  0.0000000 )
                  ( -0.8660254 -0.5000000  0.0000000 )
                  (  0.0000000  0.0000000  1.0000000 )


     point group C_s (m)    
     there are  2 classes
     the character table:

       E     s    
A'     1.00  1.00
A''    1.00 -1.00

     the symmetry operations in each class and the name of the first element:

     E        1
          identity                                               
     s        2
          inv. 180 deg rotation - cryst. axis [1,1,0]            

   Cartesian axes

     site n.     atom                  positions (alat units)
         1           H   tau(   1) = (   0.2000000   0.4618802   0.1460270  )
         2           H   tau(   2) = (   0.2000000   0.4618802   0.2070397  )
         3           C   tau(   3) = (   0.0000000   0.0000000   0.0000000  )
         4           C   tau(   4) = (   0.0000000   0.1154701   0.0000000  )
         5           C   tau(   5) = (  -0.1000000   0.1732051   0.0000000  )
         6           C   tau(   6) = (  -0.1000000   0.2886751   0.0000000  )
         7           C   tau(   7) = (  -0.2000000   0.3464102   0.0000000  )
         8           C   tau(   8) = (  -0.2000000   0.4618802   0.0000000  )
         9           C   tau(   9) = (  -0.3000000   0.5196152   0.0000000  )
        10           C   tau(  10) = (  -0.3000000   0.6350853   0.0000000  )
        11           C   tau(  11) = (  -0.4000000   0.6928203   0.0000000  )
        12           C   tau(  12) = (  -0.4000000   0.8082904   0.0000000  )
        13           C   tau(  13) = (   0.2000000   0.0000000   0.0000000  )
        14           C   tau(  14) = (   0.2000000   0.1154701   0.0000000  )
        15           C   tau(  15) = (   0.1000000   0.1732051   0.0000000  )
        16           C   tau(  16) = (   0.1000000   0.2886751   0.0000000  )
        17           C   tau(  17) = (   0.0000000   0.3464102   0.0000000  )
        18           C   tau(  18) = (   0.0000000   0.4618802   0.0000000  )
        19           C   tau(  19) = (  -0.1000000   0.5196152   0.0000000  )
        20           C   tau(  20) = (  -0.1000000   0.6350853   0.0000000  )
        21           C   tau(  21) = (  -0.2000000   0.6928203   0.0000000  )
        22           C   tau(  22) = (  -0.2000000   0.8082904   0.0000000  )
        23           C   tau(  23) = (   0.4000000   0.0000000   0.0000000  )
        24           C   tau(  24) = (   0.4000000   0.1154701   0.0000000  )
        25           C   tau(  25) = (   0.3000000   0.1732051   0.0000000  )
        26           C   tau(  26) = (   0.3000000   0.2886751   0.0000000  )
        27           C   tau(  27) = (   0.2000000   0.3464102   0.0000000  )
        28           Cr  tau(  28) = (   0.2000000   0.4618802   0.0000000  )
        29           C   tau(  29) = (   0.1000000   0.5196152   0.0000000  )
        30           C   tau(  30) = (   0.1000000   0.6350853   0.0000000  )
        31           C   tau(  31) = (   0.0000000   0.6928203   0.0000000  )
        32           C   tau(  32) = (   0.0000000   0.8082904   0.0000000  )
        33           C   tau(  33) = (   0.6000000   0.0000000   0.0000000  )
        34           C   tau(  34) = (   0.6000000   0.1154701   0.0000000  )
        35           C   tau(  35) = (   0.5000000   0.1732051   0.0000000  )
        36           C   tau(  36) = (   0.5000000   0.2886751   0.0000000  )
        37           C   tau(  37) = (   0.4000000   0.3464102   0.0000000  )
        38           C   tau(  38) = (   0.4000000   0.4618802   0.0000000  )
        39           C   tau(  39) = (   0.3000000   0.5196152   0.0000000  )
        40           C   tau(  40) = (   0.3000000   0.6350853   0.0000000  )
        41           C   tau(  41) = (   0.2000000   0.6928203   0.0000000  )
        42           C   tau(  42) = (   0.2000000   0.8082904   0.0000000  )
        43           C   tau(  43) = (   0.8000000   0.0000000   0.0000000  )
        44           C   tau(  44) = (   0.8000000   0.1154701   0.0000000  )
        45           C   tau(  45) = (   0.7000000   0.1732051   0.0000000  )
        46           C   tau(  46) = (   0.7000000   0.2886751   0.0000000  )
        47           C   tau(  47) = (   0.6000000   0.3464102   0.0000000  )
        48           C   tau(  48) = (   0.6000000   0.4618802   0.0000000  )
        49           C   tau(  49) = (   0.5000000   0.5196152   0.0000000  )
        50           C   tau(  50) = (   0.5000000   0.6350853   0.0000000  )
        51           C   tau(  51) = (   0.4000000   0.6928203   0.0000000  )
        52           C   tau(  52) = (   0.4000000   0.8082904   0.0000000  )

   Crystallographic axes

     site n.     atom                  positions (cryst. coord.)
         1           H   tau(   1) = (  0.4666667  0.5333333  0.1800000  )
         2           H   tau(   2) = (  0.4666667  0.5333333  0.2552072  )
         3           C   tau(   3) = (  0.0000000  0.0000000  0.0000000  )
         4           C   tau(   4) = (  0.0666667  0.1333333  0.0000000  )
         5           C   tau(   5) = (  0.0000000  0.2000000  0.0000000  )
         6           C   tau(   6) = (  0.0666667  0.3333333  0.0000000  )
         7           C   tau(   7) = (  0.0000000  0.4000000  0.0000000  )
         8           C   tau(   8) = (  0.0666667  0.5333333  0.0000000  )
         9           C   tau(   9) = (  0.0000000  0.6000000  0.0000000  )
        10           C   tau(  10) = (  0.0666667  0.7333333  0.0000000  )
        11           C   tau(  11) = (  0.0000000  0.8000000  0.0000000  )
        12           C   tau(  12) = (  0.0666667  0.9333333  0.0000000  )
        13           C   tau(  13) = (  0.2000000  0.0000000  0.0000000  )
        14           C   tau(  14) = (  0.2666667  0.1333333  0.0000000  )
        15           C   tau(  15) = (  0.2000000  0.2000000  0.0000000  )
        16           C   tau(  16) = (  0.2666667  0.3333333  0.0000000  )
        17           C   tau(  17) = (  0.2000000  0.4000000  0.0000000  )
        18           C   tau(  18) = (  0.2666667  0.5333333  0.0000000  )
        19           C   tau(  19) = (  0.2000000  0.6000000  0.0000000  )
        20           C   tau(  20) = (  0.2666667  0.7333333  0.0000000  )
        21           C   tau(  21) = (  0.2000000  0.8000000  0.0000000  )
        22           C   tau(  22) = (  0.2666667  0.9333333  0.0000000  )
        23           C   tau(  23) = (  0.4000000  0.0000000  0.0000000  )
        24           C   tau(  24) = (  0.4666667  0.1333333  0.0000000  )
        25           C   tau(  25) = (  0.4000000  0.2000000  0.0000000  )
        26           C   tau(  26) = (  0.4666667  0.3333333  0.0000000  )
        27           C   tau(  27) = (  0.4000000  0.4000000  0.0000000  )
        28           Cr  tau(  28) = (  0.4666667  0.5333333  0.0000000  )
        29           C   tau(  29) = (  0.4000000  0.6000000  0.0000000  )
        30           C   tau(  30) = (  0.4666667  0.7333333  0.0000000  )
        31           C   tau(  31) = (  0.4000000  0.8000000  0.0000000  )
        32           C   tau(  32) = (  0.4666667  0.9333333  0.0000000  )
        33           C   tau(  33) = (  0.6000000  0.0000000  0.0000000  )
        34           C   tau(  34) = (  0.6666667  0.1333333  0.0000000  )
        35           C   tau(  35) = (  0.6000000  0.2000000  0.0000000  )
        36           C   tau(  36) = (  0.6666667  0.3333333  0.0000000  )
        37           C   tau(  37) = (  0.6000000  0.4000000  0.0000000  )
        38           C   tau(  38) = (  0.6666667  0.5333333  0.0000000  )
        39           C   tau(  39) = (  0.6000000  0.6000000  0.0000000  )
        40           C   tau(  40) = (  0.6666667  0.7333333  0.0000000  )
        41           C   tau(  41) = (  0.6000000  0.8000000  0.0000000  )
        42           C   tau(  42) = (  0.6666667  0.9333333  0.0000000  )
        43           C   tau(  43) = (  0.8000000  0.0000000  0.0000000  )
        44           C   tau(  44) = (  0.8666667  0.1333333  0.0000000  )
        45           C   tau(  45) = (  0.8000000  0.2000000  0.0000000  )
        46           C   tau(  46) = (  0.8666667  0.3333333  0.0000000  )
        47           C   tau(  47) = (  0.8000000  0.4000000  0.0000000  )
        48           C   tau(  48) = (  0.8666667  0.5333333  0.0000000  )
        49           C   tau(  49) = (  0.8000000  0.6000000  0.0000000  )
        50           C   tau(  50) = (  0.8666667  0.7333333  0.0000000  )
        51           C   tau(  51) = (  0.8000000  0.8000000  0.0000000  )
        52           C   tau(  52) = (  0.8666667  0.9333333  0.0000000  )

     number of k points=     1  Marzari-Vanderbilt smearing, width (Ry)=  0.0010
                       cart. coord. in units 2pi/alat
        k(    1) = (   0.0000000   0.0000000   0.0000000), wk =   2.0000000

                       cryst. coord.
        k(    1) = (   0.0000000   0.0000000   0.0000000), wk =   2.0000000

     Dense  grid:  1626001 G-vectors     FFT dimensions: ( 180, 180, 135)

     Smooth grid:   702581 G-vectors     FFT dimensions: ( 125, 125, 108)

     Dynamical RAM for                 wfc:      28.36 MB

     Dynamical RAM for     wfc (w. buffer):      28.36 MB

     Dynamical RAM for           str. fact:      12.41 MB

     Dynamical RAM for           local pot:       0.00 MB

     Dynamical RAM for          nlocal pot:      92.46 MB

     Dynamical RAM for                qrad:      19.73 MB

     Dynamical RAM for          rho,v,vnew:      29.46 MB

     Dynamical RAM for               rhoin:       9.82 MB

     Dynamical RAM for            rho*nmix:      66.16 MB

     Dynamical RAM for           G-vectors:      16.40 MB

     Dynamical RAM for          h,s,v(r/c):      11.81 MB

     Dynamical RAM for          <psi|beta>:       0.80 MB

     Dynamical RAM for                 psi:     113.46 MB

     Dynamical RAM for                hpsi:     113.46 MB

     Dynamical RAM for                spsi:     113.46 MB

     Dynamical RAM for      wfcinit/wfcrot:      93.90 MB

     Dynamical RAM for           addusdens:     971.75 MB

     Estimated static dynamical RAM per process >     319.78 MB

     Estimated max dynamical RAM per process >       1.26 GB

     Estimated total dynamical RAM >       7.57 GB

     Check: negative core charge=   -0.000002

     Initial potential from superposition of free atoms

     starting charge  211.80478, renormalised to  212.00000

     negative rho (up, down):  6.078E-04 0.000E+00


---------------------------------------------------------------------------------
Carrying out rVV10 run using the following parameters:
Nqs =      20    Nr_points =    1024   r_max =   100.000
b_value =  6.30000    beta =  0.00901
     q_mesh =  0.00010000  0.00030000  0.00058939  0.00100810
               0.00161396  0.00249058  0.00375900  0.00559430
               0.00824984  0.01209221  0.01765183  0.02569619
               0.03733578  0.05417739  0.07854596  0.11380545
               0.16482331  0.23864234  0.34545298  0.50000000

Gradients computed in Reciprocal space

---------------------------------------------------------------------------------


     Starting wfcs are  208 randomized atomic wfcs

     total cpu time spent up to now is       53.3 secs

     Self-consistent Calculation

     iteration #  1     ecut=    70.00 Ry     beta= 0.70
     Davidson diagonalization with overlap
     ethr =  1.00E-02,  avg # of iterations =  3.0

     negative rho (up, down):  1.039E-03 0.000E+00

     total cpu time spent up to now is      118.6 secs

     total energy              =    -781.03482093 Ry
     Harris-Foulkes estimate   =    -790.38389347 Ry
     estimated scf accuracy    <      12.57246913 Ry

     iteration #  2     ecut=    70.00 Ry     beta= 0.70
     Davidson diagonalization with overlap
     ethr =  5.93E-03,  avg # of iterations =  7.0

     negative rho (up, down):  1.190E-03 0.000E+00

     total cpu time spent up to now is      181.5 secs

     total energy              =    -773.33558114 Ry
     Harris-Foulkes estimate   =    -805.28079526 Ry
     estimated scf accuracy    <     118.11384233 Ry

     iteration #  3     ecut=    70.00 Ry     beta= 0.70
     Davidson diagonalization with overlap
     ethr =  5.93E-03,  avg # of iterations =  5.0

     negative rho (up, down):  1.242E-03 0.000E+00

     total cpu time spent up to now is      263.3 secs

     total energy              =    -785.39133305 Ry
     Harris-Foulkes estimate   =    -787.98161197 Ry
     estimated scf accuracy    <       7.43362211 Ry

     iteration #  4     ecut=    70.00 Ry     beta= 0.70
     Davidson diagonalization with overlap
     ethr =  3.51E-03,  avg # of iterations =  4.0

     negative rho (up, down):  1.647E-03 0.000E+00

     total cpu time spent up to now is      318.8 secs

     total energy              =    -786.37045857 Ry
     Harris-Foulkes estimate   =    -787.31572208 Ry
     estimated scf accuracy    <       2.73329481 Ry

     iteration #  5     ecut=    70.00 Ry     beta= 0.70
     Davidson diagonalization with overlap
     ethr =  1.29E-03,  avg # of iterations =  5.0

     negative rho (up, down):  1.840E-03 0.000E+00

     total cpu time spent up to now is      370.8 secs

     total energy              =    -786.94324634 Ry
     Harris-Foulkes estimate   =    -787.07681831 Ry
     estimated scf accuracy    <       0.85597438 Ry

     iteration #  6     ecut=    70.00 Ry     beta= 0.70
     Davidson diagonalization with overlap
     ethr =  4.04E-04,  avg # of iterations =  2.0

     negative rho (up, down):  1.947E-03 0.000E+00

     total cpu time spent up to now is      418.7 secs

     total energy              =    -786.94445903 Ry
     Harris-Foulkes estimate   =    -786.98936224 Ry
     estimated scf accuracy    <       0.40824452 Ry

     iteration #  7     ecut=    70.00 Ry     beta= 0.70
     Davidson diagonalization with overlap
     ethr =  1.93E-04,  avg # of iterations =  2.0

     negative rho (up, down):  2.222E-03 0.000E+00

     total cpu time spent up to now is      467.0 secs

     total energy              =    -786.91988121 Ry
     Harris-Foulkes estimate   =    -786.97483210 Ry
     estimated scf accuracy    <       0.26269629 Ry

     iteration #  8     ecut=    70.00 Ry     beta= 0.70
     Davidson diagonalization with overlap
     ethr =  1.24E-04,  avg # of iterations =  4.0

     negative rho (up, down):  2.604E-03 0.000E+00

     total cpu time spent up to now is      517.2 secs

     total energy              =    -786.93640877 Ry
     Harris-Foulkes estimate   =    -786.94337578 Ry
     estimated scf accuracy    <       0.02565320 Ry

     iteration #  9     ecut=    70.00 Ry     beta= 0.70
     Davidson diagonalization with overlap
     ethr =  1.21E-05,  avg # of iterations = 11.0

     negative rho (up, down):  2.899E-03 0.000E+00

     total cpu time spent up to now is      578.7 secs

     total energy              =    -786.93968994 Ry
     Harris-Foulkes estimate   =    -786.94372209 Ry
     estimated scf accuracy    <       0.01346488 Ry

     iteration # 10     ecut=    70.00 Ry     beta= 0.70
     Davidson diagonalization with overlap
     ethr =  6.35E-06,  avg # of iterations =  4.0

     negative rho (up, down):  2.838E-03 0.000E+00

     total cpu time spent up to now is      631.4 secs

     total energy              =    -786.94035795 Ry
     Harris-Foulkes estimate   =    -786.94264535 Ry
     estimated scf accuracy    <       0.01513312 Ry

     iteration # 11     ecut=    70.00 Ry     beta= 0.70
     Davidson diagonalization with overlap
     ethr =  6.35E-06,  avg # of iterations =  3.0

     negative rho (up, down):  2.843E-03 0.000E+00

     total cpu time spent up to now is      680.2 secs

     total energy              =    -786.94103021 Ry
     Harris-Foulkes estimate   =    -786.94153955 Ry
     estimated scf accuracy    <       0.00626099 Ry

     iteration # 12     ecut=    70.00 Ry     beta= 0.70
     Davidson diagonalization with overlap
     ethr =  2.95E-06,  avg # of iterations =  1.0

     negative rho (up, down):  2.876E-03 0.000E+00

     total cpu time spent up to now is      728.0 secs

     total energy              =    -786.94127093 Ry
     Harris-Foulkes estimate   =    -786.94141180 Ry
     estimated scf accuracy    <       0.00258669 Ry

     iteration # 13     ecut=    70.00 Ry     beta= 0.70
     Davidson diagonalization with overlap
     ethr =  1.22E-06,  avg # of iterations =  2.0

     negative rho (up, down):  2.889E-03 0.000E+00

     total cpu time spent up to now is      776.1 secs

     total energy              =    -786.94136374 Ry
     Harris-Foulkes estimate   =    -786.94138415 Ry
     estimated scf accuracy    <       0.00014691 Ry

     iteration # 14     ecut=    70.00 Ry     beta= 0.70
     Davidson diagonalization with overlap
     ethr =  6.93E-08,  avg # of iterations =  4.0

     negative rho (up, down):  2.896E-03 0.000E+00

     total cpu time spent up to now is      826.6 secs

     total energy              =    -786.94137791 Ry
     Harris-Foulkes estimate   =    -786.94138428 Ry
     estimated scf accuracy    <       0.00004495 Ry

     iteration # 15     ecut=    70.00 Ry     beta= 0.70
     Davidson diagonalization with overlap
     ethr =  2.12E-08,  avg # of iterations =  3.0

     negative rho (up, down):  2.899E-03 0.000E+00

     total cpu time spent up to now is      876.6 secs

     total energy              =    -786.94138215 Ry
     Harris-Foulkes estimate   =    -786.94138265 Ry
     estimated scf accuracy    <       0.00001881 Ry

     iteration # 16     ecut=    70.00 Ry     beta= 0.70
     Davidson diagonalization with overlap
     ethr =  8.87E-09,  avg # of iterations =  3.0

     negative rho (up, down):  2.901E-03 0.000E+00

     total cpu time spent up to now is      926.5 secs

     total energy              =    -786.94138578 Ry
     Harris-Foulkes estimate   =    -786.94138498 Ry
     estimated scf accuracy    <       0.00000614 Ry

     iteration # 17     ecut=    70.00 Ry     beta= 0.70
     Davidson diagonalization with overlap
     ethr =  2.90E-09,  avg # of iterations =  4.0

     negative rho (up, down):  2.903E-03 0.000E+00

     total cpu time spent up to now is      980.3 secs

     total energy              =    -786.94138899 Ry
     Harris-Foulkes estimate   =    -786.94138791 Ry
     estimated scf accuracy    <       0.00001671 Ry

     iteration # 18     ecut=    70.00 Ry     beta= 0.70
     Davidson diagonalization with overlap
     ethr =  2.90E-09,  avg # of iterations =  2.0

     negative rho (up, down):  2.905E-03 0.000E+00

     total cpu time spent up to now is     1033.0 secs

     total energy              =    -786.94139168 Ry
     Harris-Foulkes estimate   =    -786.94139084 Ry
     estimated scf accuracy    <       0.00000518 Ry

     iteration # 19     ecut=    70.00 Ry     beta= 0.70
     Davidson diagonalization with overlap
     ethr =  2.44E-09,  avg # of iterations =  3.0

     negative rho (up, down):  2.906E-03 0.000E+00

     total cpu time spent up to now is     1087.1 secs

     total energy              =    -786.94139529 Ry
     Harris-Foulkes estimate   =    -786.94139483 Ry
     estimated scf accuracy    <       0.00000117 Ry

     iteration # 20     ecut=    70.00 Ry     beta= 0.70
     Davidson diagonalization with overlap
     ethr =  5.52E-10,  avg # of iterations =  4.0

     negative rho (up, down):  2.908E-03 0.000E+00

     total cpu time spent up to now is     1144.6 secs

     total energy              =    -786.94139390 Ry
     Harris-Foulkes estimate   =    -786.94139633 Ry
     estimated scf accuracy    <       0.00000286 Ry

     iteration # 21     ecut=    70.00 Ry     beta= 0.70
     Davidson diagonalization with overlap
     ethr =  5.52E-10,  avg # of iterations =  4.0

     negative rho (up, down):  2.912E-03 0.000E+00

     total cpu time spent up to now is     1204.9 secs

     End of self-consistent calculation

          k = 0.0000 0.0000 0.0000 ( 87777 PWs)   bands (ev):

   -71.6733 -43.9790 -43.9789 -42.8619 -19.5810 -18.7393 -18.7390 -18.6529
   -18.6515 -18.6512 -18.2709 -16.8938 -16.8938 -16.8898 -16.7806 -16.7806
   -16.4842 -16.0387 -16.0386 -15.9437 -15.8568 -15.8567 -15.1449 -13.8954
   -13.8953 -13.8577 -13.8133 -13.8133 -13.1509 -12.8846 -12.8846 -12.8562
   -12.5290 -12.5290 -12.0952 -11.6415 -11.6414 -11.4806 -11.1714 -11.1714
   -10.2323  -9.4152  -9.4152  -9.2572  -9.1992  -9.1304  -9.1302  -9.0417
    -9.0109  -9.0109  -9.0003  -8.4806  -8.4806  -7.9327  -7.9326  -7.8331
    -7.6976  -7.6477  -7.2304  -7.2303  -6.9771  -6.9768  -6.9148  -6.6429
    -6.6428  -6.6413  -6.6410  -6.6120  -6.5346  -6.3774  -6.3774  -6.3523
    -6.3475  -6.3473  -6.2991  -6.2086  -5.3392  -5.3390  -5.2657  -5.2656
    -4.9992  -4.9992  -4.8008  -4.7101  -4.5582  -4.5363  -4.5363  -4.1836
    -4.1548  -3.9864  -3.9862  -3.6683  -3.6683  -3.5898  -3.4825  -3.4823
    -3.3722  -3.3722  -2.8824  -2.3757  -2.3757  -1.6671  -1.6270  -1.6270
    -0.6205  -0.4707  -0.4706  -0.0862   1.1174   1.1349   1.1349   1.8167
     1.9281   1.9281   2.3366   2.9742   2.9743   3.0371   3.3342   3.3343
     3.3806   3.6616   3.6617   3.7191   3.8580   3.8581   3.9040

     occupation numbers 
     1.0000   1.0000   1.0000   1.0000   1.0000   1.0000   1.0000   1.0000
     1.0000   1.0000   1.0000   1.0000   1.0000   1.0000   1.0000   1.0000
     1.0000   1.0000   1.0000   1.0000   1.0000   1.0000   1.0000   1.0000
     1.0000   1.0000   1.0000   1.0000   1.0000   1.0000   1.0000   1.0000
     1.0000   1.0000   1.0000   1.0000   1.0000   1.0000   1.0000   1.0000
     1.0000   1.0000   1.0000   1.0000   1.0000   1.0000   1.0000   1.0000
     1.0000   1.0000   1.0000   1.0000   1.0000   1.0000   1.0000   1.0000
     1.0000   1.0000   1.0000   1.0000   1.0000   1.0000   1.0000   1.0000
     1.0000   1.0000   1.0000   1.0000   1.0000   1.0000   1.0000   1.0000
     1.0000   1.0000   1.0000   1.0000   1.0000   1.0000   1.0000   1.0000
     1.0000   1.0000   1.0000   1.0000   1.0000   1.0000   1.0000   1.0000
     1.0000   1.0000   1.0000   1.0000   1.0000   1.0000   1.0000   1.0000
     1.0000   1.0000   1.0000   1.0000   1.0000   1.0000   1.0000   1.0000
     1.0000   0.5008   0.4992   0.0000   0.0000   0.0000   0.0000   0.0000
     0.0000   0.0000   0.0000   0.0000   0.0000   0.0000   0.0000   0.0000
     0.0000   0.0000   0.0000   0.0000   0.0000   0.0000   0.0000

     the Fermi energy is    -0.4688 ev

!    total energy              =    -786.94139763 Ry
     Harris-Foulkes estimate   =    -786.94139855 Ry
     estimated scf accuracy    <       0.00000065 Ry

     The total energy is the sum of the following terms:

     one-electron contribution =   -2671.71897453 Ry
     hartree contribution      =    1381.86951643 Ry
     xc contribution           =    -254.38937581 Ry
     ewald contribution        =     757.29809265 Ry
     smearing contrib. (-TS)   =      -0.00065636 Ry

     convergence has been achieved in  21 iterations

     Writing output data file gr-12.save/

     init_run     :     51.10s CPU     52.26s WALL (       1 calls)
     electrons    :   1117.80s CPU   1151.69s WALL (       1 calls)

     Called by init_run:
     wfcinit      :     20.66s CPU     20.78s WALL (       1 calls)
     wfcinit:atom :      0.03s CPU      0.05s WALL (       1 calls)
     wfcinit:wfcr :     20.46s CPU     20.54s WALL (       1 calls)
     potinit      :     13.46s CPU     13.88s WALL (       1 calls)
     hinit0       :     12.42s CPU     12.47s WALL (       1 calls)

     Called by electrons:
     c_bands      :    692.98s CPU    697.35s WALL (      21 calls)
     sum_band     :    209.97s CPU    221.32s WALL (      21 calls)
     v_of_rho     :    131.45s CPU    139.26s WALL (      22 calls)
     v_h          :      1.49s CPU      1.53s WALL (      22 calls)
     v_xc         :    129.96s CPU    137.72s WALL (      22 calls)
     newd         :     86.83s CPU     97.94s WALL (      22 calls)
     mix_rho      :      4.03s CPU      4.10s WALL (      21 calls)

     Called by c_bands:
     init_us_2    :      1.83s CPU      1.85s WALL (      43 calls)
     cegterg      :    688.04s CPU    692.37s WALL (      21 calls)

     Called by sum_band:
     sum_band:bec :      0.02s CPU      0.02s WALL (      21 calls)
     addusdens    :    129.59s CPU    140.37s WALL (      21 calls)

     Called by *egterg:
     h_psi        :    361.76s CPU    364.73s WALL (     102 calls)
     s_psi        :    122.45s CPU    122.53s WALL (     102 calls)
     g_psi        :      0.38s CPU      0.39s WALL (      80 calls)
     cdiaghg      :      7.71s CPU      7.72s WALL (     101 calls)
     cegterg:over :     86.59s CPU     86.67s WALL (      80 calls)
     cegterg:upda :     56.50s CPU     56.90s WALL (      80 calls)
     cegterg:last :     35.13s CPU     35.15s WALL (      21 calls)

     Called by h_psi:
     h_psi:pot    :    361.39s CPU    363.84s WALL (     102 calls)
     h_psi:calbec :    122.38s CPU    122.49s WALL (     102 calls)
     vloc_psi     :    116.33s CPU    118.58s WALL (     102 calls)
     add_vuspsi   :    122.69s CPU    122.77s WALL (     102 calls)

     General routines
     calbec       :    171.78s CPU    171.92s WALL (     123 calls)
     fft          :     72.84s CPU     75.65s WALL (    1384 calls)
     ffts         :      0.77s CPU      0.79s WALL (      43 calls)
     fftw         :    121.27s CPU    123.62s WALL (   15913 calls)
     interpolate  :      1.81s CPU      1.87s WALL (      22 calls)

     Parallel routines
     fft_scatt_xy :     34.08s CPU     34.54s WALL (   17340 calls)
     fft_scatt_yz :     63.26s CPU     66.98s WALL (   17340 calls)

     PWSCF        :  19m30.09s CPU  20m 5.38s WALL


   This run was terminated on:   4:26:53  20Jul2022            

=------------------------------------------------------------------------------=
   JOB DONE.
=------------------------------------------------------------------------------=
