
     Program PWSCF v.6.4.1 starts on 20Jul2022 at  3:28:54 

     This program is part of the open-source Quantum ESPRESSO suite
     for quantum simulation of materials; please cite
         "P. Giannozzi et al., J. Phys.:Condens. Matter 21 395502 (2009);
         "P. Giannozzi et al., J. Phys.:Condens. Matter 29 465901 (2017);
          URL http://www.quantum-espresso.org", 
     in publications or presentations arising from this work. More details at
     http://www.quantum-espresso.org/quote

     Parallel version (MPI), running on     6 processors

     MPI processes distributed on     1 nodes
     R & G space division:  proc/nbgrp/npool/nimage =       6
     Reading input from distance-2.2.in

     Current dimensions of program PWSCF are:
     Max number of different atomic species (ntypx) = 10
     Max number of k-points (npk) =  40000
     Max angular momentum in pseudopotentials (lmaxx) =  3

     IMPORTANT: XC functional enforced from input :
     Exchange-correlation      = RVV10 ( 1  4 13  4 3 0)
     Any further DFT definition will be discarded
     Please, verify this is what you really want

               file H.pbe-rrkjus.UPF: wavefunction(s)  1S renormalized
               file Cr.pbe-spn-rrkjus_psl.1.0.0.UPF: wavefunction(s)  3P renormalized

     Subspace diagonalization in iterative solution of the eigenvalue problem:
     a serial algorithm will be used


     Parallelization info
     --------------------
     sticks:   dense  smooth     PW     G-vecs:    dense   smooth      PW
     Min        3051    1746    432               270999   117096   14629
     Max        3053    1747    437               271001   117099   14630
     Sum       18313   10477   2611              1626001   702581   87777



     bravais-lattice index     =            4
     lattice parameter (alat)  =      23.2937  a.u.
     unit-cell volume          =    8879.8548 (a.u.)^3
     number of atoms/cell      =           52
     number of atomic types    =            3
     number of electrons       =       212.00
     number of Kohn-Sham states=          127
     kinetic-energy cutoff     =      70.0000  Ry
     charge density cutoff     =     490.0000  Ry
     convergence threshold     =      1.0E-06
     mixing beta               =       0.7000
     number of iterations used =            8  plain     mixing
     Exchange-correlation      = RVV10 ( 1  4 13  4 3 0)

     celldm(1)=  23.293684  celldm(2)=   0.000000  celldm(3)=   0.811261
     celldm(4)=   0.000000  celldm(5)=   0.000000  celldm(6)=   0.000000

     crystal axes: (cart. coord. in units of alat)
               a(1) = (   1.000000   0.000000   0.000000 )  
               a(2) = (  -0.500000   0.866025   0.000000 )  
               a(3) = (   0.000000   0.000000   0.811261 )  

     reciprocal axes: (cart. coord. in units 2 pi/alat)
               b(1) = (  1.000000  0.577350 -0.000000 )  
               b(2) = (  0.000000  1.154701  0.000000 )  
               b(3) = (  0.000000 -0.000000  1.232649 )  


     PseudoPot. # 1 for H  read from file:
     /home/cristian/Escritorio/Proyecto_Grafeno/pseudopotenciales/H.pbe-rrkjus.UPF
     MD5 check sum: 7cc9d459525c9a0585f487a71c3c9563
     Pseudo is Ultrasoft, Zval =  1.0
     Generated by new atomic code, or converted to UPF format
     Using radial grid of 1061 points,  2 beta functions with: 
                l(1) =   0
                l(2) =   0
     Q(r) pseudized with 0 coefficients 


     PseudoPot. # 2 for C  read from file:
     /home/cristian/Escritorio/Proyecto_Grafeno/pseudopotenciales/C.pbe-n-rrkjus_psl.1.0.0.UPF
     MD5 check sum: 1fdd950c42eb37d8afe3dd2f8d12311e
     Pseudo is Ultrasoft + core correction, Zval =  4.0
     Generated using "atomic" code by A. Dal Corso v.6.3MaX
     Using radial grid of 1073 points,  4 beta functions with: 
                l(1) =   0
                l(2) =   0
                l(3) =   1
                l(4) =   1
     Q(r) pseudized with 0 coefficients 


     PseudoPot. # 3 for Cr read from file:
     /home/cristian/Escritorio/Proyecto_Grafeno/pseudopotenciales/Cr.pbe-spn-rrkjus_psl.1.0.0.UPF
     MD5 check sum: 793d051e4f89dd1e3290b85340a92c0a
     Pseudo is Ultrasoft + core correction, Zval = 14.0
     Generated using "atomic" code by A. Dal Corso v.6.2.2
     Using radial grid of 1183 points,  6 beta functions with: 
                l(1) =   0
                l(2) =   0
                l(3) =   1
                l(4) =   1
                l(5) =   2
                l(6) =   2
     Q(r) pseudized with 0 coefficients 


     vdW kernel table read from file rVV10_kernel_table
     MD5 check sum: b8e2538accc0c0b3206b45ba4daaba6c

     atomic species   valence    mass     pseudopotential
        H              1.00     1.00794     H ( 1.00)
        C              4.00    12.01070     C ( 1.00)
        Cr            14.00    51.99610     Cr( 1.00)

      2 Sym. Ops. (no inversion) found


                                    s                        frac. trans.

      isym =  1     identity                                     

 cryst.   s( 1) = (     1          0          0      )
                  (     0          1          0      )
                  (     0          0          1      )

 cart.    s( 1) = (  1.0000000  0.0000000  0.0000000 )
                  (  0.0000000  1.0000000  0.0000000 )
                  (  0.0000000  0.0000000  1.0000000 )


      isym =  2     inv. 180 deg rotation - cryst. axis [1,1,0]  

 cryst.   s( 2) = (     0         -1          0      )
                  (    -1          0          0      )
                  (     0          0          1      )

 cart.    s( 2) = (  0.5000000 -0.8660254  0.0000000 )
                  ( -0.8660254 -0.5000000  0.0000000 )
                  (  0.0000000  0.0000000  1.0000000 )


     point group C_s (m)    
     there are  2 classes
     the character table:

       E     s    
A'     1.00  1.00
A''    1.00 -1.00

     the symmetry operations in each class and the name of the first element:

     E        1
          identity                                               
     s        2
          inv. 180 deg rotation - cryst. axis [1,1,0]            

   Cartesian axes

     site n.     atom                  positions (alat units)
         1           H   tau(   1) = (   0.2000000   0.4618802   0.1784775  )
         2           H   tau(   2) = (   0.2000000   0.4618802   0.2394901  )
         3           C   tau(   3) = (   0.0000000   0.0000000   0.0000000  )
         4           C   tau(   4) = (   0.0000000   0.1154701   0.0000000  )
         5           C   tau(   5) = (  -0.1000000   0.1732051   0.0000000  )
         6           C   tau(   6) = (  -0.1000000   0.2886751   0.0000000  )
         7           C   tau(   7) = (  -0.2000000   0.3464102   0.0000000  )
         8           C   tau(   8) = (  -0.2000000   0.4618802   0.0000000  )
         9           C   tau(   9) = (  -0.3000000   0.5196152   0.0000000  )
        10           C   tau(  10) = (  -0.3000000   0.6350853   0.0000000  )
        11           C   tau(  11) = (  -0.4000000   0.6928203   0.0000000  )
        12           C   tau(  12) = (  -0.4000000   0.8082904   0.0000000  )
        13           C   tau(  13) = (   0.2000000   0.0000000   0.0000000  )
        14           C   tau(  14) = (   0.2000000   0.1154701   0.0000000  )
        15           C   tau(  15) = (   0.1000000   0.1732051   0.0000000  )
        16           C   tau(  16) = (   0.1000000   0.2886751   0.0000000  )
        17           C   tau(  17) = (   0.0000000   0.3464102   0.0000000  )
        18           C   tau(  18) = (   0.0000000   0.4618802   0.0000000  )
        19           C   tau(  19) = (  -0.1000000   0.5196152   0.0000000  )
        20           C   tau(  20) = (  -0.1000000   0.6350853   0.0000000  )
        21           C   tau(  21) = (  -0.2000000   0.6928203   0.0000000  )
        22           C   tau(  22) = (  -0.2000000   0.8082904   0.0000000  )
        23           C   tau(  23) = (   0.4000000   0.0000000   0.0000000  )
        24           C   tau(  24) = (   0.4000000   0.1154701   0.0000000  )
        25           C   tau(  25) = (   0.3000000   0.1732051   0.0000000  )
        26           C   tau(  26) = (   0.3000000   0.2886751   0.0000000  )
        27           C   tau(  27) = (   0.2000000   0.3464102   0.0000000  )
        28           Cr  tau(  28) = (   0.2000000   0.4618802   0.0000000  )
        29           C   tau(  29) = (   0.1000000   0.5196152   0.0000000  )
        30           C   tau(  30) = (   0.1000000   0.6350853   0.0000000  )
        31           C   tau(  31) = (   0.0000000   0.6928203   0.0000000  )
        32           C   tau(  32) = (   0.0000000   0.8082904   0.0000000  )
        33           C   tau(  33) = (   0.6000000   0.0000000   0.0000000  )
        34           C   tau(  34) = (   0.6000000   0.1154701   0.0000000  )
        35           C   tau(  35) = (   0.5000000   0.1732051   0.0000000  )
        36           C   tau(  36) = (   0.5000000   0.2886751   0.0000000  )
        37           C   tau(  37) = (   0.4000000   0.3464102   0.0000000  )
        38           C   tau(  38) = (   0.4000000   0.4618802   0.0000000  )
        39           C   tau(  39) = (   0.3000000   0.5196152   0.0000000  )
        40           C   tau(  40) = (   0.3000000   0.6350853   0.0000000  )
        41           C   tau(  41) = (   0.2000000   0.6928203   0.0000000  )
        42           C   tau(  42) = (   0.2000000   0.8082904   0.0000000  )
        43           C   tau(  43) = (   0.8000000   0.0000000   0.0000000  )
        44           C   tau(  44) = (   0.8000000   0.1154701   0.0000000  )
        45           C   tau(  45) = (   0.7000000   0.1732051   0.0000000  )
        46           C   tau(  46) = (   0.7000000   0.2886751   0.0000000  )
        47           C   tau(  47) = (   0.6000000   0.3464102   0.0000000  )
        48           C   tau(  48) = (   0.6000000   0.4618802   0.0000000  )
        49           C   tau(  49) = (   0.5000000   0.5196152   0.0000000  )
        50           C   tau(  50) = (   0.5000000   0.6350853   0.0000000  )
        51           C   tau(  51) = (   0.4000000   0.6928203   0.0000000  )
        52           C   tau(  52) = (   0.4000000   0.8082904   0.0000000  )

   Crystallographic axes

     site n.     atom                  positions (cryst. coord.)
         1           H   tau(   1) = (  0.4666667  0.5333333  0.2200000  )
         2           H   tau(   2) = (  0.4666667  0.5333333  0.2952072  )
         3           C   tau(   3) = (  0.0000000  0.0000000  0.0000000  )
         4           C   tau(   4) = (  0.0666667  0.1333333  0.0000000  )
         5           C   tau(   5) = (  0.0000000  0.2000000  0.0000000  )
         6           C   tau(   6) = (  0.0666667  0.3333333  0.0000000  )
         7           C   tau(   7) = (  0.0000000  0.4000000  0.0000000  )
         8           C   tau(   8) = (  0.0666667  0.5333333  0.0000000  )
         9           C   tau(   9) = (  0.0000000  0.6000000  0.0000000  )
        10           C   tau(  10) = (  0.0666667  0.7333333  0.0000000  )
        11           C   tau(  11) = (  0.0000000  0.8000000  0.0000000  )
        12           C   tau(  12) = (  0.0666667  0.9333333  0.0000000  )
        13           C   tau(  13) = (  0.2000000  0.0000000  0.0000000  )
        14           C   tau(  14) = (  0.2666667  0.1333333  0.0000000  )
        15           C   tau(  15) = (  0.2000000  0.2000000  0.0000000  )
        16           C   tau(  16) = (  0.2666667  0.3333333  0.0000000  )
        17           C   tau(  17) = (  0.2000000  0.4000000  0.0000000  )
        18           C   tau(  18) = (  0.2666667  0.5333333  0.0000000  )
        19           C   tau(  19) = (  0.2000000  0.6000000  0.0000000  )
        20           C   tau(  20) = (  0.2666667  0.7333333  0.0000000  )
        21           C   tau(  21) = (  0.2000000  0.8000000  0.0000000  )
        22           C   tau(  22) = (  0.2666667  0.9333333  0.0000000  )
        23           C   tau(  23) = (  0.4000000  0.0000000  0.0000000  )
        24           C   tau(  24) = (  0.4666667  0.1333333  0.0000000  )
        25           C   tau(  25) = (  0.4000000  0.2000000  0.0000000  )
        26           C   tau(  26) = (  0.4666667  0.3333333  0.0000000  )
        27           C   tau(  27) = (  0.4000000  0.4000000  0.0000000  )
        28           Cr  tau(  28) = (  0.4666667  0.5333333  0.0000000  )
        29           C   tau(  29) = (  0.4000000  0.6000000  0.0000000  )
        30           C   tau(  30) = (  0.4666667  0.7333333  0.0000000  )
        31           C   tau(  31) = (  0.4000000  0.8000000  0.0000000  )
        32           C   tau(  32) = (  0.4666667  0.9333333  0.0000000  )
        33           C   tau(  33) = (  0.6000000  0.0000000  0.0000000  )
        34           C   tau(  34) = (  0.6666667  0.1333333  0.0000000  )
        35           C   tau(  35) = (  0.6000000  0.2000000  0.0000000  )
        36           C   tau(  36) = (  0.6666667  0.3333333  0.0000000  )
        37           C   tau(  37) = (  0.6000000  0.4000000  0.0000000  )
        38           C   tau(  38) = (  0.6666667  0.5333333  0.0000000  )
        39           C   tau(  39) = (  0.6000000  0.6000000  0.0000000  )
        40           C   tau(  40) = (  0.6666667  0.7333333  0.0000000  )
        41           C   tau(  41) = (  0.6000000  0.8000000  0.0000000  )
        42           C   tau(  42) = (  0.6666667  0.9333333  0.0000000  )
        43           C   tau(  43) = (  0.8000000  0.0000000  0.0000000  )
        44           C   tau(  44) = (  0.8666667  0.1333333  0.0000000  )
        45           C   tau(  45) = (  0.8000000  0.2000000  0.0000000  )
        46           C   tau(  46) = (  0.8666667  0.3333333  0.0000000  )
        47           C   tau(  47) = (  0.8000000  0.4000000  0.0000000  )
        48           C   tau(  48) = (  0.8666667  0.5333333  0.0000000  )
        49           C   tau(  49) = (  0.8000000  0.6000000  0.0000000  )
        50           C   tau(  50) = (  0.8666667  0.7333333  0.0000000  )
        51           C   tau(  51) = (  0.8000000  0.8000000  0.0000000  )
        52           C   tau(  52) = (  0.8666667  0.9333333  0.0000000  )

     number of k points=     1  Marzari-Vanderbilt smearing, width (Ry)=  0.0010
                       cart. coord. in units 2pi/alat
        k(    1) = (   0.0000000   0.0000000   0.0000000), wk =   2.0000000

                       cryst. coord.
        k(    1) = (   0.0000000   0.0000000   0.0000000), wk =   2.0000000

     Dense  grid:  1626001 G-vectors     FFT dimensions: ( 180, 180, 135)

     Smooth grid:   702581 G-vectors     FFT dimensions: ( 125, 125, 108)

     Dynamical RAM for                 wfc:      28.36 MB

     Dynamical RAM for     wfc (w. buffer):      28.36 MB

     Dynamical RAM for           str. fact:      12.41 MB

     Dynamical RAM for           local pot:       0.00 MB

     Dynamical RAM for          nlocal pot:      92.46 MB

     Dynamical RAM for                qrad:      19.73 MB

     Dynamical RAM for          rho,v,vnew:      29.46 MB

     Dynamical RAM for               rhoin:       9.82 MB

     Dynamical RAM for            rho*nmix:      66.16 MB

     Dynamical RAM for           G-vectors:      16.40 MB

     Dynamical RAM for          h,s,v(r/c):      11.81 MB

     Dynamical RAM for          <psi|beta>:       0.80 MB

     Dynamical RAM for                 psi:     113.46 MB

     Dynamical RAM for                hpsi:     113.46 MB

     Dynamical RAM for                spsi:     113.46 MB

     Dynamical RAM for      wfcinit/wfcrot:      93.90 MB

     Dynamical RAM for           addusdens:     971.75 MB

     Estimated static dynamical RAM per process >     319.78 MB

     Estimated max dynamical RAM per process >       1.26 GB

     Estimated total dynamical RAM >       7.57 GB

     Check: negative core charge=   -0.000002

     Initial potential from superposition of free atoms

     starting charge  211.80478, renormalised to  212.00000

     negative rho (up, down):  5.488E-04 0.000E+00


---------------------------------------------------------------------------------
Carrying out rVV10 run using the following parameters:
Nqs =      20    Nr_points =    1024   r_max =   100.000
b_value =  6.30000    beta =  0.00901
     q_mesh =  0.00010000  0.00030000  0.00058939  0.00100810
               0.00161396  0.00249058  0.00375900  0.00559430
               0.00824984  0.01209221  0.01765183  0.02569619
               0.03733578  0.05417739  0.07854596  0.11380545
               0.16482331  0.23864234  0.34545298  0.50000000

Gradients computed in Reciprocal space

---------------------------------------------------------------------------------


     Starting wfcs are  208 randomized atomic wfcs

     total cpu time spent up to now is       53.6 secs

     Self-consistent Calculation

     iteration #  1     ecut=    70.00 Ry     beta= 0.70
     Davidson diagonalization with overlap
     ethr =  1.00E-02,  avg # of iterations =  2.0

     negative rho (up, down):  9.449E-04 0.000E+00

     total cpu time spent up to now is      118.4 secs

     total energy              =    -782.46789846 Ry
     Harris-Foulkes estimate   =    -790.17268264 Ry
     estimated scf accuracy    <      10.70253487 Ry

     iteration #  2     ecut=    70.00 Ry     beta= 0.70
     Davidson diagonalization with overlap
     ethr =  5.05E-03,  avg # of iterations =  7.0

     negative rho (up, down):  1.076E-03 0.000E+00

     total cpu time spent up to now is      182.5 secs

     total energy              =    -776.17478231 Ry
     Harris-Foulkes estimate   =    -801.03027573 Ry
     estimated scf accuracy    <      91.60431990 Ry

     iteration #  3     ecut=    70.00 Ry     beta= 0.70
     Davidson diagonalization with overlap
     ethr =  5.05E-03,  avg # of iterations =  5.0

     negative rho (up, down):  1.196E-03 0.000E+00

     total cpu time spent up to now is      266.6 secs

     total energy              =    -785.65449168 Ry
     Harris-Foulkes estimate   =    -787.82224206 Ry
     estimated scf accuracy    <       7.35737817 Ry

     iteration #  4     ecut=    70.00 Ry     beta= 0.70
     Davidson diagonalization with overlap
     ethr =  3.47E-03,  avg # of iterations =  3.0

     negative rho (up, down):  1.580E-03 0.000E+00

     total cpu time spent up to now is      319.3 secs

     total energy              =    -786.63879209 Ry
     Harris-Foulkes estimate   =    -787.29244668 Ry
     estimated scf accuracy    <       1.66683278 Ry

     iteration #  5     ecut=    70.00 Ry     beta= 0.70
     Davidson diagonalization with overlap
     ethr =  7.86E-04,  avg # of iterations =  4.0

     negative rho (up, down):  1.781E-03 0.000E+00

     total cpu time spent up to now is      372.4 secs

     total energy              =    -786.94664660 Ry
     Harris-Foulkes estimate   =    -787.00707908 Ry
     estimated scf accuracy    <       0.40103710 Ry

     iteration #  6     ecut=    70.00 Ry     beta= 0.70
     Davidson diagonalization with overlap
     ethr =  1.89E-04,  avg # of iterations =  3.0

     negative rho (up, down):  1.873E-03 0.000E+00

     total cpu time spent up to now is      420.8 secs

     total energy              =    -786.93409514 Ry
     Harris-Foulkes estimate   =    -786.97614622 Ry
     estimated scf accuracy    <       0.20768053 Ry

     iteration #  7     ecut=    70.00 Ry     beta= 0.70
     Davidson diagonalization with overlap
     ethr =  9.80E-05,  avg # of iterations =  8.0

     negative rho (up, down):  2.012E-03 0.000E+00

     total cpu time spent up to now is      471.6 secs

     total energy              =    -786.94775008 Ry
     Harris-Foulkes estimate   =    -786.97177377 Ry
     estimated scf accuracy    <       0.14824457 Ry

     iteration #  8     ecut=    70.00 Ry     beta= 0.70
     Davidson diagonalization with overlap
     ethr =  6.99E-05,  avg # of iterations =  2.0

     negative rho (up, down):  2.614E-03 0.000E+00

     total cpu time spent up to now is      520.0 secs

     total energy              =    -786.94286795 Ry
     Harris-Foulkes estimate   =    -786.95587471 Ry
     estimated scf accuracy    <       0.08081610 Ry

     iteration #  9     ecut=    70.00 Ry     beta= 0.70
     Davidson diagonalization with overlap
     ethr =  3.81E-05,  avg # of iterations =  3.0

     negative rho (up, down):  2.830E-03 0.000E+00

     total cpu time spent up to now is      568.7 secs

     total energy              =    -786.94839629 Ry
     Harris-Foulkes estimate   =    -786.95140900 Ry
     estimated scf accuracy    <       0.01624771 Ry

     iteration # 10     ecut=    70.00 Ry     beta= 0.70
     Davidson diagonalization with overlap
     ethr =  7.66E-06,  avg # of iterations =  6.0

     negative rho (up, down):  2.783E-03 0.000E+00

     total cpu time spent up to now is      621.4 secs

     total energy              =    -786.94937506 Ry
     Harris-Foulkes estimate   =    -786.95043311 Ry
     estimated scf accuracy    <       0.00535212 Ry

     iteration # 11     ecut=    70.00 Ry     beta= 0.70
     Davidson diagonalization with overlap
     ethr =  2.52E-06,  avg # of iterations =  3.0

     negative rho (up, down):  2.763E-03 0.000E+00

     total cpu time spent up to now is      671.1 secs

     total energy              =    -786.94962395 Ry
     Harris-Foulkes estimate   =    -786.94991227 Ry
     estimated scf accuracy    <       0.00242603 Ry

     iteration # 12     ecut=    70.00 Ry     beta= 0.70
     Davidson diagonalization with overlap
     ethr =  1.14E-06,  avg # of iterations =  3.0

     negative rho (up, down):  2.792E-03 0.000E+00

     total cpu time spent up to now is      720.2 secs

     total energy              =    -786.94979082 Ry
     Harris-Foulkes estimate   =    -786.94986084 Ry
     estimated scf accuracy    <       0.00121103 Ry

     iteration # 13     ecut=    70.00 Ry     beta= 0.70
     Davidson diagonalization with overlap
     ethr =  5.71E-07,  avg # of iterations =  1.0

     negative rho (up, down):  2.802E-03 0.000E+00

     total cpu time spent up to now is      768.1 secs

     total energy              =    -786.94983677 Ry
     Harris-Foulkes estimate   =    -786.94984861 Ry
     estimated scf accuracy    <       0.00015648 Ry

     iteration # 14     ecut=    70.00 Ry     beta= 0.70
     Davidson diagonalization with overlap
     ethr =  7.38E-08,  avg # of iterations =  3.0

     negative rho (up, down):  2.809E-03 0.000E+00

     total cpu time spent up to now is      817.1 secs

     total energy              =    -786.94985754 Ry
     Harris-Foulkes estimate   =    -786.94985242 Ry
     estimated scf accuracy    <       0.00003975 Ry

     iteration # 15     ecut=    70.00 Ry     beta= 0.70
     Davidson diagonalization with overlap
     ethr =  1.87E-08,  avg # of iterations =  2.0

     negative rho (up, down):  2.810E-03 0.000E+00

     total cpu time spent up to now is      867.3 secs

     total energy              =    -786.94986698 Ry
     Harris-Foulkes estimate   =    -786.94986341 Ry
     estimated scf accuracy    <       0.00003085 Ry

     iteration # 16     ecut=    70.00 Ry     beta= 0.70
     Davidson diagonalization with overlap
     ethr =  1.46E-08,  avg # of iterations =  2.0

     negative rho (up, down):  2.816E-03 0.000E+00

     total cpu time spent up to now is      917.5 secs

     total energy              =    -786.94987318 Ry
     Harris-Foulkes estimate   =    -786.94987193 Ry
     estimated scf accuracy    <       0.00005206 Ry

     iteration # 17     ecut=    70.00 Ry     beta= 0.70
     Davidson diagonalization with overlap
     ethr =  1.46E-08,  avg # of iterations =  3.0

     negative rho (up, down):  2.818E-03 0.000E+00

     total cpu time spent up to now is      971.8 secs

     total energy              =    -786.94988327 Ry
     Harris-Foulkes estimate   =    -786.94988351 Ry
     estimated scf accuracy    <       0.00001474 Ry

     iteration # 18     ecut=    70.00 Ry     beta= 0.70
     Davidson diagonalization with overlap
     ethr =  6.95E-09,  avg # of iterations =  3.0

     negative rho (up, down):  2.821E-03 0.000E+00

     total cpu time spent up to now is     1024.8 secs

     total energy              =    -786.94989213 Ry
     Harris-Foulkes estimate   =    -786.94989273 Ry
     estimated scf accuracy    <       0.00000179 Ry

     iteration # 19     ecut=    70.00 Ry     beta= 0.70
     Davidson diagonalization with overlap
     ethr =  8.44E-10,  avg # of iterations =  4.0

     negative rho (up, down):  2.823E-03 0.000E+00

     total cpu time spent up to now is     1084.7 secs

     total energy              =    -786.94989547 Ry
     Harris-Foulkes estimate   =    -786.94989731 Ry
     estimated scf accuracy    <       0.00000244 Ry

     iteration # 20     ecut=    70.00 Ry     beta= 0.70
     Davidson diagonalization with overlap
     ethr =  8.44E-10,  avg # of iterations =  4.0

     negative rho (up, down):  2.826E-03 0.000E+00

     total cpu time spent up to now is     1142.3 secs

     End of self-consistent calculation

          k = 0.0000 0.0000 0.0000 ( 87777 PWs)   bands (ev):

   -71.7720 -44.0716 -44.0715 -42.9505 -19.6031 -18.7632 -18.7632 -18.6727
   -18.6724 -18.6723 -18.2960 -16.9165 -16.9164 -16.9121 -16.8043 -16.8042
   -16.5053 -16.0623 -16.0623 -15.9645 -15.8806 -15.8806 -15.1671 -13.9223
   -13.9223 -13.8817 -13.8344 -13.8344 -13.1705 -12.9075 -12.9074 -12.8785
   -12.5522 -12.5521 -12.1154 -11.6661 -11.6661 -11.5030 -11.1955 -11.1955
   -10.2340  -9.4434  -9.4434  -9.2846  -9.1541  -9.1541  -9.0634  -9.0322
    -9.0322  -9.0212  -8.5038  -8.5038  -8.1868  -7.9583  -7.9583  -7.8573
    -7.6923  -7.6715  -7.2526  -7.2526  -6.9990  -6.9989  -6.9401  -6.6685
    -6.6685  -6.6602  -6.6601  -6.6316  -6.5610  -6.4004  -6.4004  -6.3735
    -6.3686  -6.3686  -6.3202  -6.2656  -5.3601  -5.3601  -5.2907  -5.2906
    -5.0253  -5.0253  -4.8246  -4.7318  -4.5787  -4.5558  -4.5557  -4.2172
    -4.2049  -4.0065  -4.0064  -3.6889  -3.6888  -3.6087  -3.5060  -3.5060
    -3.4246  -3.4246  -2.9401  -2.3997  -2.3997  -1.6884  -1.6465  -1.6465
    -0.6669  -0.5007  -0.5006  -0.3224   1.0963   1.1155   1.1155   1.7962
     1.9030   1.9030   2.3717   2.9545   2.9546   3.0170   3.3506   3.3506
     3.4221   3.6613   3.6614   3.8321   3.8322   3.8814   4.0749

     occupation numbers 
     1.0000   1.0000   1.0000   1.0000   1.0000   1.0000   1.0000   1.0000
     1.0000   1.0000   1.0000   1.0000   1.0000   1.0000   1.0000   1.0000
     1.0000   1.0000   1.0000   1.0000   1.0000   1.0000   1.0000   1.0000
     1.0000   1.0000   1.0000   1.0000   1.0000   1.0000   1.0000   1.0000
     1.0000   1.0000   1.0000   1.0000   1.0000   1.0000   1.0000   1.0000
     1.0000   1.0000   1.0000   1.0000   1.0000   1.0000   1.0000   1.0000
     1.0000   1.0000   1.0000   1.0000   1.0000   1.0000   1.0000   1.0000
     1.0000   1.0000   1.0000   1.0000   1.0000   1.0000   1.0000   1.0000
     1.0000   1.0000   1.0000   1.0000   1.0000   1.0000   1.0000   1.0000
     1.0000   1.0000   1.0000   1.0000   1.0000   1.0000   1.0000   1.0000
     1.0000   1.0000   1.0000   1.0000   1.0000   1.0000   1.0000   1.0000
     1.0000   1.0000   1.0000   1.0000   1.0000   1.0000   1.0000   1.0000
     1.0000   1.0000   1.0000   1.0000   1.0000   1.0000   1.0000   1.0000
     1.0000   0.5017   0.4983   0.0000   0.0000   0.0000   0.0000   0.0000
     0.0000   0.0000   0.0000   0.0000   0.0000   0.0000   0.0000   0.0000
     0.0000   0.0000   0.0000   0.0000   0.0000   0.0000   0.0000

     the Fermi energy is    -0.4987 ev

!    total energy              =    -786.94989897 Ry
     Harris-Foulkes estimate   =    -786.94989958 Ry
     estimated scf accuracy    <       0.00000078 Ry

     The total energy is the sum of the following terms:

     one-electron contribution =   -2659.91940810 Ry
     hartree contribution      =    1375.81660399 Ry
     xc contribution           =    -254.35490905 Ry
     ewald contribution        =     751.50847054 Ry
     smearing contrib. (-TS)   =      -0.00065636 Ry

     convergence has been achieved in  20 iterations

     Writing output data file gr-12.save/

     init_run     :     51.34s CPU     52.55s WALL (       1 calls)
     electrons    :   1056.83s CPU   1088.75s WALL (       1 calls)

     Called by init_run:
     wfcinit      :     20.40s CPU     20.58s WALL (       1 calls)
     wfcinit:atom :      0.03s CPU      0.05s WALL (       1 calls)
     wfcinit:wfcr :     20.21s CPU     20.34s WALL (       1 calls)
     potinit      :     13.86s CPU     14.26s WALL (       1 calls)
     hinit0       :     12.43s CPU     12.49s WALL (       1 calls)

     Called by electrons:
     c_bands      :    651.50s CPU    655.56s WALL (      20 calls)
     sum_band     :    200.42s CPU    211.05s WALL (      20 calls)
     v_of_rho     :    125.71s CPU    133.24s WALL (      21 calls)
     v_h          :      1.46s CPU      1.50s WALL (      21 calls)
     v_xc         :    124.26s CPU    131.74s WALL (      21 calls)
     newd         :     83.06s CPU     93.53s WALL (      21 calls)
     mix_rho      :      3.80s CPU      3.88s WALL (      20 calls)

     Called by c_bands:
     init_us_2    :      1.75s CPU      1.78s WALL (      41 calls)
     cegterg      :    646.71s CPU    650.75s WALL (      20 calls)

     Called by sum_band:
     sum_band:bec :      0.02s CPU      0.02s WALL (      20 calls)
     addusdens    :    124.26s CPU    134.31s WALL (      20 calls)

     Called by *egterg:
     h_psi        :    341.62s CPU    344.40s WALL (      92 calls)
     s_psi        :    115.63s CPU    115.71s WALL (      92 calls)
     g_psi        :      0.38s CPU      0.38s WALL (      71 calls)
     cdiaghg      :      6.46s CPU      6.47s WALL (      91 calls)
     cegterg:over :     81.28s CPU     81.43s WALL (      71 calls)
     cegterg:upda :     52.08s CPU     52.47s WALL (      71 calls)
     cegterg:last :     32.94s CPU     32.96s WALL (      20 calls)

     Called by h_psi:
     h_psi:pot    :    341.26s CPU    343.57s WALL (      92 calls)
     h_psi:calbec :    115.48s CPU    115.63s WALL (      92 calls)
     vloc_psi     :    109.99s CPU    112.07s WALL (      92 calls)
     add_vuspsi   :    115.79s CPU    115.87s WALL (      92 calls)

     General routines
     calbec       :    162.57s CPU    162.76s WALL (     112 calls)
     fft          :     69.87s CPU     72.54s WALL (    1321 calls)
     ffts         :      0.69s CPU      0.72s WALL (      41 calls)
     fftw         :    114.97s CPU    117.15s WALL (   15022 calls)
     interpolate  :      1.75s CPU      1.77s WALL (      21 calls)

     Parallel routines
     fft_scatt_xy :     31.90s CPU     32.35s WALL (   16384 calls)
     fft_scatt_yz :     61.70s CPU     65.15s WALL (   16384 calls)

     PWSCF        :  18m29.35s CPU  19m 2.75s WALL


   This run was terminated on:   3:47:57  20Jul2022            

=------------------------------------------------------------------------------=
   JOB DONE.
=------------------------------------------------------------------------------=
