
     Program PWSCF v.6.4.1 starts on 17Mar2022 at 19: 3:36 

     This program is part of the open-source Quantum ESPRESSO suite
     for quantum simulation of materials; please cite
         "P. Giannozzi et al., J. Phys.:Condens. Matter 21 395502 (2009);
         "P. Giannozzi et al., J. Phys.:Condens. Matter 29 465901 (2017);
          URL http://www.quantum-espresso.org", 
     in publications or presentations arising from this work. More details at
     http://www.quantum-espresso.org/quote

     Parallel version (MPI), running on     6 processors

     MPI processes distributed on     1 nodes
     R & G space division:  proc/nbgrp/npool/nimage =       6
     Reading input from cu-10.in
Warning: card CU1   63.546    CU.PBE-DN-RRKJUS_PSL.1.0.0.UPF ignored
Warning: card CU2   63.546    CU.PBE-DN-RRKJUS_PSL.1.0.0.UPF ignored

     Current dimensions of program PWSCF are:
     Max number of different atomic species (ntypx) = 10
     Max number of k-points (npk) =  40000
     Max angular momentum in pseudopotentials (lmaxx) =  3
               file Cu.pbe-dn-rrkjus_psl.1.0.0.UPF: wavefunction(s)  3D renormalized
               file Cu.pbe-dn-rrkjus_psl.1.0.0.UPF: wavefunction(s)  3D renormalized

     Subspace diagonalization in iterative solution of the eigenvalue problem:
     a serial algorithm will be used

     Found symmetry operation: I + (  0.0000 -0.5000 -0.5000)
     This is a supercell, fractional translations are disabled
     Message from routine setup:
     DEPRECATED: symmetry with ibrav=0, use correct ibrav instead

     Parallelization info
     --------------------
     sticks:   dense  smooth     PW     G-vecs:    dense   smooth      PW
     Min          24      24      9                  226      226      50
     Max          25      25     11                  227      227      51
     Sum         145     145     57                 1357     1357     305



     bravais-lattice index     =            0
     lattice parameter (alat)  =       6.8219  a.u.
     unit-cell volume          =     317.4813 (a.u.)^3
     number of atoms/cell      =            4
     number of atomic types    =            2
     number of electrons       =        44.00
     number of Kohn-Sham states=           26
     kinetic-energy cutoff     =      10.0000  Ry
     charge density cutoff     =      40.0000  Ry
     convergence threshold     =      1.0E-06
     mixing beta               =       0.7000
     number of iterations used =            8  plain     mixing
     Exchange-correlation      = PBE ( 1  4  3  4 0 0)

     celldm(1)=   6.821911  celldm(2)=   0.000000  celldm(3)=   0.000000
     celldm(4)=   0.000000  celldm(5)=   0.000000  celldm(6)=   0.000000

     crystal axes: (cart. coord. in units of alat)
               a(1) = (   1.000000   0.000000   0.000000 )  
               a(2) = (   0.000000   1.000000   0.000000 )  
               a(3) = (   0.000000   0.000000   1.000000 )  

     reciprocal axes: (cart. coord. in units 2 pi/alat)
               b(1) = (  1.000000  0.000000  0.000000 )  
               b(2) = (  0.000000  1.000000  0.000000 )  
               b(3) = (  0.000000  0.000000  1.000000 )  


     PseudoPot. # 1 for Cu read from file:
     /home/cristian/Escritorio/Proyecto_Grafeno/pseudopotenciales/Cu.pbe-dn-rrkjus_psl.1.0.0.UPF
     MD5 check sum: ba3d6c84e19846e79d48cdc68ff7152b
     Pseudo is Ultrasoft + core correction, Zval = 11.0
     Generated using "atomic" code by A. Dal Corso v.6.3
     Using radial grid of 1199 points,  6 beta functions with: 
                l(1) =   0
                l(2) =   0
                l(3) =   1
                l(4) =   1
                l(5) =   2
                l(6) =   2
     Q(r) pseudized with 0 coefficients 


     PseudoPot. # 2 for Cu read from file:
     /home/cristian/Escritorio/Proyecto_Grafeno/pseudopotenciales/Cu.pbe-dn-rrkjus_psl.1.0.0.UPF
     MD5 check sum: ba3d6c84e19846e79d48cdc68ff7152b
     Pseudo is Ultrasoft + core correction, Zval = 11.0
     Generated using "atomic" code by A. Dal Corso v.6.3
     Using radial grid of 1199 points,  6 beta functions with: 
                l(1) =   0
                l(2) =   0
                l(3) =   1
                l(4) =   1
                l(5) =   2
                l(6) =   2
     Q(r) pseudized with 0 coefficients 


     atomic species   valence    mass     pseudopotential
        Cu1           11.00    63.54600     Cu( 1.00)
        Cu2           11.00    63.54600     Cu( 1.00)

     Starting magnetic structure 
     atomic species   magnetization
        Cu1          0.100
        Cu2         -0.100

     16 Sym. Ops., with inversion, found



   Cartesian axes

     site n.     atom                  positions (alat units)
         1           Cu1 tau(   1) = (   0.0000000   0.0000000   0.0000000  )
         2           Cu2 tau(   2) = (   0.5000000   0.5000000   0.0000000  )
         3           Cu1 tau(   3) = (   0.0000000   0.5000000   0.5000000  )
         4           Cu2 tau(   4) = (   0.5000000   0.0000000   0.5000000  )

     number of k points=    40  Methfessel-Paxton smearing, width (Ry)=  0.0300
                       cart. coord. in units 2pi/alat
        k(    1) = (   0.0625000   0.0625000   0.0625000), wk =   0.0156250
        k(    2) = (   0.0625000   0.0625000   0.1875000), wk =   0.0312500
        k(    3) = (   0.0625000   0.0625000   0.3125000), wk =   0.0312500
        k(    4) = (   0.0625000   0.0625000   0.4375000), wk =   0.0312500
        k(    5) = (   0.0625000   0.1875000   0.1875000), wk =   0.0156250
        k(    6) = (   0.0625000   0.1875000   0.3125000), wk =   0.0312500
        k(    7) = (   0.0625000   0.1875000   0.4375000), wk =   0.0312500
        k(    8) = (   0.0625000   0.3125000   0.3125000), wk =   0.0156250
        k(    9) = (   0.0625000   0.3125000   0.4375000), wk =   0.0312500
        k(   10) = (   0.0625000   0.4375000   0.4375000), wk =   0.0156250
        k(   11) = (   0.1875000   0.1875000   0.1875000), wk =   0.0156250
        k(   12) = (   0.1875000   0.1875000   0.3125000), wk =   0.0312500
        k(   13) = (   0.1875000   0.1875000   0.4375000), wk =   0.0312500
        k(   14) = (   0.1875000   0.3125000   0.3125000), wk =   0.0156250
        k(   15) = (   0.1875000   0.3125000   0.4375000), wk =   0.0312500
        k(   16) = (   0.1875000   0.4375000   0.4375000), wk =   0.0156250
        k(   17) = (   0.3125000   0.3125000   0.3125000), wk =   0.0156250
        k(   18) = (   0.3125000   0.3125000   0.4375000), wk =   0.0312500
        k(   19) = (   0.3125000   0.4375000   0.4375000), wk =   0.0156250
        k(   20) = (   0.4375000   0.4375000   0.4375000), wk =   0.0156250
        k(   21) = (   0.1875000   0.0625000   0.0625000), wk =   0.0156250
        k(   22) = (   0.3125000   0.0625000   0.0625000), wk =   0.0156250
        k(   23) = (   0.4375000   0.0625000   0.0625000), wk =   0.0156250
        k(   24) = (   0.1875000   0.1875000   0.0625000), wk =   0.0312500
        k(   25) = (   0.1875000   0.3125000   0.0625000), wk =   0.0312500
        k(   26) = (   0.3125000   0.0625000   0.1875000), wk =   0.0312500
        k(   27) = (   0.1875000   0.4375000   0.0625000), wk =   0.0312500
        k(   28) = (   0.4375000   0.0625000   0.1875000), wk =   0.0312500
        k(   29) = (   0.3125000   0.3125000   0.0625000), wk =   0.0312500
        k(   30) = (   0.3125000   0.4375000   0.0625000), wk =   0.0312500
        k(   31) = (   0.4375000   0.0625000   0.3125000), wk =   0.0312500
        k(   32) = (   0.4375000   0.4375000   0.0625000), wk =   0.0312500
        k(   33) = (   0.3125000   0.1875000   0.1875000), wk =   0.0156250
        k(   34) = (   0.4375000   0.1875000   0.1875000), wk =   0.0156250
        k(   35) = (   0.3125000   0.3125000   0.1875000), wk =   0.0312500
        k(   36) = (   0.3125000   0.4375000   0.1875000), wk =   0.0312500
        k(   37) = (   0.4375000   0.1875000   0.3125000), wk =   0.0312500
        k(   38) = (   0.4375000   0.4375000   0.1875000), wk =   0.0312500
        k(   39) = (   0.4375000   0.3125000   0.3125000), wk =   0.0156250
        k(   40) = (   0.4375000   0.4375000   0.3125000), wk =   0.0312500

     Dense  grid:     1357 G-vectors     FFT dimensions: (  15,  15,  15)

     Estimated max dynamical RAM per process >       2.93 MB

     Estimated total dynamical RAM >      17.61 MB
     Generating pointlists ...
     new r_m :   0.2917 (alat units)  1.9898 (a.u.) for type    1
     new r_m :   0.2917 (alat units)  1.9898 (a.u.) for type    2

     Check: negative core charge=   -0.008323

     Initial potential from superposition of free atoms

     starting charge   43.99908, renormalised to   44.00000

     negative rho (up, down):  0.000E+00 5.926E-02
     Starting wfcs are   36 randomized atomic wfcs

     total cpu time spent up to now is        1.6 secs

     Self-consistent Calculation

     iteration #  1     ecut=    10.00 Ry     beta= 0.70
     Davidson diagonalization with overlap
     ethr =  1.00E-02,  avg # of iterations =  3.1

     total cpu time spent up to now is        2.6 secs

     total energy              =    -415.68084080 Ry
     Harris-Foulkes estimate   =    -470.34957416 Ry
     estimated scf accuracy    <      65.33250436 Ry

     total magnetization       =    -0.01 Bohr mag/cell
     absolute magnetization    =     0.97 Bohr mag/cell

     iteration #  2     ecut=    10.00 Ry     beta= 0.70
     Davidson diagonalization with overlap
     ethr =  1.00E-02,  avg # of iterations =  4.1

     total cpu time spent up to now is        4.1 secs

     total energy              =    -437.42326070 Ry
     Harris-Foulkes estimate   =    -439.85963911 Ry
     estimated scf accuracy    <       4.21691170 Ry

     total magnetization       =    -0.02 Bohr mag/cell
     absolute magnetization    =     0.21 Bohr mag/cell

     iteration #  3     ecut=    10.00 Ry     beta= 0.70
     Davidson diagonalization with overlap
     ethr =  9.58E-03,  avg # of iterations =  1.3

     total cpu time spent up to now is        4.6 secs

     total energy              =    -437.53960147 Ry
     Harris-Foulkes estimate   =    -437.75924792 Ry
     estimated scf accuracy    <       0.35064210 Ry

     total magnetization       =     0.01 Bohr mag/cell
     absolute magnetization    =     0.13 Bohr mag/cell

     iteration #  4     ecut=    10.00 Ry     beta= 0.70
     Davidson diagonalization with overlap
     ethr =  7.97E-04,  avg # of iterations =  3.1

     total cpu time spent up to now is        5.5 secs

     total energy              =    -437.60259393 Ry
     Harris-Foulkes estimate   =    -437.73311391 Ry
     estimated scf accuracy    <       0.30310110 Ry

     total magnetization       =    -0.00 Bohr mag/cell
     absolute magnetization    =     0.03 Bohr mag/cell

     iteration #  5     ecut=    10.00 Ry     beta= 0.70
     Davidson diagonalization with overlap
     ethr =  6.89E-04,  avg # of iterations =  2.5

     total cpu time spent up to now is        6.1 secs

     total energy              =    -437.65080037 Ry
     Harris-Foulkes estimate   =    -437.65931101 Ry
     estimated scf accuracy    <       0.01427216 Ry

     total magnetization       =     0.00 Bohr mag/cell
     absolute magnetization    =     0.01 Bohr mag/cell

     iteration #  6     ecut=    10.00 Ry     beta= 0.70
     Davidson diagonalization with overlap
     ethr =  3.24E-05,  avg # of iterations =  3.4

     total cpu time spent up to now is        7.0 secs

     total energy              =    -437.65286153 Ry
     Harris-Foulkes estimate   =    -437.65357938 Ry
     estimated scf accuracy    <       0.00113835 Ry

     total magnetization       =     0.00 Bohr mag/cell
     absolute magnetization    =     0.01 Bohr mag/cell

     iteration #  7     ecut=    10.00 Ry     beta= 0.70
     Davidson diagonalization with overlap
     ethr =  2.59E-06,  avg # of iterations =  2.8

     total cpu time spent up to now is        7.8 secs

     total energy              =    -437.65307481 Ry
     Harris-Foulkes estimate   =    -437.65311035 Ry
     estimated scf accuracy    <       0.00009452 Ry

     total magnetization       =     0.00 Bohr mag/cell
     absolute magnetization    =     0.00 Bohr mag/cell

     iteration #  8     ecut=    10.00 Ry     beta= 0.70
     Davidson diagonalization with overlap
     ethr =  2.15E-07,  avg # of iterations =  2.7

     total cpu time spent up to now is        8.4 secs

     total energy              =    -437.65308490 Ry
     Harris-Foulkes estimate   =    -437.65309656 Ry
     estimated scf accuracy    <       0.00003248 Ry

     total magnetization       =     0.00 Bohr mag/cell
     absolute magnetization    =     0.00 Bohr mag/cell

     iteration #  9     ecut=    10.00 Ry     beta= 0.70
     Davidson diagonalization with overlap
     ethr =  7.38E-08,  avg # of iterations =  2.1

     total cpu time spent up to now is        9.0 secs

     total energy              =    -437.65308817 Ry
     Harris-Foulkes estimate   =    -437.65308975 Ry
     estimated scf accuracy    <       0.00000226 Ry

     total magnetization       =     0.00 Bohr mag/cell
     absolute magnetization    =     0.00 Bohr mag/cell

     iteration # 10     ecut=    10.00 Ry     beta= 0.70
     Davidson diagonalization with overlap
     ethr =  5.13E-09,  avg # of iterations =  3.1

     Magnetic moment per site:
     atom:    1    charge:    9.9033    magn:    0.0000    constr:    0.0000
     atom:    2    charge:    9.8963    magn:   -0.0000    constr:    0.0000
     atom:    3    charge:    9.8962    magn:    0.0000    constr:    0.0000
     atom:    4    charge:    9.8963    magn:   -0.0000    constr:    0.0000

     total cpu time spent up to now is        9.9 secs

     End of self-consistent calculation

 ------ SPIN UP ------------


          k = 0.0625 0.0625 0.0625 (   175 PWs)   bands (ev):

    -7.0961  -7.0961  -6.2336  -5.6533  -5.6533  -3.6824  -3.6823  -3.6823
     0.2978   0.2978   0.3779   0.7103   5.0881   5.1156   5.1157  10.8390
    10.8390  10.8499  14.1208  14.1246  14.1247  14.2500  14.2501  14.2516
    15.2600  15.2649

          k = 0.0625 0.0625 0.1875 (   170 PWs)   bands (ev):

    -4.9553  -3.5020  -3.4559  -3.4559  -3.4137  -1.8874  -1.1469   0.5581
     0.6124   0.9931   1.7271   3.5827   4.2369   4.9460   4.9649   8.2055
    10.3158  10.3208  10.8254  11.7872  14.1778  14.1841  14.4511  14.4598
    15.7545  15.7732

          k = 0.0625 0.0625 0.3125 (   169 PWs)   bands (ev):

    -4.6197  -4.2116  -3.1371  -2.4998  -1.1984  -1.1980  -0.4108  -0.4101
    -0.3497   1.8850   3.9634   3.9773   4.1570   5.8812   6.5705   7.0672
     8.6500   8.6528  10.4876  10.5375  14.0901  14.1068  14.6734  14.6759
    15.7717  15.8026

          k = 0.0625 0.0625 0.4375 (   172 PWs)   bands (ev):

    -3.8442  -2.7794  -2.7662  -2.5960  -1.8982  -1.8568   0.6010   1.3798
     1.8822   2.8308   3.4751   3.4872   3.9677   4.1459   4.7346   4.8795
     5.5650   5.7869   8.2728   8.3088  13.1575  13.1749  13.9125  13.9191
    15.5084  15.5635

          k = 0.0625 0.1875 0.1875 (   170 PWs)   bands (ev):

    -3.2911  -3.2882  -3.2776  -3.2485  -1.8681  -1.8162  -0.8489  -0.2644
     0.8502   1.4108   3.4201   4.0991   4.1204   4.8001   4.8437   7.8677
     7.8821   9.9404  10.8016  10.8051  12.6704  12.6807  14.2446  14.2857
    15.9610  17.0609

          k = 0.0625 0.1875 0.3125 (   173 PWs)   bands (ev):

    -5.0076  -3.7928  -3.2950  -2.5636  -2.2992  -1.9509  -1.7964   0.7042
     1.5977   1.6763   2.6443   3.0495   3.5849   4.2559   5.2376   5.8413
     6.8147   8.1620   8.6942  10.2800  11.1915  12.2382  13.2444  13.6905
    15.8100  16.6201

          k = 0.0625 0.1875 0.4375 (   173 PWs)   bands (ev):

    -4.8235  -4.5256  -2.4439  -2.2743  -1.9290  -1.8144  -1.2147  -0.4005
     1.0497   1.1328   3.0844   3.1351   3.9643   4.7572   4.8812   5.0383
     5.7166   7.0884   8.5231   9.3013  12.2035  12.3546  13.1507  13.6700
    16.2299  16.8583

          k = 0.0625 0.3125 0.3125 (   170 PWs)   bands (ev):

    -2.1873  -2.1098  -2.1089  -1.5682  -1.5427   0.2537   1.0101   2.4438
     2.9842   2.9928   3.1362   3.2647   3.3519   4.5518   5.9868   5.9884
     6.8628   7.4001   7.5611   7.5813  11.0150  11.0865  11.0962  12.6088
    16.6619  17.5293

          k = 0.0625 0.3125 0.4375 (   168 PWs)   bands (ev):

    -2.5537  -1.6645  -1.3220  -1.1856  -0.4177   0.1675   0.6942   2.7706
     2.7843   3.5294   4.1129   4.1198   4.2184   5.3974   5.4874   6.8350
     7.0379   7.2233   7.6717   8.1427   9.7480  10.8488  12.1927  13.1125
    16.6449  17.0107

          k = 0.0625 0.4375 0.4375 (   166 PWs)   bands (ev):

    -1.3644  -1.3575  -0.1630   0.5177   0.6338   0.6497   1.0453   2.6182
     3.3505   4.1717   4.1777   4.2110   4.8432   4.8571   6.3294   6.4103
     7.1152   8.0898   8.1122   8.7641   9.7281  10.7023  10.7108  12.3175
    17.1511  17.6733

          k = 0.1875 0.1875 0.1875 (   172 PWs)   bands (ev):

    -3.0847  -3.0846  -3.0840  -2.8306  -2.8306  -1.9560  -1.8299  -1.8299
    -1.7504   1.9014   3.9997   4.0307   4.0307   5.4753   5.4753   7.6998
     7.6999   7.7185  10.8306  10.8306  10.8327  13.2732  13.2904  13.2904
    16.0793  16.0795

          k = 0.1875 0.1875 0.3125 (   172 PWs)   bands (ev):

    -3.8922  -2.8850  -2.8223  -2.8050  -2.4749  -1.4390   0.3184   1.6688
     1.6936   2.5567   3.2297   3.2488   3.9677   4.9071   5.6726   5.6727
     5.8191   7.1479   9.3190  10.2136  10.9409  10.9429  12.5925  12.6075
    14.9884  15.0223

          k = 0.1875 0.1875 0.4375 (   173 PWs)   bands (ev):

    -4.9907  -4.6329  -2.7703  -2.7039  -1.1666  -1.1229   0.0881   0.6684
     0.6821   3.0426   3.3375   3.7644   3.7693   3.8993   5.2943   5.8412
     6.2312   7.1513   7.1539   7.2941  11.1990  11.2369  13.6102  13.6256
    15.0662  15.1120

          k = 0.1875 0.3125 0.3125 (   169 PWs)   bands (ev):

    -2.8773  -2.4055  -2.3848  -1.8607  -0.4792  -0.2456  -0.2392   0.1799
     2.4865   2.5088   2.7097   2.7656   3.5065   6.3050   6.3146   6.6020
     7.2828   7.8084  10.5848  10.5887  11.1158  12.0331  12.0369  13.0491
    14.5494  16.1968

          k = 0.1875 0.3125 0.4375 (   165 PWs)   bands (ev):

    -2.9301  -0.9666  -0.8494  -0.4417   0.1087   0.4719   1.1296   1.3728
     3.1960   3.6004   3.7926   4.5705   5.1606   5.4640   6.8020   7.2948
     7.7415   8.2033   8.6771  11.1127  11.3438  11.4951  12.7284  13.4369
    15.1361  15.1652

          k = 0.1875 0.4375 0.4375 (   164 PWs)   bands (ev):

     0.0554   0.2135   0.2187   0.3671   0.6482   0.7143   0.7265   0.7647
     2.3550   3.8063   3.8181   5.5063   5.7847   6.3947   6.4060   7.1842
     8.2902   8.7455   8.7631   9.0691  10.7312  11.7095  11.7154  12.3197
    14.5747  15.6389

          k = 0.3125 0.3125 0.3125 (   166 PWs)   bands (ev):

    -1.3767  -1.3767  -1.3254  -1.0691  -0.1079  -0.1079   2.2573   2.2880
     2.2880   2.3270   2.3270   2.3384   4.3788   6.8090   6.8091   6.8186
     8.3313   8.3313  11.0687  11.0768  11.0768  12.5336  12.5469  12.5470
    14.2217  14.2223

          k = 0.3125 0.3125 0.4375 (   169 PWs)   bands (ev):

    -3.2795  -2.9130  -2.7598  -1.5304  -0.6485  -0.6061  -0.5629   0.2517
     0.2674   2.8577   2.8646   3.7908   5.4746   6.3239   6.5445   7.4624
     7.4640   7.5866  10.3921  11.1370  11.1722  11.6590  12.7221  12.7518
    13.4029  13.4161

          k = 0.3125 0.4375 0.4375 (   165 PWs)   bands (ev):

    -2.9277  -2.2993  -2.2885  -0.2561   0.1392   0.1484   0.1679   0.1754
     0.2555   3.3683   4.1012   4.1217   6.5780   7.3859   7.3952   8.7516
     8.7720  10.5220  11.3339  11.3357  11.8698  11.8834  12.0086  12.5876
    14.0537  14.1305

          k = 0.4375 0.4375 0.4375 (   160 PWs)   bands (ev):

    -0.0612  -0.0612  -0.0584  -0.0172  -0.0172  -0.0125  -0.0116  -0.0115
     2.4838   2.5657   2.5657   2.5691   8.6343   9.4049   9.4533   9.4533
    12.4916  12.4916  12.5915  12.6214  12.6214  12.6935  12.6935  12.7157
    13.2041  13.2041

          k = 0.1875 0.0625 0.0625 (   170 PWs)   bands (ev):

    -4.9553  -3.5020  -3.4559  -3.4559  -3.4137  -1.8874  -1.1469   0.5581
     0.6124   0.9931   1.7270   3.5827   4.2369   4.9461   4.9649   8.2055
    10.3158  10.3208  10.8254  11.7871  14.1779  14.1840  14.4512  14.4598
    15.7544  15.7733

          k = 0.3125 0.0625 0.0625 (   169 PWs)   bands (ev):

    -4.6197  -4.2116  -3.1371  -2.4998  -1.1984  -1.1980  -0.4108  -0.4102
    -0.3496   1.8850   3.9634   3.9772   4.1570   5.8812   6.5705   7.0672
     8.6500   8.6528  10.4877  10.5374  14.0902  14.1067  14.6734  14.6760
    15.7717  15.8026

          k = 0.4375 0.0625 0.0625 (   172 PWs)   bands (ev):

    -3.8442  -2.7794  -2.7662  -2.5959  -1.8982  -1.8567   0.6010   1.3798
     1.8822   2.8308   3.4751   3.4872   3.9676   4.1459   4.7346   4.8795
     5.5650   5.7868   8.2728   8.3088  13.1576  13.1748  13.9126  13.9191
    15.5084  15.5635

          k = 0.1875 0.1875 0.0625 (   170 PWs)   bands (ev):

    -3.2911  -3.2882  -3.2775  -3.2485  -1.8681  -1.8162  -0.8489  -0.2644
     0.8502   1.4108   3.4201   4.0991   4.1204   4.8001   4.8437   7.8677
     7.8821   9.9404  10.8017  10.8051  12.6704  12.6807  14.2446  14.2857
    15.9610  17.0610

          k = 0.1875 0.3125 0.0625 (   173 PWs)   bands (ev):

    -5.0076  -3.7928  -3.2950  -2.5636  -2.2991  -1.9509  -1.7964   0.7042
     1.5976   1.6763   2.6443   3.0495   3.5849   4.2559   5.2376   5.8413
     6.8147   8.1620   8.6942  10.2800  11.1915  12.2382  13.2444  13.6905
    15.8101  16.6201

          k = 0.3125 0.0625 0.1875 (   173 PWs)   bands (ev):

    -5.0076  -3.7928  -3.2950  -2.5636  -2.2992  -1.9509  -1.7964   0.7042
     1.5977   1.6763   2.6443   3.0494   3.5849   4.2559   5.2376   5.8413
     6.8147   8.1620   8.6942  10.2800  11.1915  12.2382  13.2444  13.6905
    15.8101  16.6201

          k = 0.1875 0.4375 0.0625 (   173 PWs)   bands (ev):

    -4.8235  -4.5256  -2.4440  -2.2743  -1.9290  -1.8145  -1.2147  -0.4005
     1.0497   1.1328   3.0844   3.1351   3.9643   4.7572   4.8812   5.0383
     5.7166   7.0884   8.5231   9.3013  12.2035  12.3546  13.1506  13.6700
    16.2299  16.8583

          k = 0.4375 0.0625 0.1875 (   173 PWs)   bands (ev):

    -4.8234  -4.5255  -2.4439  -2.2743  -1.9290  -1.8144  -1.2147  -0.4005
     1.0497   1.1328   3.0844   3.1351   3.9643   4.7572   4.8812   5.0383
     5.7166   7.0884   8.5231   9.3013  12.2035  12.3546  13.1507  13.6700
    16.2299  16.8583

          k = 0.3125 0.3125 0.0625 (   170 PWs)   bands (ev):

    -2.1873  -2.1098  -2.1089  -1.5683  -1.5427   0.2538   1.0101   2.4438
     2.9842   2.9928   3.1362   3.2647   3.3519   4.5518   5.9868   5.9884
     6.8628   7.4001   7.5611   7.5813  11.0150  11.0866  11.0962  12.6088
    16.6619  17.5293

          k = 0.3125 0.4375 0.0625 (   168 PWs)   bands (ev):

    -2.5537  -1.6645  -1.3220  -1.1856  -0.4177   0.1675   0.6942   2.7706
     2.7843   3.5294   4.1129   4.1198   4.2184   5.3974   5.4874   6.8350
     7.0379   7.2233   7.6717   8.1427   9.7480  10.8488  12.1927  13.1125
    16.6449  17.0107

          k = 0.4375 0.0625 0.3125 (   168 PWs)   bands (ev):

    -2.5537  -1.6645  -1.3220  -1.1856  -0.4177   0.1675   0.6942   2.7706
     2.7843   3.5294   4.1129   4.1198   4.2184   5.3973   5.4874   6.8350
     7.0379   7.2233   7.6717   8.1427   9.7480  10.8488  12.1927  13.1125
    16.6449  17.0107

          k = 0.4375 0.4375 0.0625 (   166 PWs)   bands (ev):

    -1.3644  -1.3575  -0.1630   0.5177   0.6338   0.6497   1.0453   2.6182
     3.3505   4.1717   4.1777   4.2110   4.8432   4.8571   6.3294   6.4103
     7.1152   8.0898   8.1121   8.7641   9.7281  10.7024  10.7107  12.3175
    17.1511  17.6733

          k = 0.3125 0.1875 0.1875 (   172 PWs)   bands (ev):

    -3.8922  -2.8850  -2.8223  -2.8050  -2.4749  -1.4390   0.3184   1.6688
     1.6937   2.5567   3.2297   3.2488   3.9677   4.9071   5.6726   5.6728
     5.8191   7.1479   9.3190  10.2136  10.9408  10.9429  12.5925  12.6075
    14.9884  15.0223

          k = 0.4375 0.1875 0.1875 (   173 PWs)   bands (ev):

    -4.9907  -4.6329  -2.7703  -2.7038  -1.1666  -1.1228   0.0881   0.6683
     0.6822   3.0426   3.3375   3.7645   3.7692   3.8993   5.2943   5.8412
     6.2312   7.1513   7.1539   7.2941  11.1990  11.2368  13.6103  13.6256
    15.0662  15.1120

          k = 0.3125 0.3125 0.1875 (   169 PWs)   bands (ev):

    -2.8773  -2.4055  -2.3848  -1.8607  -0.4792  -0.2457  -0.2391   0.1799
     2.4865   2.5088   2.7097   2.7656   3.5065   6.3050   6.3146   6.6020
     7.2828   7.8084  10.5848  10.5887  11.1158  12.0332  12.0368  13.0491
    14.5494  16.1966

          k = 0.3125 0.4375 0.1875 (   165 PWs)   bands (ev):

    -2.9301  -0.9666  -0.8494  -0.4417   0.1087   0.4719   1.1296   1.3728
     3.1960   3.6004   3.7926   4.5706   5.1606   5.4640   6.8021   7.2948
     7.7415   8.2033   8.6771  11.1127  11.3438  11.4951  12.7283  13.4369
    15.1361  15.1652

          k = 0.4375 0.1875 0.3125 (   165 PWs)   bands (ev):

    -2.9301  -0.9666  -0.8493  -0.4417   0.1087   0.4719   1.1296   1.3727
     3.1960   3.6004   3.7925   4.5706   5.1606   5.4640   6.8021   7.2948
     7.7415   8.2033   8.6771  11.1127  11.3438  11.4950  12.7284  13.4369
    15.1361  15.1652

          k = 0.4375 0.4375 0.1875 (   164 PWs)   bands (ev):

     0.0554   0.2136   0.2186   0.3671   0.6482   0.7142   0.7265   0.7647
     2.3550   3.8063   3.8181   5.5063   5.7847   6.3947   6.4060   7.1842
     8.2902   8.7456   8.7630   9.0690  10.7312  11.7096  11.7153  12.3196
    14.5747  15.6389

          k = 0.4375 0.3125 0.3125 (   169 PWs)   bands (ev):

    -3.2795  -2.9130  -2.7598  -1.5304  -0.6485  -0.6061  -0.5629   0.2517
     0.2674   2.8578   2.8646   3.7908   5.4746   6.3239   6.5445   7.4624
     7.4640   7.5866  10.3921  11.1371  11.1722  11.6590  12.7220  12.7518
    13.4029  13.4161

          k = 0.4375 0.4375 0.3125 (   165 PWs)   bands (ev):

    -2.9277  -2.2993  -2.2885  -0.2561   0.1392   0.1484   0.1679   0.1754
     0.2555   3.3683   4.1012   4.1217   6.5780   7.3859   7.3952   8.7515
     8.7720  10.5220  11.3339  11.3358  11.8698  11.8834  12.0086  12.5876
    14.0538  14.1305

 ------ SPIN DOWN ----------


          k = 0.0625 0.0625 0.0625 (   175 PWs)   bands (ev):

    -7.0961  -7.0961  -6.2336  -5.6533  -5.6533  -3.6824  -3.6823  -3.6823
     0.2978   0.2979   0.3778   0.7103   5.0880   5.1156   5.1157  10.8390
    10.8390  10.8500  14.1208  14.1246  14.1247  14.2500  14.2501  14.2517
    15.2600  15.2648

          k = 0.0625 0.0625 0.1875 (   170 PWs)   bands (ev):

    -4.9553  -3.5020  -3.4559  -3.4559  -3.4137  -1.8874  -1.1469   0.5581
     0.6124   0.9931   1.7271   3.5827   4.2369   4.9460   4.9649   8.2055
    10.3158  10.3208  10.8254  11.7872  14.1778  14.1841  14.4511  14.4598
    15.7545  15.7732

          k = 0.0625 0.0625 0.3125 (   169 PWs)   bands (ev):

    -4.6197  -4.2116  -3.1371  -2.4997  -1.1984  -1.1980  -0.4108  -0.4101
    -0.3497   1.8850   3.9634   3.9773   4.1570   5.8812   6.5705   7.0672
     8.6500   8.6528  10.4877  10.5375  14.0901  14.1068  14.6734  14.6759
    15.7717  15.8026

          k = 0.0625 0.0625 0.4375 (   172 PWs)   bands (ev):

    -3.8442  -2.7794  -2.7662  -2.5959  -1.8982  -1.8568   0.6010   1.3798
     1.8822   2.8308   3.4751   3.4872   3.9677   4.1459   4.7346   4.8795
     5.5650   5.7869   8.2728   8.3088  13.1575  13.1749  13.9125  13.9191
    15.5084  15.5635

          k = 0.0625 0.1875 0.1875 (   170 PWs)   bands (ev):

    -3.2911  -3.2882  -3.2775  -3.2485  -1.8680  -1.8162  -0.8489  -0.2644
     0.8502   1.4108   3.4201   4.0990   4.1204   4.8002   4.8436   7.8676
     7.8822   9.9404  10.8017  10.8051  12.6705  12.6806  14.2446  14.2857
    15.9610  17.0610

          k = 0.0625 0.1875 0.3125 (   173 PWs)   bands (ev):

    -5.0076  -3.7928  -3.2950  -2.5636  -2.2991  -1.9509  -1.7964   0.7042
     1.5977   1.6763   2.6443   3.0495   3.5849   4.2559   5.2376   5.8413
     6.8147   8.1620   8.6942  10.2800  11.1915  12.2382  13.2444  13.6905
    15.8101  16.6201

          k = 0.0625 0.1875 0.4375 (   173 PWs)   bands (ev):

    -4.8234  -4.5256  -2.4439  -2.2743  -1.9290  -1.8144  -1.2147  -0.4005
     1.0497   1.1328   3.0844   3.1351   3.9643   4.7572   4.8812   5.0383
     5.7166   7.0884   8.5232   9.3013  12.2035  12.3546  13.1507  13.6700
    16.2299  16.8583

          k = 0.0625 0.3125 0.3125 (   170 PWs)   bands (ev):

    -2.1873  -2.1098  -2.1089  -1.5683  -1.5427   0.2538   1.0101   2.4438
     2.9842   2.9928   3.1362   3.2647   3.3519   4.5518   5.9868   5.9884
     6.8628   7.4001   7.5611   7.5813  11.0150  11.0867  11.0961  12.6088
    16.6619  17.5293

          k = 0.0625 0.3125 0.4375 (   168 PWs)   bands (ev):

    -2.5537  -1.6645  -1.3220  -1.1856  -0.4177   0.1675   0.6942   2.7706
     2.7843   3.5294   4.1129   4.1198   4.2184   5.3974   5.4874   6.8350
     7.0379   7.2233   7.6717   8.1427   9.7480  10.8488  12.1927  13.1125
    16.6449  17.0107

          k = 0.0625 0.4375 0.4375 (   166 PWs)   bands (ev):

    -1.3643  -1.3576  -0.1630   0.5177   0.6338   0.6497   1.0453   2.6182
     3.3505   4.1716   4.1777   4.2110   4.8432   4.8572   6.3294   6.4103
     7.1152   8.0899   8.1121   8.7641   9.7281  10.7025  10.7106  12.3175
    17.1511  17.6733

          k = 0.1875 0.1875 0.1875 (   172 PWs)   bands (ev):

    -3.0846  -3.0846  -3.0839  -2.8306  -2.8306  -1.9560  -1.8299  -1.8299
    -1.7504   1.9014   3.9997   4.0307   4.0307   5.4753   5.4753   7.6998
     7.6999   7.7186  10.8306  10.8307  10.8326  13.2733  13.2904  13.2904
    16.0430  16.0795

          k = 0.1875 0.1875 0.3125 (   172 PWs)   bands (ev):

    -3.8922  -2.8850  -2.8223  -2.8050  -2.4749  -1.4390   0.3184   1.6688
     1.6937   2.5567   3.2297   3.2489   3.9677   4.9071   5.6727   5.6727
     5.8191   7.1479   9.3190  10.2136  10.9409  10.9429  12.5925  12.6075
    14.9884  15.0223

          k = 0.1875 0.1875 0.4375 (   173 PWs)   bands (ev):

    -4.9907  -4.6329  -2.7703  -2.7038  -1.1666  -1.1228   0.0881   0.6684
     0.6821   3.0426   3.3375   3.7644   3.7693   3.8993   5.2943   5.8412
     6.2312   7.1513   7.1539   7.2941  11.1990  11.2369  13.6102  13.6256
    15.0662  15.1120

          k = 0.1875 0.3125 0.3125 (   169 PWs)   bands (ev):

    -2.8773  -2.4054  -2.3848  -1.8607  -0.4792  -0.2458  -0.2390   0.1799
     2.4866   2.5088   2.7097   2.7656   3.5065   6.3050   6.3146   6.6020
     7.2828   7.8084  10.5848  10.5888  11.1159  12.0333  12.0367  13.0491
    14.5495  16.1841

          k = 0.1875 0.3125 0.4375 (   165 PWs)   bands (ev):

    -2.9301  -0.9666  -0.8493  -0.4417   0.1087   0.4719   1.1296   1.3728
     3.1960   3.6004   3.7926   4.5706   5.1606   5.4640   6.8021   7.2948
     7.7415   8.2033   8.6771  11.1127  11.3438  11.4951  12.7284  13.4369
    15.1361  15.1652

          k = 0.1875 0.4375 0.4375 (   164 PWs)   bands (ev):

     0.0554   0.2136   0.2186   0.3671   0.6482   0.7142   0.7265   0.7647
     2.3550   3.8062   3.8182   5.5063   5.7847   6.3947   6.4060   7.1842
     8.2902   8.7456   8.7630   9.0691  10.7312  11.7097  11.7152  12.3197
    14.5747  15.6389

          k = 0.3125 0.3125 0.3125 (   166 PWs)   bands (ev):

    -1.3767  -1.3767  -1.3254  -1.0691  -0.1079  -0.1079   2.2572   2.2881
     2.2881   2.3270   2.3270   2.3384   4.3788   6.8090   6.8091   6.8187
     8.3313   8.3313  11.0686  11.0768  11.0769  12.5336  12.5469  12.5470
    14.2217  14.2217

          k = 0.3125 0.3125 0.4375 (   169 PWs)   bands (ev):

    -3.2795  -2.9130  -2.7598  -1.5304  -0.6485  -0.6061  -0.5629   0.2517
     0.2674   2.8577   2.8646   3.7908   5.4746   6.3240   6.5445   7.4624
     7.4640   7.5866  10.3921  11.1370  11.1722  11.6590  12.7221  12.7518
    13.4029  13.4162

          k = 0.3125 0.4375 0.4375 (   165 PWs)   bands (ev):

    -2.9277  -2.2993  -2.2885  -0.2561   0.1392   0.1484   0.1679   0.1753
     0.2555   3.3683   4.1012   4.1218   6.5780   7.3859   7.3952   8.7516
     8.7721  10.5221  11.3338  11.3358  11.8698  11.8834  12.0086  12.5876
    14.0537  14.1305

          k = 0.4375 0.4375 0.4375 (   160 PWs)   bands (ev):

    -0.0612  -0.0612  -0.0583  -0.0172  -0.0172  -0.0126  -0.0115  -0.0115
     2.4838   2.5657   2.5657   2.5691   8.6343   9.4049   9.4533   9.4534
    12.4916  12.4916  12.5915  12.6214  12.6215  12.6935  12.6935  12.7157
    13.2041  13.2041

          k = 0.1875 0.0625 0.0625 (   170 PWs)   bands (ev):

    -4.9553  -3.5019  -3.4559  -3.4559  -3.4137  -1.8874  -1.1469   0.5582
     0.6123   0.9931   1.7271   3.5827   4.2369   4.9460   4.9649   8.2055
    10.3158  10.3208  10.8254  11.7872  14.1777  14.1842  14.4511  14.4599
    15.7545  15.7732

          k = 0.3125 0.0625 0.0625 (   169 PWs)   bands (ev):

    -4.6197  -4.2116  -3.1371  -2.4998  -1.1984  -1.1980  -0.4108  -0.4100
    -0.3497   1.8850   3.9635   3.9772   4.1570   5.8812   6.5705   7.0672
     8.6500   8.6528  10.4876  10.5376  14.0900  14.1069  14.6735  14.6758
    15.7717  15.8026

          k = 0.4375 0.0625 0.0625 (   172 PWs)   bands (ev):

    -3.8442  -2.7794  -2.7663  -2.5959  -1.8981  -1.8568   0.6010   1.3798
     1.8822   2.8308   3.4751   3.4872   3.9676   4.1459   4.7346   4.8795
     5.5650   5.7869   8.2727   8.3089  13.1574  13.1750  13.9124  13.9193
    15.5084  15.5636

          k = 0.1875 0.1875 0.0625 (   170 PWs)   bands (ev):

    -3.2910  -3.2882  -3.2776  -3.2485  -1.8681  -1.8162  -0.8489  -0.2644
     0.8502   1.4108   3.4201   4.0991   4.1204   4.8001   4.8437   7.8677
     7.8821   9.9404  10.8017  10.8051  12.6705  12.6807  14.2446  14.2857
    15.9610  17.0610

          k = 0.1875 0.3125 0.0625 (   173 PWs)   bands (ev):

    -5.0076  -3.7928  -3.2950  -2.5636  -2.2991  -1.9509  -1.7964   0.7042
     1.5976   1.6763   2.6443   3.0495   3.5849   4.2559   5.2376   5.8413
     6.8147   8.1620   8.6942  10.2800  11.1915  12.2382  13.2444  13.6905
    15.8101  16.6201

          k = 0.3125 0.0625 0.1875 (   173 PWs)   bands (ev):

    -5.0076  -3.7928  -3.2950  -2.5636  -2.2991  -1.9509  -1.7964   0.7042
     1.5977   1.6763   2.6443   3.0494   3.5849   4.2559   5.2376   5.8413
     6.8147   8.1620   8.6942  10.2800  11.1915  12.2382  13.2444  13.6905
    15.8101  16.6201

          k = 0.1875 0.4375 0.0625 (   173 PWs)   bands (ev):

    -4.8234  -4.5256  -2.4439  -2.2743  -1.9290  -1.8144  -1.2147  -0.4005
     1.0497   1.1328   3.0844   3.1351   3.9643   4.7572   4.8812   5.0383
     5.7166   7.0884   8.5231   9.3013  12.2035  12.3546  13.1507  13.6700
    16.2299  16.8583

          k = 0.4375 0.0625 0.1875 (   173 PWs)   bands (ev):

    -4.8234  -4.5256  -2.4439  -2.2743  -1.9290  -1.8144  -1.2147  -0.4005
     1.0497   1.1328   3.0844   3.1351   3.9643   4.7572   4.8812   5.0383
     5.7166   7.0884   8.5231   9.3013  12.2035  12.3547  13.1507  13.6700
    16.2299  16.8583

          k = 0.3125 0.3125 0.0625 (   170 PWs)   bands (ev):

    -2.1873  -2.1098  -2.1089  -1.5682  -1.5427   0.2538   1.0101   2.4438
     2.9842   2.9928   3.1362   3.2647   3.3519   4.5518   5.9868   5.9884
     6.8628   7.4001   7.5611   7.5814  11.0150  11.0866  11.0962  12.6088
    16.6619  17.5293

          k = 0.3125 0.4375 0.0625 (   168 PWs)   bands (ev):

    -2.5537  -1.6645  -1.3220  -1.1856  -0.4177   0.1675   0.6942   2.7706
     2.7843   3.5294   4.1129   4.1198   4.2184   5.3974   5.4874   6.8351
     7.0379   7.2233   7.6717   8.1427   9.7480  10.8488  12.1927  13.1125
    16.6449  17.0107

          k = 0.4375 0.0625 0.3125 (   168 PWs)   bands (ev):

    -2.5537  -1.6645  -1.3220  -1.1856  -0.4177   0.1675   0.6942   2.7706
     2.7843   3.5294   4.1129   4.1198   4.2184   5.3974   5.4874   6.8351
     7.0379   7.2233   7.6717   8.1427   9.7480  10.8488  12.1927  13.1125
    16.6449  17.0107

          k = 0.4375 0.4375 0.0625 (   166 PWs)   bands (ev):

    -1.3644  -1.3575  -0.1630   0.5177   0.6338   0.6498   1.0453   2.6182
     3.3505   4.1717   4.1777   4.2110   4.8432   4.8571   6.3294   6.4103
     7.1152   8.0898   8.1121   8.7641   9.7281  10.7024  10.7107  12.3175
    17.1511  17.6733

          k = 0.3125 0.1875 0.1875 (   172 PWs)   bands (ev):

    -3.8922  -2.8850  -2.8223  -2.8050  -2.4749  -1.4390   0.3184   1.6689
     1.6936   2.5567   3.2296   3.2489   3.9677   4.9071   5.6727   5.6727
     5.8191   7.1479   9.3190  10.2136  10.9410  10.9428  12.5924  12.6075
    14.9884  15.0223

          k = 0.4375 0.1875 0.1875 (   173 PWs)   bands (ev):

    -4.9907  -4.6329  -2.7703  -2.7038  -1.1665  -1.1229   0.0881   0.6684
     0.6821   3.0426   3.3375   3.7643   3.7694   3.8994   5.2943   5.8412
     6.2312   7.1513   7.1539   7.2941  11.1989  11.2370  13.6101  13.6258
    15.0662  15.1121

          k = 0.3125 0.3125 0.1875 (   169 PWs)   bands (ev):

    -2.8773  -2.4054  -2.3848  -1.8607  -0.4792  -0.2457  -0.2391   0.1799
     2.4865   2.5088   2.7097   2.7656   3.5065   6.3050   6.3146   6.6020
     7.2828   7.8084  10.5848  10.5887  11.1159  12.0332  12.0368  13.0491
    14.5495  16.1968

          k = 0.3125 0.4375 0.1875 (   165 PWs)   bands (ev):

    -2.9301  -0.9666  -0.8493  -0.4417   0.1087   0.4719   1.1296   1.3728
     3.1960   3.6004   3.7926   4.5706   5.1606   5.4640   6.8021   7.2948
     7.7415   8.2033   8.6771  11.1127  11.3438  11.4951  12.7284  13.4369
    15.1361  15.1652

          k = 0.4375 0.1875 0.3125 (   165 PWs)   bands (ev):

    -2.9301  -0.9666  -0.8494  -0.4417   0.1087   0.4719   1.1296   1.3728
     3.1960   3.6004   3.7926   4.5706   5.1606   5.4640   6.8021   7.2948
     7.7415   8.2033   8.6771  11.1127  11.3438  11.4951  12.7284  13.4369
    15.1361  15.1653

          k = 0.4375 0.4375 0.1875 (   164 PWs)   bands (ev):

     0.0554   0.2136   0.2186   0.3671   0.6482   0.7143   0.7265   0.7647
     2.3550   3.8063   3.8182   5.5063   5.7847   6.3947   6.4060   7.1842
     8.2902   8.7456   8.7630   9.0691  10.7312  11.7096  11.7153  12.3196
    14.5747  15.6390

          k = 0.4375 0.3125 0.3125 (   169 PWs)   bands (ev):

    -3.2795  -2.9130  -2.7598  -1.5304  -0.6484  -0.6061  -0.5629   0.2517
     0.2674   2.8576   2.8647   3.7908   5.4746   6.3240   6.5445   7.4624
     7.4640   7.5866  10.3921  11.1370  11.1723  11.6590  12.7220  12.7519
    13.4028  13.4163

          k = 0.4375 0.4375 0.3125 (   165 PWs)   bands (ev):

    -2.9277  -2.2993  -2.2885  -0.2561   0.1392   0.1485   0.1679   0.1754
     0.2555   3.3683   4.1012   4.1217   6.5781   7.3859   7.3952   8.7516
     8.7721  10.5220  11.3339  11.3358  11.8698  11.8834  12.0086  12.5876
    14.0537  14.1305

     the Fermi energy is    12.5298 ev

!    total energy              =    -437.65308874 Ry
     Harris-Foulkes estimate   =    -437.65308903 Ry
     estimated scf accuracy    <       0.00000033 Ry

     The total energy is the sum of the following terms:

     one-electron contribution =      -2.98544178 Ry
     hartree contribution      =      47.12748716 Ry
     xc contribution           =    -156.50728767 Ry
     ewald contribution        =    -325.28614583 Ry
     smearing contrib. (-TS)   =      -0.00170062 Ry

     total magnetization       =     0.00 Bohr mag/cell
     absolute magnetization    =     0.00 Bohr mag/cell

     convergence has been achieved in  10 iterations

     Writing output data file cu-10.save/

     init_run     :      0.27s CPU      0.29s WALL (       1 calls)
     electrons    :      8.07s CPU      8.31s WALL (       1 calls)

     Called by init_run:
     wfcinit      :      0.21s CPU      0.22s WALL (       1 calls)
     potinit      :      0.00s CPU      0.00s WALL (       1 calls)
     hinit0       :      0.06s CPU      0.06s WALL (       1 calls)

     Called by electrons:
     c_bands      :      7.48s CPU      7.69s WALL (      10 calls)
     sum_band     :      0.55s CPU      0.59s WALL (      10 calls)
     v_of_rho     :      0.01s CPU      0.01s WALL (      11 calls)
     newd         :      0.02s CPU      0.02s WALL (      11 calls)
     mix_rho      :      0.00s CPU      0.00s WALL (      10 calls)

     Called by c_bands:
     init_us_2    :      0.03s CPU      0.03s WALL (    1680 calls)
     cegterg      :      7.31s CPU      7.52s WALL (     800 calls)

     Called by sum_band:
     sum_band:bec :      0.04s CPU      0.04s WALL (     800 calls)
     addusdens    :      0.02s CPU      0.02s WALL (      10 calls)

     Called by *egterg:
     h_psi        :      2.28s CPU      2.36s WALL (    3135 calls)
     s_psi        :      0.29s CPU      0.30s WALL (    3135 calls)
     g_psi        :      0.01s CPU      0.01s WALL (    2255 calls)
     cdiaghg      :      3.92s CPU      4.02s WALL (    3055 calls)

     Called by h_psi:
     h_psi:pot    :      2.27s CPU      2.35s WALL (    3135 calls)
     h_psi:calbec :      0.40s CPU      0.42s WALL (    3135 calls)
     vloc_psi     :      1.57s CPU      1.62s WALL (    3135 calls)
     add_vuspsi   :      0.29s CPU      0.31s WALL (    3135 calls)

     General routines
     calbec       :      0.54s CPU      0.56s WALL (    3935 calls)
     fft          :      0.01s CPU      0.01s WALL (     229 calls)
     ffts         :      0.00s CPU      0.00s WALL (      20 calls)
     fftw         :      1.70s CPU      1.76s WALL (  135278 calls)

     Parallel routines
     fft_scatt_xy :      0.15s CPU      0.16s WALL (  135527 calls)
     fft_scatt_yz :      1.07s CPU      1.11s WALL (  135527 calls)

     PWSCF        :      9.73s CPU     10.01s WALL


   This run was terminated on:  19: 3:46  17Mar2022            

=------------------------------------------------------------------------------=
   JOB DONE.
=------------------------------------------------------------------------------=
