
     Program PWSCF v.6.4.1 starts on 17Mar2022 at 19: 3:57 

     This program is part of the open-source Quantum ESPRESSO suite
     for quantum simulation of materials; please cite
         "P. Giannozzi et al., J. Phys.:Condens. Matter 21 395502 (2009);
         "P. Giannozzi et al., J. Phys.:Condens. Matter 29 465901 (2017);
          URL http://www.quantum-espresso.org", 
     in publications or presentations arising from this work. More details at
     http://www.quantum-espresso.org/quote

     Parallel version (MPI), running on     6 processors

     MPI processes distributed on     1 nodes
     R & G space division:  proc/nbgrp/npool/nimage =       6
     Reading input from cu-20.in
Warning: card CU1   63.546    CU.PBE-DN-RRKJUS_PSL.1.0.0.UPF ignored
Warning: card CU2   63.546    CU.PBE-DN-RRKJUS_PSL.1.0.0.UPF ignored

     Current dimensions of program PWSCF are:
     Max number of different atomic species (ntypx) = 10
     Max number of k-points (npk) =  40000
     Max angular momentum in pseudopotentials (lmaxx) =  3
               file Cu.pbe-dn-rrkjus_psl.1.0.0.UPF: wavefunction(s)  3D renormalized
               file Cu.pbe-dn-rrkjus_psl.1.0.0.UPF: wavefunction(s)  3D renormalized

     Subspace diagonalization in iterative solution of the eigenvalue problem:
     a serial algorithm will be used

     Found symmetry operation: I + (  0.0000 -0.5000 -0.5000)
     This is a supercell, fractional translations are disabled
     Message from routine setup:
     DEPRECATED: symmetry with ibrav=0, use correct ibrav instead

     Parallelization info
     --------------------
     sticks:   dense  smooth     PW     G-vecs:    dense   smooth      PW
     Min          48      48     16                  644      644     122
     Max          49      49     17                  649      649     125
     Sum         293     293     97                 3887     3887     739



     bravais-lattice index     =            0
     lattice parameter (alat)  =       6.8219  a.u.
     unit-cell volume          =     317.4813 (a.u.)^3
     number of atoms/cell      =            4
     number of atomic types    =            2
     number of electrons       =        44.00
     number of Kohn-Sham states=           26
     kinetic-energy cutoff     =      20.0000  Ry
     charge density cutoff     =      80.0000  Ry
     convergence threshold     =      1.0E-06
     mixing beta               =       0.7000
     number of iterations used =            8  plain     mixing
     Exchange-correlation      = PBE ( 1  4  3  4 0 0)

     celldm(1)=   6.821911  celldm(2)=   0.000000  celldm(3)=   0.000000
     celldm(4)=   0.000000  celldm(5)=   0.000000  celldm(6)=   0.000000

     crystal axes: (cart. coord. in units of alat)
               a(1) = (   1.000000   0.000000   0.000000 )  
               a(2) = (   0.000000   1.000000   0.000000 )  
               a(3) = (   0.000000   0.000000   1.000000 )  

     reciprocal axes: (cart. coord. in units 2 pi/alat)
               b(1) = (  1.000000  0.000000  0.000000 )  
               b(2) = (  0.000000  1.000000  0.000000 )  
               b(3) = (  0.000000  0.000000  1.000000 )  


     PseudoPot. # 1 for Cu read from file:
     /home/cristian/Escritorio/Proyecto_Grafeno/pseudopotenciales/Cu.pbe-dn-rrkjus_psl.1.0.0.UPF
     MD5 check sum: ba3d6c84e19846e79d48cdc68ff7152b
     Pseudo is Ultrasoft + core correction, Zval = 11.0
     Generated using "atomic" code by A. Dal Corso v.6.3
     Using radial grid of 1199 points,  6 beta functions with: 
                l(1) =   0
                l(2) =   0
                l(3) =   1
                l(4) =   1
                l(5) =   2
                l(6) =   2
     Q(r) pseudized with 0 coefficients 


     PseudoPot. # 2 for Cu read from file:
     /home/cristian/Escritorio/Proyecto_Grafeno/pseudopotenciales/Cu.pbe-dn-rrkjus_psl.1.0.0.UPF
     MD5 check sum: ba3d6c84e19846e79d48cdc68ff7152b
     Pseudo is Ultrasoft + core correction, Zval = 11.0
     Generated using "atomic" code by A. Dal Corso v.6.3
     Using radial grid of 1199 points,  6 beta functions with: 
                l(1) =   0
                l(2) =   0
                l(3) =   1
                l(4) =   1
                l(5) =   2
                l(6) =   2
     Q(r) pseudized with 0 coefficients 


     atomic species   valence    mass     pseudopotential
        Cu1           11.00    63.54600     Cu( 1.00)
        Cu2           11.00    63.54600     Cu( 1.00)

     Starting magnetic structure 
     atomic species   magnetization
        Cu1          0.100
        Cu2         -0.100

     16 Sym. Ops., with inversion, found



   Cartesian axes

     site n.     atom                  positions (alat units)
         1           Cu1 tau(   1) = (   0.0000000   0.0000000   0.0000000  )
         2           Cu2 tau(   2) = (   0.5000000   0.5000000   0.0000000  )
         3           Cu1 tau(   3) = (   0.0000000   0.5000000   0.5000000  )
         4           Cu2 tau(   4) = (   0.5000000   0.0000000   0.5000000  )

     number of k points=    40  Methfessel-Paxton smearing, width (Ry)=  0.0300
                       cart. coord. in units 2pi/alat
        k(    1) = (   0.0625000   0.0625000   0.0625000), wk =   0.0156250
        k(    2) = (   0.0625000   0.0625000   0.1875000), wk =   0.0312500
        k(    3) = (   0.0625000   0.0625000   0.3125000), wk =   0.0312500
        k(    4) = (   0.0625000   0.0625000   0.4375000), wk =   0.0312500
        k(    5) = (   0.0625000   0.1875000   0.1875000), wk =   0.0156250
        k(    6) = (   0.0625000   0.1875000   0.3125000), wk =   0.0312500
        k(    7) = (   0.0625000   0.1875000   0.4375000), wk =   0.0312500
        k(    8) = (   0.0625000   0.3125000   0.3125000), wk =   0.0156250
        k(    9) = (   0.0625000   0.3125000   0.4375000), wk =   0.0312500
        k(   10) = (   0.0625000   0.4375000   0.4375000), wk =   0.0156250
        k(   11) = (   0.1875000   0.1875000   0.1875000), wk =   0.0156250
        k(   12) = (   0.1875000   0.1875000   0.3125000), wk =   0.0312500
        k(   13) = (   0.1875000   0.1875000   0.4375000), wk =   0.0312500
        k(   14) = (   0.1875000   0.3125000   0.3125000), wk =   0.0156250
        k(   15) = (   0.1875000   0.3125000   0.4375000), wk =   0.0312500
        k(   16) = (   0.1875000   0.4375000   0.4375000), wk =   0.0156250
        k(   17) = (   0.3125000   0.3125000   0.3125000), wk =   0.0156250
        k(   18) = (   0.3125000   0.3125000   0.4375000), wk =   0.0312500
        k(   19) = (   0.3125000   0.4375000   0.4375000), wk =   0.0156250
        k(   20) = (   0.4375000   0.4375000   0.4375000), wk =   0.0156250
        k(   21) = (   0.1875000   0.0625000   0.0625000), wk =   0.0156250
        k(   22) = (   0.3125000   0.0625000   0.0625000), wk =   0.0156250
        k(   23) = (   0.4375000   0.0625000   0.0625000), wk =   0.0156250
        k(   24) = (   0.1875000   0.1875000   0.0625000), wk =   0.0312500
        k(   25) = (   0.1875000   0.3125000   0.0625000), wk =   0.0312500
        k(   26) = (   0.3125000   0.0625000   0.1875000), wk =   0.0312500
        k(   27) = (   0.1875000   0.4375000   0.0625000), wk =   0.0312500
        k(   28) = (   0.4375000   0.0625000   0.1875000), wk =   0.0312500
        k(   29) = (   0.3125000   0.3125000   0.0625000), wk =   0.0312500
        k(   30) = (   0.3125000   0.4375000   0.0625000), wk =   0.0312500
        k(   31) = (   0.4375000   0.0625000   0.3125000), wk =   0.0312500
        k(   32) = (   0.4375000   0.4375000   0.0625000), wk =   0.0312500
        k(   33) = (   0.3125000   0.1875000   0.1875000), wk =   0.0156250
        k(   34) = (   0.4375000   0.1875000   0.1875000), wk =   0.0156250
        k(   35) = (   0.3125000   0.3125000   0.1875000), wk =   0.0312500
        k(   36) = (   0.3125000   0.4375000   0.1875000), wk =   0.0312500
        k(   37) = (   0.4375000   0.1875000   0.3125000), wk =   0.0312500
        k(   38) = (   0.4375000   0.4375000   0.1875000), wk =   0.0312500
        k(   39) = (   0.4375000   0.3125000   0.3125000), wk =   0.0156250
        k(   40) = (   0.4375000   0.4375000   0.3125000), wk =   0.0312500

     Dense  grid:     3887 G-vectors     FFT dimensions: (  20,  20,  20)

     Estimated max dynamical RAM per process >       6.75 MB

     Estimated total dynamical RAM >      40.51 MB
     Generating pointlists ...
     new r_m :   0.2917 (alat units)  1.9898 (a.u.) for type    1
     new r_m :   0.2917 (alat units)  1.9898 (a.u.) for type    2

     Check: negative core charge=   -0.000099

     Initial potential from superposition of free atoms

     starting charge   43.99908, renormalised to   44.00000
     Starting wfcs are   36 randomized atomic wfcs

     total cpu time spent up to now is        1.9 secs

     Self-consistent Calculation

     iteration #  1     ecut=    20.00 Ry     beta= 0.70
     Davidson diagonalization with overlap
     ethr =  1.00E-02,  avg # of iterations =  2.2

     total cpu time spent up to now is        2.8 secs

     total energy              =    -486.81271233 Ry
     Harris-Foulkes estimate   =    -488.80824616 Ry
     estimated scf accuracy    <       2.54715496 Ry

     total magnetization       =    -0.00 Bohr mag/cell
     absolute magnetization    =     0.84 Bohr mag/cell

     iteration #  2     ecut=    20.00 Ry     beta= 0.70
     Davidson diagonalization with overlap
     ethr =  5.79E-03,  avg # of iterations =  2.1

     total cpu time spent up to now is        4.0 secs

     total energy              =    -487.74511758 Ry
     Harris-Foulkes estimate   =    -489.29036597 Ry
     estimated scf accuracy    <       3.22675201 Ry

     total magnetization       =     0.00 Bohr mag/cell
     absolute magnetization    =     0.07 Bohr mag/cell

     iteration #  3     ecut=    20.00 Ry     beta= 0.70
     Davidson diagonalization with overlap
     ethr =  5.79E-03,  avg # of iterations =  2.0

     total cpu time spent up to now is        5.0 secs

     total energy              =    -488.18176574 Ry
     Harris-Foulkes estimate   =    -488.21383286 Ry
     estimated scf accuracy    <       0.06924902 Ry

     total magnetization       =     0.00 Bohr mag/cell
     absolute magnetization    =     0.12 Bohr mag/cell

     iteration #  4     ecut=    20.00 Ry     beta= 0.70
     Davidson diagonalization with overlap
     ethr =  1.57E-04,  avg # of iterations =  2.7

     total cpu time spent up to now is        6.3 secs

     total energy              =    -488.21167257 Ry
     Harris-Foulkes estimate   =    -488.22696533 Ry
     estimated scf accuracy    <       0.06978104 Ry

     total magnetization       =     0.00 Bohr mag/cell
     absolute magnetization    =     0.02 Bohr mag/cell

     iteration #  5     ecut=    20.00 Ry     beta= 0.70
     Davidson diagonalization with overlap
     ethr =  1.57E-04,  avg # of iterations =  1.0

     total cpu time spent up to now is        7.1 secs

     total energy              =    -488.20790618 Ry
     Harris-Foulkes estimate   =    -488.21438286 Ry
     estimated scf accuracy    <       0.02031426 Ry

     total magnetization       =     0.00 Bohr mag/cell
     absolute magnetization    =     0.01 Bohr mag/cell

     iteration #  6     ecut=    20.00 Ry     beta= 0.70
     Davidson diagonalization with overlap
     ethr =  4.62E-05,  avg # of iterations =  2.0

     total cpu time spent up to now is        8.0 secs

     total energy              =    -488.20949382 Ry
     Harris-Foulkes estimate   =    -488.20990494 Ry
     estimated scf accuracy    <       0.00147607 Ry

     total magnetization       =     0.00 Bohr mag/cell
     absolute magnetization    =     0.00 Bohr mag/cell

     iteration #  7     ecut=    20.00 Ry     beta= 0.70
     Davidson diagonalization with overlap
     ethr =  3.35E-06,  avg # of iterations =  1.6

     total cpu time spent up to now is        8.8 secs

     total energy              =    -488.20948414 Ry
     Harris-Foulkes estimate   =    -488.20961515 Ry
     estimated scf accuracy    <       0.00028243 Ry

     total magnetization       =     0.00 Bohr mag/cell
     absolute magnetization    =     0.00 Bohr mag/cell

     iteration #  8     ecut=    20.00 Ry     beta= 0.70
     Davidson diagonalization with overlap
     ethr =  6.42E-07,  avg # of iterations =  2.9

     total cpu time spent up to now is       10.0 secs

     total energy              =    -488.20956048 Ry
     Harris-Foulkes estimate   =    -488.20956095 Ry
     estimated scf accuracy    <       0.00000589 Ry

     total magnetization       =     0.00 Bohr mag/cell
     absolute magnetization    =     0.00 Bohr mag/cell

     iteration #  9     ecut=    20.00 Ry     beta= 0.70
     Davidson diagonalization with overlap
     ethr =  1.34E-08,  avg # of iterations =  2.0

     total cpu time spent up to now is       10.9 secs

     total energy              =    -488.20956070 Ry
     Harris-Foulkes estimate   =    -488.20956085 Ry
     estimated scf accuracy    <       0.00000265 Ry

     total magnetization       =     0.00 Bohr mag/cell
     absolute magnetization    =     0.00 Bohr mag/cell

     iteration # 10     ecut=    20.00 Ry     beta= 0.70
     Davidson diagonalization with overlap
     ethr =  6.03E-09,  avg # of iterations =  1.0

     Magnetic moment per site:
     atom:    1    charge:    9.9265    magn:    0.0000    constr:    0.0000
     atom:    2    charge:    9.9264    magn:   -0.0000    constr:    0.0000
     atom:    3    charge:    9.9265    magn:    0.0000    constr:    0.0000
     atom:    4    charge:    9.9264    magn:   -0.0000    constr:    0.0000

     total cpu time spent up to now is       11.7 secs

     End of self-consistent calculation

 ------ SPIN UP ------------


          k = 0.0625 0.0625 0.0625 (   470 PWs)   bands (ev):

     3.5669   6.8482   6.8482   6.8482   6.9643   6.9644   6.9644   8.4528
     8.5260   8.5260   9.3609   9.3609  10.1494  10.1497  10.1499  10.2982
    10.2985  10.2988  10.4303  10.4306  10.4309  14.1965  14.1965  14.1965
    20.4162  20.4162

          k = 0.0625 0.0625 0.1875 (   474 PWs)   bands (ev):

     3.9390   6.9104   6.9530   7.0121   7.0121   7.1638   7.1638   8.2390
     8.4963   8.6563   9.2574   9.3762   9.7375   9.7375   9.8612  10.0280
    10.0591  10.0591  10.3250  10.4553  10.4553  12.4194  14.9982  14.9982
    20.6165  20.6165

          k = 0.0625 0.0625 0.3125 (   475 PWs)   bands (ev):

     4.6559   6.8815   7.1562   7.3217   7.3217   7.5686   7.5686   8.0784
     8.6559   8.7416   9.1894   9.1894   9.2162   9.3833   9.4461   9.4526
     9.6197   9.6197  10.2030  10.5607  10.5607  10.7327  16.2401  16.2401
    21.0381  21.0381

          k = 0.0625 0.0625 0.4375 (   481 PWs)   bands (ev):

     5.6147   6.5124   7.4582   7.5885   7.5885   7.7749   7.9417   7.9417
     8.4717   8.5229   8.5229   8.7979   8.8425   9.1062   9.1791   9.4785
     9.4991   9.5751   9.5751   9.6201  10.5694  10.5694  17.7113  17.7113
    19.2995  19.2995

          k = 0.0625 0.1875 0.1875 (   481 PWs)   bands (ev):

     4.3004   7.0217   7.0218   7.1087   7.1430   7.1431   7.4055   8.1837
     8.4938   8.4975   9.2383   9.2532   9.2541   9.3356   9.6248   9.7611
     9.8877   9.8880  10.2970  10.2973  10.3215  13.1599  13.1602  15.6887
    20.6567  20.8646

          k = 0.0625 0.1875 0.3125 (   477 PWs)   bands (ev):

     4.9911   7.0868   7.2669   7.3135   7.3306   7.5501   7.8905   8.0873
     8.6796   8.8208   8.8395   8.8831   9.0114   9.1656   9.4953   9.4998
     9.5658   9.5881  10.2340  10.2349  10.3247  11.4494  14.2771  16.7914
    18.7849  21.2599

          k = 0.0625 0.1875 0.4375 (   478 PWs)   bands (ev):

     5.9134   6.7767   7.5278   7.6300   7.6427   7.8138   8.0093   8.0171
     8.3304   8.4066   8.5303   8.5469   8.9609   9.1009   9.3898   9.4245
     9.5161   9.6603   9.7309  10.2901  10.3488  10.4653  15.5085  16.9356
    18.3161  19.8262

          k = 0.0625 0.3125 0.3125 (   486 PWs)   bands (ev):

     5.6245   7.3806   7.3807   7.4227   7.5936   7.5938   7.8811   7.9909
     8.4581   8.4588   8.5495   8.7489   8.7777   8.9758   9.2812   9.3580
     9.3582   9.8434   9.8838   9.8947   9.8951  12.4198  12.4204  16.5406
    17.9081  21.7332

          k = 0.0625 0.3125 0.4375 (   483 PWs)   bands (ev):

     6.4644   7.2037   7.6119   7.7414   7.7611   7.7641   8.0108   8.0423
     8.2489   8.2645   8.3259   8.4530   8.8944   9.1087   9.1328   9.1624
     9.3551   9.4995   9.8218   9.8987  10.4522  11.1897  13.5859  14.8471
    19.1430  20.6789

          k = 0.0625 0.4375 0.4375 (   486 PWs)   bands (ev):

     7.0598   7.5431   7.5650   7.5653   7.9277   7.9280   7.9358   8.0937
     8.1475   8.1477   8.3864   8.4408   8.8639   9.0335   9.0511   9.0512
     9.3608   9.4349   9.4355   9.5781  11.0861  12.0166  12.0174  13.2799
    20.3314  21.8266

          k = 0.1875 0.1875 0.1875 (   473 PWs)   bands (ev):

     4.6459   7.0852   7.0852   7.0853   7.5786   7.5787   7.5787   8.3025
     8.6709   8.6710   9.2657   9.2660   9.2663   9.3372   9.3372   9.5757
     9.5760   9.5763  10.3811  10.3814  10.3817  13.7799  13.7800  13.7801
    21.1908  21.1908

          k = 0.1875 0.1875 0.3125 (   481 PWs)   bands (ev):

     5.2886   7.0987   7.2732   7.2732   7.5934   7.8049   7.8049   8.0756
     8.5747   8.7584   8.8193   8.8293   8.8293   9.1382   9.1653   9.3186
     9.3186   9.4692  10.2772  10.2772  10.3321  11.9497  14.6861  14.6861
    19.2039  19.2040

          k = 0.1875 0.1875 0.4375 (   479 PWs)   bands (ev):

     6.1243   6.9019   7.6145   7.6145   7.8295   7.9050   7.9058   7.9058
     8.4541   8.5088   8.5591   8.5591   8.7516   9.0144   9.2406   9.2406
     9.6608   9.6815  10.1408  10.1924  10.1924  10.5978  15.6596  15.6596
    17.7096  17.7097

          k = 0.1875 0.3125 0.3125 (   479 PWs)   bands (ev):

     5.8375   7.3310   7.3312   7.3628   7.9004   7.9625   7.9627   8.1189
     8.5813   8.5820   8.6638   8.7750   8.8407   8.9842   9.1333   9.1338
     9.1976   9.7707  10.1331  10.2147  10.2152  12.7138  12.7143  15.2112
    17.3899  20.0641

          k = 0.1875 0.3125 0.4375 (   483 PWs)   bands (ev):

     6.5314   7.0698   7.5330   7.5506   7.8675   7.9123   8.1625   8.1996
     8.2791   8.3565   8.5508   8.6701   8.7415   8.9314   8.9843   9.0067
     9.4949   9.9291  10.0684  10.0891  10.1953  11.1933  13.6586  14.7324
    17.2525  18.4194

          k = 0.1875 0.4375 0.4375 (   489 PWs)   bands (ev):

     6.9597   7.2912   7.2913   7.3511   7.8649   8.0142   8.0147   8.1707
     8.4427   8.5686   8.6466   8.6470   8.8038   8.8326   8.8376   8.8383
     9.4593   9.6173   9.7380   9.7384  10.9398  12.0307  12.0315  13.2137
    18.1214  19.5597

          k = 0.3125 0.3125 0.3125 (   474 PWs)   bands (ev):

     6.3041   7.2540   7.2542   7.2544   8.0514   8.0515   8.0516   8.7178
     8.7178   8.7744   8.7747   8.7749   8.8737   8.8741   8.8744   8.9321
     9.8101   9.8101  10.2051  10.2054  10.2057  13.1773  13.1776  13.1778
    18.1024  18.1025

          k = 0.3125 0.3125 0.4375 (   479 PWs)   bands (ev):

     6.7324   7.0694   7.2995   7.2995   7.9827   7.9827   8.2279   8.3843
     8.6550   8.6746   8.6889   8.6889   8.9059   8.9513   8.9513   9.0451
     9.9318  10.0663  10.1340  10.1340  10.2959  11.3598  13.6277  13.6277
    16.8526  16.8526

          k = 0.3125 0.4375 0.4375 (   481 PWs)   bands (ev):

     6.8944   7.0571   7.0573   7.1956   8.0463   8.0467   8.0964   8.3559
     8.4112   8.5639   8.5641   8.6933   9.2626   9.2630   9.4153   9.4965
     9.7173  10.0779  10.0783  10.1117  10.8056  12.0349  12.0356  13.0143
    16.7567  17.6595

          k = 0.4375 0.4375 0.4375 (   480 PWs)   bands (ev):

     6.9088   7.0041   7.0042   7.0043   8.2579   8.2579   8.2579   8.3123
     8.3123   8.3390   8.3392   8.3395   9.8082   9.8084   9.8087  10.0576
    10.0576  10.0927  10.0930  10.0933  11.0273  12.0895  12.0898  12.0901
    16.6256  16.6257

          k = 0.1875 0.0625 0.0625 (   474 PWs)   bands (ev):

     3.9390   6.9104   6.9530   7.0121   7.0122   7.1638   7.1639   8.2390
     8.4963   8.6563   9.2574   9.3762   9.7374   9.7376   9.8612  10.0280
    10.0588  10.0594  10.3250  10.4547  10.4559  12.4194  14.9982  14.9982
    20.6164  20.6166

          k = 0.3125 0.0625 0.0625 (   475 PWs)   bands (ev):

     4.6559   6.8815   7.1562   7.3217   7.3218   7.5685   7.5686   8.0784
     8.6559   8.7416   9.1894   9.1894   9.2162   9.3833   9.4462   9.4526
     9.6193   9.6200  10.2030  10.5601  10.5613  10.7327  16.2401  16.2401
    21.0380  21.0382

          k = 0.4375 0.0625 0.0625 (   481 PWs)   bands (ev):

     5.6147   6.5124   7.4582   7.5883   7.5887   7.7749   7.9417   7.9418
     8.4717   8.5228   8.5229   8.7979   8.8425   9.1062   9.1791   9.4785
     9.4991   9.5746   9.5756   9.6202  10.5688  10.5700  17.7113  17.7114
    19.2994  19.2995

          k = 0.1875 0.1875 0.0625 (   481 PWs)   bands (ev):

     4.3004   7.0218   7.0218   7.1087   7.1431   7.1431   7.4055   8.1837
     8.4938   8.4975   9.2383   9.2536   9.2537   9.3356   9.6248   9.7611
     9.8879   9.8879  10.2972  10.2972  10.3216  13.1601  13.1601  15.6887
    20.6567  20.8646

          k = 0.1875 0.3125 0.0625 (   477 PWs)   bands (ev):

     4.9911   7.0868   7.2669   7.3135   7.3306   7.5501   7.8905   8.0873
     8.6796   8.8208   8.8395   8.8831   9.0114   9.1656   9.4953   9.4998
     9.5658   9.5881  10.2340  10.2350  10.3247  11.4494  14.2771  16.7914
    18.7849  21.2599

          k = 0.3125 0.0625 0.1875 (   477 PWs)   bands (ev):

     4.9911   7.0868   7.2669   7.3135   7.3306   7.5501   7.8905   8.0873
     8.6796   8.8208   8.8395   8.8831   9.0114   9.1656   9.4953   9.4998
     9.5658   9.5881  10.2340  10.2349  10.3247  11.4494  14.2771  16.7914
    18.7849  21.2599

          k = 0.1875 0.4375 0.0625 (   478 PWs)   bands (ev):

     5.9134   6.7767   7.5278   7.6300   7.6427   7.8138   8.0093   8.0171
     8.3304   8.4066   8.5303   8.5469   8.9609   9.1009   9.3898   9.4245
     9.5161   9.6603   9.7309  10.2901  10.3488  10.4653  15.5085  16.9356
    18.3161  19.8262

          k = 0.4375 0.0625 0.1875 (   478 PWs)   bands (ev):

     5.9134   6.7767   7.5278   7.6300   7.6427   7.8138   8.0093   8.0171
     8.3304   8.4066   8.5303   8.5469   8.9609   9.1009   9.3898   9.4245
     9.5161   9.6603   9.7309  10.2901  10.3488  10.4653  15.5085  16.9356
    18.3161  19.8262

          k = 0.3125 0.3125 0.0625 (   486 PWs)   bands (ev):

     5.6245   7.3807   7.3807   7.4227   7.5937   7.5937   7.8811   7.9909
     8.4584   8.4584   8.5495   8.7489   8.7777   8.9758   9.2812   9.3581
     9.3581   9.8434   9.8838   9.8949   9.8949  12.4201  12.4201  16.5406
    17.9081  21.7333

          k = 0.3125 0.4375 0.0625 (   483 PWs)   bands (ev):

     6.4644   7.2037   7.6119   7.7414   7.7611   7.7642   8.0108   8.0423
     8.2489   8.2645   8.3259   8.4530   8.8944   9.1087   9.1328   9.1624
     9.3551   9.4995   9.8218   9.8987  10.4522  11.1897  13.5859  14.8471
    19.1430  20.6789

          k = 0.4375 0.0625 0.3125 (   483 PWs)   bands (ev):

     6.4644   7.2037   7.6119   7.7414   7.7612   7.7641   8.0108   8.0423
     8.2489   8.2645   8.3259   8.4530   8.8944   9.1087   9.1328   9.1624
     9.3551   9.4995   9.8218   9.8987  10.4522  11.1897  13.5859  14.8471
    19.1430  20.6789

          k = 0.4375 0.4375 0.0625 (   486 PWs)   bands (ev):

     7.0598   7.5431   7.5651   7.5651   7.9278   7.9278   7.9358   8.0937
     8.1476   8.1476   8.3864   8.4408   8.8639   9.0335   9.0511   9.0511
     9.3608   9.4352   9.4352   9.5781  11.0860  12.0170  12.0170  13.2799
    20.3315  21.8266

          k = 0.3125 0.1875 0.1875 (   481 PWs)   bands (ev):

     5.2886   7.0987   7.2731   7.2732   7.5934   7.8047   7.8051   8.0756
     8.5747   8.7584   8.8193   8.8290   8.8295   9.1382   9.1653   9.3183
     9.3190   9.4692  10.2768  10.2776  10.3321  11.9497  14.6859  14.6862
    19.2039  19.2040

          k = 0.4375 0.1875 0.1875 (   479 PWs)   bands (ev):

     6.1243   6.9019   7.6143   7.6147   7.8295   7.9050   7.9055   7.9061
     8.4541   8.5088   8.5587   8.5594   8.7516   9.0144   9.2402   9.2411
     9.6608   9.6815  10.1408  10.1919  10.1928  10.5978  15.6594  15.6598
    17.7095  17.7098

          k = 0.3125 0.3125 0.1875 (   479 PWs)   bands (ev):

     5.8375   7.3311   7.3311   7.3628   7.9004   7.9626   7.9626   8.1189
     8.5816   8.5816   8.6638   8.7750   8.8407   8.9842   9.1335   9.1335
     9.1976   9.7707  10.1331  10.2149  10.2150  12.7140  12.7141  15.2112
    17.3898  20.0641

          k = 0.3125 0.4375 0.1875 (   483 PWs)   bands (ev):

     6.5314   7.0698   7.5330   7.5506   7.8675   7.9123   8.1625   8.1996
     8.2791   8.3565   8.5508   8.6701   8.7415   8.9314   8.9843   9.0067
     9.4949   9.9291  10.0684  10.0891  10.1953  11.1933  13.6586  14.7324
    17.2525  18.4194

          k = 0.4375 0.1875 0.3125 (   483 PWs)   bands (ev):

     6.5314   7.0698   7.5330   7.5506   7.8675   7.9123   8.1625   8.1996
     8.2791   8.3565   8.5508   8.6701   8.7415   8.9314   8.9842   9.0067
     9.4949   9.9291  10.0684  10.0891  10.1953  11.1933  13.6586  14.7324
    17.2525  18.4194

          k = 0.4375 0.4375 0.1875 (   489 PWs)   bands (ev):

     6.9597   7.2912   7.2912   7.3511   7.8649   8.0144   8.0144   8.1707
     8.4427   8.5686   8.6468   8.6468   8.8038   8.8326   8.8380   8.8380
     9.4593   9.6173   9.7382   9.7382  10.9398  12.0311  12.0311  13.2137
    18.1214  19.5597

          k = 0.4375 0.3125 0.3125 (   479 PWs)   bands (ev):

     6.7324   7.0694   7.2993   7.2996   7.9827   7.9828   8.2279   8.3843
     8.6550   8.6746   8.6885   8.6893   8.9059   8.9510   8.9515   9.0451
     9.9318  10.0663  10.1337  10.1344  10.2959  11.3598  13.6275  13.6280
    16.8525  16.8528

          k = 0.4375 0.4375 0.3125 (   481 PWs)   bands (ev):

     6.8944   7.0572   7.0572   7.1956   8.0465   8.0465   8.0964   8.3559
     8.4112   8.5640   8.5640   8.6933   9.2628   9.2628   9.4153   9.4965
     9.7173  10.0781  10.0781  10.1117  10.8056  12.0353  12.0353  13.0143
    16.7567  17.6595

 ------ SPIN DOWN ----------


          k = 0.0625 0.0625 0.0625 (   470 PWs)   bands (ev):

     3.5669   6.8482   6.8482   6.8482   6.9642   6.9644   6.9646   8.4528
     8.5260   8.5260   9.3609   9.3609  10.1496  10.1497  10.1497  10.2985
    10.2985  10.2985  10.4306  10.4306  10.4306  14.1965  14.1965  14.1965
    20.4162  20.4162

          k = 0.0625 0.0625 0.1875 (   474 PWs)   bands (ev):

     3.9390   6.9104   6.9530   7.0121   7.0121   7.1638   7.1638   8.2390
     8.4963   8.6563   9.2574   9.3762   9.7375   9.7375   9.8612  10.0280
    10.0591  10.0591  10.3249  10.4553  10.4553  12.4194  14.9982  14.9982
    20.6165  20.6165

          k = 0.0625 0.0625 0.3125 (   475 PWs)   bands (ev):

     4.6559   6.8815   7.1562   7.3217   7.3217   7.5686   7.5686   8.0784
     8.6559   8.7416   9.1894   9.1894   9.2162   9.3833   9.4461   9.4526
     9.6197   9.6197  10.2030  10.5607  10.5607  10.7327  16.2401  16.2401
    21.0381  21.0381

          k = 0.0625 0.0625 0.4375 (   481 PWs)   bands (ev):

     5.6147   6.5124   7.4582   7.5885   7.5885   7.7749   7.9417   7.9417
     8.4717   8.5229   8.5229   8.7979   8.8425   9.1062   9.1791   9.4785
     9.4991   9.5751   9.5751   9.6201  10.5694  10.5694  17.7113  17.7113
    19.2995  19.2995

          k = 0.0625 0.1875 0.1875 (   481 PWs)   bands (ev):

     4.3004   7.0217   7.0219   7.1087   7.1430   7.1431   7.4055   8.1836
     8.4938   8.4975   9.2383   9.2536   9.2537   9.3356   9.6248   9.7611
     9.8879   9.8879  10.2972  10.2972  10.3215  13.1600  13.1601  15.6887
    20.6567  20.8646

          k = 0.0625 0.1875 0.3125 (   477 PWs)   bands (ev):

     4.9911   7.0868   7.2669   7.3135   7.3306   7.5501   7.8905   8.0873
     8.6796   8.8208   8.8395   8.8831   9.0114   9.1656   9.4953   9.4998
     9.5658   9.5881  10.2340  10.2349  10.3247  11.4494  14.2772  16.7914
    18.7849  21.2599

          k = 0.0625 0.1875 0.4375 (   478 PWs)   bands (ev):

     5.9134   6.7768   7.5278   7.6300   7.6427   7.8138   8.0093   8.0171
     8.3304   8.4066   8.5303   8.5469   8.9609   9.1009   9.3898   9.4245
     9.5161   9.6603   9.7309  10.2901  10.3488  10.4653  15.5085  16.9356
    18.3161  19.8262

          k = 0.0625 0.3125 0.3125 (   486 PWs)   bands (ev):

     5.6245   7.3805   7.3808   7.4227   7.5936   7.5938   7.8811   7.9909
     8.4583   8.4585   8.5495   8.7488   8.7777   8.9758   9.2812   9.3581
     9.3582   9.8434   9.8838   9.8949   9.8949  12.4201  12.4202  16.5406
    17.9081  21.7333

          k = 0.0625 0.3125 0.4375 (   483 PWs)   bands (ev):

     6.4644   7.2037   7.6119   7.7414   7.7611   7.7641   8.0108   8.0423
     8.2489   8.2645   8.3259   8.4530   8.8944   9.1087   9.1328   9.1624
     9.3551   9.4995   9.8218   9.8987  10.4522  11.1897  13.5859  14.8471
    19.1430  20.6789

          k = 0.0625 0.4375 0.4375 (   486 PWs)   bands (ev):

     7.0598   7.5431   7.5651   7.5651   7.9278   7.9278   7.9358   8.0937
     8.1475   8.1477   8.3864   8.4408   8.8639   9.0335   9.0510   9.0512
     9.3608   9.4352   9.4352   9.5781  11.0860  12.0170  12.0171  13.2799
    20.3315  21.8266

          k = 0.1875 0.1875 0.1875 (   473 PWs)   bands (ev):

     4.6460   7.0851   7.0852   7.0853   7.5786   7.5787   7.5788   8.3025
     8.6709   8.6709   9.2660   9.2660   9.2661   9.3372   9.3372   9.5760
     9.5760   9.5760  10.3814  10.3814  10.3814  13.7799  13.7800  13.7800
    21.1908  21.1909

          k = 0.1875 0.1875 0.3125 (   481 PWs)   bands (ev):

     5.2886   7.0987   7.2732   7.2732   7.5934   7.8049   7.8049   8.0756
     8.5747   8.7584   8.8193   8.8293   8.8293   9.1382   9.1653   9.3186
     9.3186   9.4692  10.2772  10.2772  10.3321  11.9497  14.6861  14.6861
    19.2040  19.2040

          k = 0.1875 0.1875 0.4375 (   479 PWs)   bands (ev):

     6.1243   6.9019   7.6145   7.6145   7.8295   7.9050   7.9058   7.9058
     8.4541   8.5088   8.5591   8.5591   8.7516   9.0144   9.2406   9.2406
     9.6608   9.6815  10.1408  10.1924  10.1924  10.5978  15.6596  15.6596
    17.7097  17.7097

          k = 0.1875 0.3125 0.3125 (   479 PWs)   bands (ev):

     5.8375   7.3310   7.3312   7.3628   7.9004   7.9625   7.9627   8.1189
     8.5816   8.5817   8.6638   8.7750   8.8407   8.9842   9.1335   9.1335
     9.1976   9.7707  10.1331  10.2149  10.2150  12.7139  12.7142  15.2112
    17.3899  20.0641

          k = 0.1875 0.3125 0.4375 (   483 PWs)   bands (ev):

     6.5314   7.0698   7.5330   7.5506   7.8675   7.9123   8.1625   8.1996
     8.2791   8.3565   8.5508   8.6701   8.7415   8.9314   8.9843   9.0066
     9.4949   9.9291  10.0684  10.0891  10.1953  11.1933  13.6586  14.7324
    17.2525  18.4194

          k = 0.1875 0.4375 0.4375 (   489 PWs)   bands (ev):

     6.9597   7.2912   7.2912   7.3511   7.8649   8.0144   8.0144   8.1707
     8.4427   8.5686   8.6466   8.6469   8.8038   8.8326   8.8380   8.8380
     9.4593   9.6173   9.7382   9.7382  10.9398  12.0310  12.0312  13.2137
    18.1214  19.5597

          k = 0.3125 0.3125 0.3125 (   474 PWs)   bands (ev):

     6.3041   7.2542   7.2542   7.2542   8.0514   8.0515   8.0516   8.7178
     8.7178   8.7747   8.7747   8.7747   8.8741   8.8741   8.8741   8.9321
     9.8101   9.8101  10.2054  10.2054  10.2054  13.1774  13.1776  13.1778
    18.1024  18.1025

          k = 0.3125 0.3125 0.4375 (   479 PWs)   bands (ev):

     6.7324   7.0694   7.2995   7.2995   7.9827   7.9827   8.2279   8.3843
     8.6550   8.6746   8.6889   8.6889   8.9059   8.9513   8.9513   9.0451
     9.9318  10.0663  10.1340  10.1340  10.2959  11.3598  13.6277  13.6278
    16.8526  16.8526

          k = 0.3125 0.4375 0.4375 (   481 PWs)   bands (ev):

     6.8944   7.0572   7.0572   7.1956   8.0465   8.0465   8.0964   8.3559
     8.4112   8.5640   8.5641   8.6933   9.2627   9.2629   9.4153   9.4965
     9.7173  10.0781  10.0781  10.1117  10.8056  12.0351  12.0355  13.0143
    16.7567  17.6594

          k = 0.4375 0.4375 0.4375 (   480 PWs)   bands (ev):

     6.9088   7.0042   7.0042   7.0042   8.2578   8.2579   8.2580   8.3122
     8.3123   8.3392   8.3392   8.3393   9.8084   9.8084   9.8085  10.0576
    10.0576  10.0930  10.0930  10.0930  11.0273  12.0894  12.0898  12.0901
    16.6255  16.6257

          k = 0.1875 0.0625 0.0625 (   474 PWs)   bands (ev):

     3.9390   6.9105   6.9530   7.0121   7.0122   7.1637   7.1640   8.2390
     8.4963   8.6563   9.2574   9.3762   9.7375   9.7375   9.8612  10.0280
    10.0591  10.0591  10.3249  10.4553  10.4553  12.4194  14.9982  14.9982
    20.6164  20.6166

          k = 0.3125 0.0625 0.0625 (   475 PWs)   bands (ev):

     4.6559   6.8815   7.1562   7.3216   7.3218   7.5685   7.5687   8.0784
     8.6559   8.7416   9.1894   9.1894   9.2162   9.3833   9.4461   9.4526
     9.6196   9.6197  10.2030  10.5607  10.5607  10.7327  16.2401  16.2402
    21.0380  21.0381

          k = 0.4375 0.0625 0.0625 (   481 PWs)   bands (ev):

     5.6147   6.5124   7.4582   7.5882   7.5887   7.7749   7.9417   7.9417
     8.4717   8.5228   8.5229   8.7979   8.8425   9.1062   9.1791   9.4785
     9.4991   9.5750   9.5752   9.6201  10.5694  10.5694  17.7113  17.7114
    19.2994  19.2995

          k = 0.1875 0.1875 0.0625 (   481 PWs)   bands (ev):

     4.3004   7.0218   7.0218   7.1087   7.1431   7.1431   7.4055   8.1837
     8.4938   8.4975   9.2383   9.2536   9.2537   9.3356   9.6248   9.7611
     9.8879   9.8879  10.2972  10.2972  10.3215  13.1601  13.1601  15.6887
    20.6567  20.8646

          k = 0.1875 0.3125 0.0625 (   477 PWs)   bands (ev):

     4.9911   7.0868   7.2669   7.3135   7.3306   7.5501   7.8905   8.0873
     8.6796   8.8208   8.8395   8.8831   9.0114   9.1656   9.4953   9.4998
     9.5658   9.5881  10.2340  10.2349  10.3247  11.4494  14.2772  16.7914
    18.7849  21.2599

          k = 0.3125 0.0625 0.1875 (   477 PWs)   bands (ev):

     4.9911   7.0868   7.2669   7.3135   7.3306   7.5501   7.8905   8.0873
     8.6796   8.8208   8.8395   8.8831   9.0114   9.1656   9.4953   9.4998
     9.5658   9.5881  10.2340  10.2349  10.3247  11.4494  14.2772  16.7914
    18.7849  21.2599

          k = 0.1875 0.4375 0.0625 (   478 PWs)   bands (ev):

     5.9134   6.7768   7.5278   7.6300   7.6427   7.8138   8.0093   8.0171
     8.3304   8.4066   8.5303   8.5469   8.9609   9.1009   9.3898   9.4245
     9.5161   9.6603   9.7309  10.2901  10.3488  10.4653  15.5085  16.9356
    18.3161  19.8262

          k = 0.4375 0.0625 0.1875 (   478 PWs)   bands (ev):

     5.9134   6.7768   7.5278   7.6300   7.6427   7.8138   8.0093   8.0171
     8.3304   8.4066   8.5303   8.5469   8.9609   9.1009   9.3898   9.4245
     9.5161   9.6603   9.7309  10.2901  10.3488  10.4653  15.5085  16.9356
    18.3161  19.8262

          k = 0.3125 0.3125 0.0625 (   486 PWs)   bands (ev):

     5.6245   7.3807   7.3807   7.4227   7.5937   7.5937   7.8811   7.9909
     8.4584   8.4584   8.5495   8.7489   8.7777   8.9758   9.2812   9.3581
     9.3581   9.8434   9.8838   9.8949   9.8949  12.4201  12.4201  16.5406
    17.9081  21.7331

          k = 0.3125 0.4375 0.0625 (   483 PWs)   bands (ev):

     6.4644   7.2037   7.6119   7.7414   7.7611   7.7641   8.0108   8.0423
     8.2489   8.2645   8.3259   8.4530   8.8944   9.1087   9.1328   9.1624
     9.3551   9.4995   9.8218   9.8987  10.4522  11.1897  13.5859  14.8471
    19.1430  20.6789

          k = 0.4375 0.0625 0.3125 (   483 PWs)   bands (ev):

     6.4644   7.2037   7.6119   7.7414   7.7611   7.7641   8.0108   8.0423
     8.2489   8.2645   8.3259   8.4530   8.8944   9.1087   9.1328   9.1624
     9.3551   9.4995   9.8218   9.8987  10.4522  11.1897  13.5859  14.8471
    19.1430  20.6789

          k = 0.4375 0.4375 0.0625 (   486 PWs)   bands (ev):

     7.0598   7.5431   7.5651   7.5651   7.9278   7.9278   7.9358   8.0937
     8.1476   8.1476   8.3864   8.4408   8.8639   9.0335   9.0511   9.0511
     9.3608   9.4352   9.4352   9.5781  11.0860  12.0170  12.0170  13.2799
    20.3315  21.8266

          k = 0.3125 0.1875 0.1875 (   481 PWs)   bands (ev):

     5.2886   7.0987   7.2731   7.2733   7.5934   7.8048   7.8050   8.0756
     8.5747   8.7584   8.8193   8.8292   8.8293   9.1382   9.1653   9.3186
     9.3187   9.4692  10.2772  10.2772  10.3321  11.9497  14.6859  14.6862
    19.2039  19.2040

          k = 0.4375 0.1875 0.1875 (   479 PWs)   bands (ev):

     6.1243   6.9019   7.6143   7.6146   7.8295   7.9050   7.9057   7.9059
     8.4541   8.5088   8.5591   8.5591   8.7516   9.0144   9.2405   9.2407
     9.6608   9.6815  10.1408  10.1924  10.1924  10.5978  15.6593  15.6598
    17.7095  17.7099

          k = 0.3125 0.3125 0.1875 (   479 PWs)   bands (ev):

     5.8375   7.3311   7.3311   7.3628   7.9004   7.9626   7.9626   8.1189
     8.5816   8.5816   8.6638   8.7750   8.8407   8.9842   9.1335   9.1335
     9.1976   9.7707  10.1331  10.2149  10.2149  12.7140  12.7141  15.2112
    17.3899  20.0641

          k = 0.3125 0.4375 0.1875 (   483 PWs)   bands (ev):

     6.5314   7.0698   7.5330   7.5506   7.8675   7.9123   8.1625   8.1996
     8.2791   8.3565   8.5508   8.6701   8.7415   8.9314   8.9843   9.0066
     9.4949   9.9291  10.0684  10.0891  10.1953  11.1933  13.6586  14.7324
    17.2525  18.4194

          k = 0.4375 0.1875 0.3125 (   483 PWs)   bands (ev):

     6.5314   7.0698   7.5330   7.5506   7.8675   7.9123   8.1625   8.1996
     8.2791   8.3565   8.5508   8.6701   8.7415   8.9314   8.9843   9.0066
     9.4949   9.9291  10.0684  10.0891  10.1953  11.1933  13.6586  14.7324
    17.2525  18.4194

          k = 0.4375 0.4375 0.1875 (   489 PWs)   bands (ev):

     6.9597   7.2912   7.2912   7.3511   7.8649   8.0144   8.0144   8.1707
     8.4427   8.5686   8.6468   8.6468   8.8038   8.8326   8.8380   8.8380
     9.4593   9.6173   9.7382   9.7382  10.9398  12.0311  12.0311  13.2137
    18.1214  19.5597

          k = 0.4375 0.3125 0.3125 (   479 PWs)   bands (ev):

     6.7324   7.0694   7.2995   7.2995   7.9826   7.9828   8.2279   8.3843
     8.6550   8.6746   8.6888   8.6889   8.9059   8.9512   8.9513   9.0451
     9.9318  10.0663  10.1340  10.1340  10.2959  11.3598  13.6274  13.6281
    16.8524  16.8529

          k = 0.4375 0.4375 0.3125 (   481 PWs)   bands (ev):

     6.8944   7.0572   7.0572   7.1956   8.0465   8.0465   8.0964   8.3559
     8.4112   8.5640   8.5640   8.6933   9.2628   9.2628   9.4153   9.4965
     9.7173  10.0781  10.0781  10.1117  10.8056  12.0353  12.0353  13.0143
    16.7567  17.6596

     the Fermi energy is    12.3903 ev

!    total energy              =    -488.20956063 Ry
     Harris-Foulkes estimate   =    -488.20956077 Ry
     estimated scf accuracy    <       0.00000084 Ry

     The total energy is the sum of the following terms:

     one-electron contribution =    -102.57814775 Ry
     hartree contribution      =     116.17085791 Ry
     xc contribution           =    -176.51634397 Ry
     ewald contribution        =    -325.28614552 Ry
     smearing contrib. (-TS)   =       0.00021870 Ry

     total magnetization       =     0.00 Bohr mag/cell
     absolute magnetization    =     0.00 Bohr mag/cell

     convergence has been achieved in  10 iterations

     Writing output data file cu-20.save/

     init_run     :      0.48s CPU      0.48s WALL (       1 calls)
     electrons    :      9.52s CPU      9.83s WALL (       1 calls)

     Called by init_run:
     wfcinit      :      0.37s CPU      0.37s WALL (       1 calls)
     potinit      :      0.01s CPU      0.01s WALL (       1 calls)
     hinit0       :      0.09s CPU      0.09s WALL (       1 calls)

     Called by electrons:
     c_bands      :      8.50s CPU      8.76s WALL (      10 calls)
     sum_band     :      0.95s CPU      1.01s WALL (      10 calls)
     v_of_rho     :      0.03s CPU      0.03s WALL (      11 calls)
     newd         :      0.04s CPU      0.04s WALL (      11 calls)
     mix_rho      :      0.00s CPU      0.00s WALL (      10 calls)

     Called by c_bands:
     init_us_2    :      0.07s CPU      0.07s WALL (    1680 calls)
     cegterg      :      8.13s CPU      8.38s WALL (     800 calls)

     Called by sum_band:
     sum_band:bec :      0.04s CPU      0.04s WALL (     800 calls)
     addusdens    :      0.05s CPU      0.05s WALL (      10 calls)

     Called by *egterg:
     h_psi        :      3.64s CPU      3.78s WALL (    2439 calls)
     s_psi        :      0.58s CPU      0.60s WALL (    2439 calls)
     g_psi        :      0.02s CPU      0.02s WALL (    1559 calls)
     cdiaghg      :      2.45s CPU      2.50s WALL (    2359 calls)

     Called by h_psi:
     h_psi:pot    :      3.63s CPU      3.77s WALL (    2439 calls)
     h_psi:calbec :      0.76s CPU      0.79s WALL (    2439 calls)
     vloc_psi     :      2.28s CPU      2.36s WALL (    2439 calls)
     add_vuspsi   :      0.59s CPU      0.61s WALL (    2439 calls)

     General routines
     calbec       :      1.07s CPU      1.12s WALL (    3239 calls)
     fft          :      0.02s CPU      0.02s WALL (     229 calls)
     ffts         :      0.00s CPU      0.00s WALL (      20 calls)
     fftw         :      2.41s CPU      2.51s WALL (  123716 calls)

     Parallel routines
     fft_scatt_xy :      0.27s CPU      0.28s WALL (  123965 calls)
     fft_scatt_yz :      1.40s CPU      1.45s WALL (  123965 calls)

     PWSCF        :     11.44s CPU     11.78s WALL


   This run was terminated on:  19: 4: 9  17Mar2022            

=------------------------------------------------------------------------------=
   JOB DONE.
=------------------------------------------------------------------------------=
