
     Program PWSCF v.6.4.1 starts on 17Mar2022 at 19: 4: 9 

     This program is part of the open-source Quantum ESPRESSO suite
     for quantum simulation of materials; please cite
         "P. Giannozzi et al., J. Phys.:Condens. Matter 21 395502 (2009);
         "P. Giannozzi et al., J. Phys.:Condens. Matter 29 465901 (2017);
          URL http://www.quantum-espresso.org", 
     in publications or presentations arising from this work. More details at
     http://www.quantum-espresso.org/quote

     Parallel version (MPI), running on     6 processors

     MPI processes distributed on     1 nodes
     R & G space division:  proc/nbgrp/npool/nimage =       6
     Reading input from cu-25.in
Warning: card CU1   63.546    CU.PBE-DN-RRKJUS_PSL.1.0.0.UPF ignored
Warning: card CU2   63.546    CU.PBE-DN-RRKJUS_PSL.1.0.0.UPF ignored

     Current dimensions of program PWSCF are:
     Max number of different atomic species (ntypx) = 10
     Max number of k-points (npk) =  40000
     Max angular momentum in pseudopotentials (lmaxx) =  3
               file Cu.pbe-dn-rrkjus_psl.1.0.0.UPF: wavefunction(s)  3D renormalized
               file Cu.pbe-dn-rrkjus_psl.1.0.0.UPF: wavefunction(s)  3D renormalized

     Subspace diagonalization in iterative solution of the eigenvalue problem:
     a serial algorithm will be used

     Found symmetry operation: I + (  0.0000 -0.5000 -0.5000)
     This is a supercell, fractional translations are disabled
     Message from routine setup:
     DEPRECATED: symmetry with ibrav=0, use correct ibrav instead

     Parallelization info
     --------------------
     sticks:   dense  smooth     PW     G-vecs:    dense   smooth      PW
     Min          62      62     20                  896      896     170
     Max          63      63     21                  897      897     171
     Sum         373     373    121                 5377     5377    1021



     bravais-lattice index     =            0
     lattice parameter (alat)  =       6.8219  a.u.
     unit-cell volume          =     317.4813 (a.u.)^3
     number of atoms/cell      =            4
     number of atomic types    =            2
     number of electrons       =        44.00
     number of Kohn-Sham states=           26
     kinetic-energy cutoff     =      25.0000  Ry
     charge density cutoff     =     100.0000  Ry
     convergence threshold     =      1.0E-06
     mixing beta               =       0.7000
     number of iterations used =            8  plain     mixing
     Exchange-correlation      = PBE ( 1  4  3  4 0 0)

     celldm(1)=   6.821911  celldm(2)=   0.000000  celldm(3)=   0.000000
     celldm(4)=   0.000000  celldm(5)=   0.000000  celldm(6)=   0.000000

     crystal axes: (cart. coord. in units of alat)
               a(1) = (   1.000000   0.000000   0.000000 )  
               a(2) = (   0.000000   1.000000   0.000000 )  
               a(3) = (   0.000000   0.000000   1.000000 )  

     reciprocal axes: (cart. coord. in units 2 pi/alat)
               b(1) = (  1.000000  0.000000  0.000000 )  
               b(2) = (  0.000000  1.000000  0.000000 )  
               b(3) = (  0.000000  0.000000  1.000000 )  


     PseudoPot. # 1 for Cu read from file:
     /home/cristian/Escritorio/Proyecto_Grafeno/pseudopotenciales/Cu.pbe-dn-rrkjus_psl.1.0.0.UPF
     MD5 check sum: ba3d6c84e19846e79d48cdc68ff7152b
     Pseudo is Ultrasoft + core correction, Zval = 11.0
     Generated using "atomic" code by A. Dal Corso v.6.3
     Using radial grid of 1199 points,  6 beta functions with: 
                l(1) =   0
                l(2) =   0
                l(3) =   1
                l(4) =   1
                l(5) =   2
                l(6) =   2
     Q(r) pseudized with 0 coefficients 


     PseudoPot. # 2 for Cu read from file:
     /home/cristian/Escritorio/Proyecto_Grafeno/pseudopotenciales/Cu.pbe-dn-rrkjus_psl.1.0.0.UPF
     MD5 check sum: ba3d6c84e19846e79d48cdc68ff7152b
     Pseudo is Ultrasoft + core correction, Zval = 11.0
     Generated using "atomic" code by A. Dal Corso v.6.3
     Using radial grid of 1199 points,  6 beta functions with: 
                l(1) =   0
                l(2) =   0
                l(3) =   1
                l(4) =   1
                l(5) =   2
                l(6) =   2
     Q(r) pseudized with 0 coefficients 


     atomic species   valence    mass     pseudopotential
        Cu1           11.00    63.54600     Cu( 1.00)
        Cu2           11.00    63.54600     Cu( 1.00)

     Starting magnetic structure 
     atomic species   magnetization
        Cu1          0.100
        Cu2         -0.100

     16 Sym. Ops., with inversion, found



   Cartesian axes

     site n.     atom                  positions (alat units)
         1           Cu1 tau(   1) = (   0.0000000   0.0000000   0.0000000  )
         2           Cu2 tau(   2) = (   0.5000000   0.5000000   0.0000000  )
         3           Cu1 tau(   3) = (   0.0000000   0.5000000   0.5000000  )
         4           Cu2 tau(   4) = (   0.5000000   0.0000000   0.5000000  )

     number of k points=    40  Methfessel-Paxton smearing, width (Ry)=  0.0300
                       cart. coord. in units 2pi/alat
        k(    1) = (   0.0625000   0.0625000   0.0625000), wk =   0.0156250
        k(    2) = (   0.0625000   0.0625000   0.1875000), wk =   0.0312500
        k(    3) = (   0.0625000   0.0625000   0.3125000), wk =   0.0312500
        k(    4) = (   0.0625000   0.0625000   0.4375000), wk =   0.0312500
        k(    5) = (   0.0625000   0.1875000   0.1875000), wk =   0.0156250
        k(    6) = (   0.0625000   0.1875000   0.3125000), wk =   0.0312500
        k(    7) = (   0.0625000   0.1875000   0.4375000), wk =   0.0312500
        k(    8) = (   0.0625000   0.3125000   0.3125000), wk =   0.0156250
        k(    9) = (   0.0625000   0.3125000   0.4375000), wk =   0.0312500
        k(   10) = (   0.0625000   0.4375000   0.4375000), wk =   0.0156250
        k(   11) = (   0.1875000   0.1875000   0.1875000), wk =   0.0156250
        k(   12) = (   0.1875000   0.1875000   0.3125000), wk =   0.0312500
        k(   13) = (   0.1875000   0.1875000   0.4375000), wk =   0.0312500
        k(   14) = (   0.1875000   0.3125000   0.3125000), wk =   0.0156250
        k(   15) = (   0.1875000   0.3125000   0.4375000), wk =   0.0312500
        k(   16) = (   0.1875000   0.4375000   0.4375000), wk =   0.0156250
        k(   17) = (   0.3125000   0.3125000   0.3125000), wk =   0.0156250
        k(   18) = (   0.3125000   0.3125000   0.4375000), wk =   0.0312500
        k(   19) = (   0.3125000   0.4375000   0.4375000), wk =   0.0156250
        k(   20) = (   0.4375000   0.4375000   0.4375000), wk =   0.0156250
        k(   21) = (   0.1875000   0.0625000   0.0625000), wk =   0.0156250
        k(   22) = (   0.3125000   0.0625000   0.0625000), wk =   0.0156250
        k(   23) = (   0.4375000   0.0625000   0.0625000), wk =   0.0156250
        k(   24) = (   0.1875000   0.1875000   0.0625000), wk =   0.0312500
        k(   25) = (   0.1875000   0.3125000   0.0625000), wk =   0.0312500
        k(   26) = (   0.3125000   0.0625000   0.1875000), wk =   0.0312500
        k(   27) = (   0.1875000   0.4375000   0.0625000), wk =   0.0312500
        k(   28) = (   0.4375000   0.0625000   0.1875000), wk =   0.0312500
        k(   29) = (   0.3125000   0.3125000   0.0625000), wk =   0.0312500
        k(   30) = (   0.3125000   0.4375000   0.0625000), wk =   0.0312500
        k(   31) = (   0.4375000   0.0625000   0.3125000), wk =   0.0312500
        k(   32) = (   0.4375000   0.4375000   0.0625000), wk =   0.0312500
        k(   33) = (   0.3125000   0.1875000   0.1875000), wk =   0.0156250
        k(   34) = (   0.4375000   0.1875000   0.1875000), wk =   0.0156250
        k(   35) = (   0.3125000   0.3125000   0.1875000), wk =   0.0312500
        k(   36) = (   0.3125000   0.4375000   0.1875000), wk =   0.0312500
        k(   37) = (   0.4375000   0.1875000   0.3125000), wk =   0.0312500
        k(   38) = (   0.4375000   0.4375000   0.1875000), wk =   0.0312500
        k(   39) = (   0.4375000   0.3125000   0.3125000), wk =   0.0156250
        k(   40) = (   0.4375000   0.4375000   0.3125000), wk =   0.0312500

     Dense  grid:     5377 G-vectors     FFT dimensions: (  24,  24,  24)

     Estimated max dynamical RAM per process >       8.94 MB

     Estimated total dynamical RAM >      53.64 MB
     Generating pointlists ...
     new r_m :   0.2917 (alat units)  1.9898 (a.u.) for type    1
     new r_m :   0.2917 (alat units)  1.9898 (a.u.) for type    2

     Check: negative core charge=   -0.000123

     Initial potential from superposition of free atoms

     starting charge   43.99908, renormalised to   44.00000
     Starting wfcs are   36 randomized atomic wfcs

     total cpu time spent up to now is        2.1 secs

     Self-consistent Calculation

     iteration #  1     ecut=    25.00 Ry     beta= 0.70
     Davidson diagonalization with overlap
     ethr =  1.00E-02,  avg # of iterations =  2.2

     total cpu time spent up to now is        3.3 secs

     total energy              =    -490.17369630 Ry
     Harris-Foulkes estimate   =    -490.56256390 Ry
     estimated scf accuracy    <       0.61302642 Ry

     total magnetization       =     0.00 Bohr mag/cell
     absolute magnetization    =     0.73 Bohr mag/cell

     iteration #  2     ecut=    25.00 Ry     beta= 0.70
     Davidson diagonalization with overlap
     ethr =  1.39E-03,  avg # of iterations =  2.7

     total cpu time spent up to now is        5.1 secs

     total energy              =    -490.28064095 Ry
     Harris-Foulkes estimate   =    -490.82809275 Ry
     estimated scf accuracy    <       1.30380514 Ry

     total magnetization       =     0.00 Bohr mag/cell
     absolute magnetization    =     0.13 Bohr mag/cell

     iteration #  3     ecut=    25.00 Ry     beta= 0.70
     Davidson diagonalization with overlap
     ethr =  1.39E-03,  avg # of iterations =  2.0

     total cpu time spent up to now is        6.7 secs

     total energy              =    -490.50544321 Ry
     Harris-Foulkes estimate   =    -490.50064971 Ry
     estimated scf accuracy    <       0.01242033 Ry

     total magnetization       =     0.00 Bohr mag/cell
     absolute magnetization    =     0.19 Bohr mag/cell

     iteration #  4     ecut=    25.00 Ry     beta= 0.70
     Davidson diagonalization with overlap
     ethr =  2.82E-05,  avg # of iterations =  3.1

     total cpu time spent up to now is        8.2 secs

     total energy              =    -490.50723107 Ry
     Harris-Foulkes estimate   =    -490.50741472 Ry
     estimated scf accuracy    <       0.00069682 Ry

     total magnetization       =     0.00 Bohr mag/cell
     absolute magnetization    =     0.01 Bohr mag/cell

     iteration #  5     ecut=    25.00 Ry     beta= 0.70
     Davidson diagonalization with overlap
     ethr =  1.58E-06,  avg # of iterations =  2.6

     total cpu time spent up to now is        9.7 secs

     total energy              =    -490.50734130 Ry
     Harris-Foulkes estimate   =    -490.50735449 Ry
     estimated scf accuracy    <       0.00003622 Ry

     total magnetization       =     0.00 Bohr mag/cell
     absolute magnetization    =     0.01 Bohr mag/cell

     iteration #  6     ecut=    25.00 Ry     beta= 0.70
     Davidson diagonalization with overlap
     ethr =  8.23E-08,  avg # of iterations =  2.7

     total cpu time spent up to now is       11.4 secs

     total energy              =    -490.50734873 Ry
     Harris-Foulkes estimate   =    -490.50736275 Ry
     estimated scf accuracy    <       0.00006138 Ry

     total magnetization       =     0.00 Bohr mag/cell
     absolute magnetization    =     0.00 Bohr mag/cell

     iteration #  7     ecut=    25.00 Ry     beta= 0.70
     Davidson diagonalization with overlap
     ethr =  8.23E-08,  avg # of iterations =  2.0

     Magnetic moment per site:
     atom:    1    charge:    9.8438    magn:   -0.0000    constr:    0.0000
     atom:    2    charge:    9.8437    magn:    0.0000    constr:    0.0000
     atom:    3    charge:    9.8436    magn:   -0.0000    constr:    0.0000
     atom:    4    charge:    9.8437    magn:    0.0000    constr:    0.0000

     total cpu time spent up to now is       12.7 secs

     End of self-consistent calculation

 ------ SPIN UP ------------


          k = 0.0625 0.0625 0.0625 (   685 PWs)   bands (ev):

     3.5008   7.6443   7.6446   7.6449   8.0813   8.0813   8.0813   9.3533
     9.4085   9.4086  10.1511  10.1511  10.7779  10.7780  10.7780  10.7882
    10.7883  10.7883  10.9401  10.9401  10.9403  14.1650  14.1651  14.1651
    20.3785  20.3787

          k = 0.0625 0.0625 0.1875 (   679 PWs)   bands (ev):

     3.8757   7.6499   7.8078   7.8079   8.1822   8.2034   8.2034   9.2592
     9.4966   9.5002  10.0691  10.2060  10.3026  10.3026  10.6056  10.6321
    10.6322  10.6463  10.9316  10.9368  10.9369  12.5529  14.9581  14.9581
    20.5549  20.5550

          k = 0.0625 0.0625 0.3125 (   670 PWs)   bands (ev):

     4.6032   7.4474   8.1078   8.1079   8.3652   8.4358   8.4358   9.0853
     9.6705   9.6737   9.6990   9.6991  10.0361  10.2116  10.2859  10.4172
    10.4173  10.4317  10.7542  10.9610  10.9612  11.1095  16.1827  16.1827
    20.9033  20.9033

          k = 0.0625 0.0625 0.4375 (   673 PWs)   bands (ev):

     5.6161   6.7149   8.3462   8.3463   8.5927   8.7301   8.7301   8.8531
     9.1445   9.1445   9.7238   9.7944   9.9281  10.0880  10.1823  10.2635
    10.2636  10.4052  10.4144  10.5429  10.9513  10.9515  17.6162  17.6162
    19.2792  19.2792

          k = 0.0625 0.1875 0.1875 (   683 PWs)   bands (ev):

     4.2423   7.8311   7.8317   7.9447   8.2841   8.2841   8.2929   9.2452
     9.5291   9.5364  10.0422  10.0545  10.0546  10.0651  10.2181  10.4682
    10.5526  10.5526  10.7895  10.8631  10.8631  13.2828  13.2830  15.6156
    20.5657  20.9341

          k = 0.0625 0.1875 0.3125 (   672 PWs)   bands (ev):

     4.9510   7.6600   8.1389   8.1993   8.4477   8.4546   8.5068   9.1153
     9.5110   9.6009   9.6140   9.6824   9.7281  10.1021  10.3215  10.3541
    10.3831  10.4110  10.7349  10.7603  10.8325  11.7717  14.3126  16.7004
    18.7246  21.2316

          k = 0.0625 0.1875 0.4375 (   667 PWs)   bands (ev):

     5.9307   6.9805   8.4254   8.4699   8.6249   8.6752   8.7654   8.8994
     9.0660   9.1760   9.5281   9.5774   9.8711  10.1249  10.1875  10.1916
    10.2492  10.4883  10.6366  10.7719  10.8035  10.9696  15.5037  16.8844
    18.2214  19.7898

          k = 0.0625 0.3125 0.3125 (   672 PWs)   bands (ev):

     5.6161   8.0149   8.0154   8.3562   8.5626   8.6353   8.6354   9.0727
     9.2754   9.2757   9.4100   9.5554   9.7495  10.0981  10.1714  10.2575
    10.2576  10.6055  10.6055  10.6544  10.6562  12.6110  12.6114  16.5068
    17.8607  21.7410

          k = 0.0625 0.3125 0.4375 (   671 PWs)   bands (ev):

     6.5109   7.4350   8.3643   8.4612   8.7180   8.7967   8.8377   8.9491
     8.9932   9.1642   9.2802   9.4368   9.8522  10.0631  10.0853  10.1398
    10.1481  10.3836  10.5790  10.5804  10.9370  11.5104  13.6254  14.9101
    19.0935  20.6541

          k = 0.0625 0.4375 0.4375 (   668 PWs)   bands (ev):

     7.2421   7.9207   7.9209   8.2564   8.9533   8.9796   8.9799   8.9996
     9.0876   9.1208   9.1208   9.3234   9.8636   9.9639   9.9815   9.9816
    10.1726  10.3450  10.3451  10.3963  11.4437  12.2732  12.2736  13.3591
    20.3119  21.8387

          k = 0.1875 0.1875 0.1875 (   678 PWs)   bands (ev):

     4.5973   7.9678   7.9680   7.9683   8.3959   8.3960   8.3961   9.2365
     9.5317   9.5317   9.8504   9.8504   9.8505  10.2001  10.2001  10.3051
    10.3051  10.3052  10.8791  10.8791  10.8792  13.8273  13.8275  13.8276
    21.2116  21.2116

          k = 0.1875 0.1875 0.3125 (   671 PWs)   bands (ev):

     5.2788   7.7983   8.1912   8.1913   8.5640   8.5641   8.5744   9.1404
     9.4825   9.4826   9.5536   9.5900   9.5981  10.0962  10.1784  10.1786
    10.2380  10.3814  10.8551  10.8552  10.8915  12.1441  14.6892  14.6892
    19.2415  19.2415

          k = 0.1875 0.1875 0.4375 (   667 PWs)   bands (ev):

     6.2055   7.1755   8.4118   8.4119   8.6510   8.6511   8.7732   8.9779
     9.2250   9.2251   9.4489   9.5451   9.7484   9.8863  10.0930  10.0932
    10.4296  10.6491  10.7994  10.8042  10.8043  11.0353  15.6369  15.6369
    17.7148  17.7149

          k = 0.1875 0.3125 0.3125 (   673 PWs)   bands (ev):

     5.8955   7.9925   7.9928   8.2096   8.6965   8.7724   8.7727   9.1875
     9.3338   9.3339   9.4008   9.5449   9.5918   9.9836   9.9916   9.9916
    10.2978  10.6002  10.7234  10.8175  10.8175  12.8245  12.8250  15.1841
    17.4495  20.0823

          k = 0.1875 0.3125 0.4375 (   671 PWs)   bands (ev):

     6.6974   7.4729   8.1396   8.2055   8.8381   8.8849   9.0116   9.1520
     9.2862   9.3260   9.3672   9.4537   9.6551   9.7939   9.9046   9.9101
    10.4369  10.6919  10.7133  10.7221  10.8732  11.5141  13.7386  14.7885
    17.2702  18.4251

          k = 0.1875 0.4375 0.4375 (   664 PWs)   bands (ev):

     7.2655   7.7588   7.7589   7.9902   9.0759   9.1821   9.1822   9.3144
     9.3429   9.3431   9.3724   9.4554   9.6546   9.7737   9.7738   9.8062
    10.4173  10.5830  10.5830  10.6149  11.3507  12.2709  12.2713  13.3666
    18.1842  19.5360

          k = 0.3125 0.3125 0.3125 (   666 PWs)   bands (ev):

     6.3973   7.9351   7.9351   7.9351   8.9510   8.9512   8.9514   9.4025
     9.4578   9.4579   9.4580   9.5181   9.5181   9.8301   9.8302   9.8303
    10.5615  10.5615  10.8498  10.8498  10.8499  13.2606  13.2610  13.2613
    18.1520  18.1522

          k = 0.3125 0.3125 0.4375 (   663 PWs)   bands (ev):

     6.9922   7.5220   7.8973   7.8973   9.0629   9.0630   9.2476   9.4558
     9.5130   9.5454   9.5820   9.6249   9.6250   9.6343   9.7381   9.7382
    10.7506  10.7779  10.8033  10.8034  10.8395  11.6955  13.7150  13.7150
    16.9284  16.9285

          k = 0.3125 0.4375 0.4375 (   665 PWs)   bands (ev):

     7.2925   7.5915   7.5917   7.7118   9.2159   9.2820   9.2820   9.4114
     9.4908   9.5727   9.5727   9.6044   9.8976   9.8980   9.9248   9.9699
    10.6386  10.7694  10.7694  10.7711  11.1676  12.2337  12.2345  13.0772
    16.7814  17.7052

          k = 0.4375 0.4375 0.4375 (   666 PWs)   bands (ev):

     7.3625   7.4976   7.4977   7.4978   9.3612   9.3613   9.3613   9.4221
     9.4221   9.4637   9.4638   9.4638  10.4304  10.4306  10.4307  10.7507
    10.7508  10.7985  10.7986  10.7987  11.0524  12.1643  12.1649  12.1655
    16.6428  16.6432

          k = 0.1875 0.0625 0.0625 (   679 PWs)   bands (ev):

     3.8757   7.6499   7.8075   7.8081   8.1822   8.2034   8.2034   9.2592
     9.4966   9.5002  10.0691  10.2060  10.3026  10.3026  10.6056  10.6321
    10.6321  10.6463  10.9316  10.9368  10.9370  12.5529  14.9581  14.9581
    20.5548  20.5551

          k = 0.3125 0.0625 0.0625 (   670 PWs)   bands (ev):

     4.6032   7.4474   8.1075   8.1081   8.3652   8.4358   8.4358   9.0854
     9.6704   9.6737   9.6990   9.6990  10.0360  10.2116  10.2859  10.4172
    10.4172  10.4317  10.7542  10.9610  10.9612  11.1095  16.1827  16.1827
    20.9032  20.9034

          k = 0.4375 0.0625 0.0625 (   673 PWs)   bands (ev):

     5.6162   6.7149   8.3459   8.3466   8.5927   8.7301   8.7301   8.8532
     9.1445   9.1445   9.7238   9.7944   9.9281  10.0880  10.1823  10.2635
    10.2636  10.4052  10.4144  10.5429  10.9513  10.9515  17.6161  17.6163
    19.2791  19.2793

          k = 0.1875 0.1875 0.0625 (   683 PWs)   bands (ev):

     4.2423   7.8314   7.8314   7.9447   8.2841   8.2841   8.2929   9.2452
     9.5291   9.5364  10.0422  10.0545  10.0546  10.0651  10.2182  10.4682
    10.5526  10.5527  10.7895  10.8631  10.8632  13.2829  13.2829  15.6156
    20.5657  20.9341

          k = 0.1875 0.3125 0.0625 (   672 PWs)   bands (ev):

     4.9510   7.6600   8.1389   8.1993   8.4477   8.4546   8.5069   9.1153
     9.5110   9.6009   9.6140   9.6825   9.7281  10.1021  10.3215  10.3541
    10.3831  10.4110  10.7349  10.7603  10.8325  11.7717  14.3126  16.7004
    18.7246  21.2316

          k = 0.3125 0.0625 0.1875 (   672 PWs)   bands (ev):

     4.9510   7.6600   8.1389   8.1993   8.4477   8.4547   8.5068   9.1153
     9.5110   9.6009   9.6140   9.6824   9.7281  10.1020  10.3215  10.3541
    10.3831  10.4110  10.7349  10.7603  10.8325  11.7717  14.3126  16.7004
    18.7246  21.2316

          k = 0.1875 0.4375 0.0625 (   667 PWs)   bands (ev):

     5.9307   6.9805   8.4254   8.4699   8.6248   8.6752   8.7654   8.8994
     9.0659   9.1760   9.5280   9.5774   9.8711  10.1249  10.1875  10.1915
    10.2492  10.4883  10.6366  10.7719  10.8035  10.9696  15.5037  16.8844
    18.2214  19.7898

          k = 0.4375 0.0625 0.1875 (   667 PWs)   bands (ev):

     5.9307   6.9805   8.4254   8.4700   8.6248   8.6752   8.7654   8.8994
     9.0659   9.1760   9.5280   9.5774   9.8711  10.1249  10.1875  10.1915
    10.2492  10.4883  10.6366  10.7719  10.8035  10.9696  15.5037  16.8844
    18.2214  19.7898

          k = 0.3125 0.3125 0.0625 (   672 PWs)   bands (ev):

     5.6161   8.0151   8.0151   8.3561   8.5626   8.6353   8.6354   9.0727
     9.2755   9.2756   9.4100   9.5554   9.7495  10.0981  10.1714  10.2575
    10.2575  10.6054  10.6055  10.6545  10.6562  12.6111  12.6112  16.5068
    17.8607  21.7410

          k = 0.3125 0.4375 0.0625 (   671 PWs)   bands (ev):

     6.5109   7.4350   8.3643   8.4612   8.7180   8.7967   8.8377   8.9491
     8.9932   9.1642   9.2802   9.4368   9.8522  10.0631  10.0853  10.1398
    10.1481  10.3836  10.5790  10.5804  10.9370  11.5104  13.6253  14.9101
    19.0935  20.6541

          k = 0.4375 0.0625 0.3125 (   671 PWs)   bands (ev):

     6.5109   7.4350   8.3643   8.4612   8.7180   8.7967   8.8377   8.9491
     8.9932   9.1642   9.2802   9.4368   9.8522  10.0631  10.0853  10.1398
    10.1481  10.3836  10.5790  10.5804  10.9370  11.5104  13.6253  14.9101
    19.0935  20.6541

          k = 0.4375 0.4375 0.0625 (   668 PWs)   bands (ev):

     7.2421   7.9208   7.9208   8.2564   8.9534   8.9797   8.9798   8.9996
     9.0876   9.1207   9.1209   9.3234   9.8636   9.9639   9.9815   9.9816
    10.1726  10.3450  10.3451  10.3963  11.4437  12.2734  12.2735  13.3591
    20.3119  21.8386

          k = 0.3125 0.1875 0.1875 (   671 PWs)   bands (ev):

     5.2788   7.7983   8.1911   8.1914   8.5639   8.5642   8.5745   9.1404
     9.4825   9.4825   9.5536   9.5900   9.5981  10.0962  10.1785  10.1785
    10.2380  10.3814  10.8551  10.8552  10.8915  12.1441  14.6890  14.6894
    19.2414  19.2416

          k = 0.4375 0.1875 0.1875 (   667 PWs)   bands (ev):

     6.2055   7.1755   8.4118   8.4119   8.6508   8.6513   8.7732   8.9779
     9.2250   9.2251   9.4489   9.5451   9.7484   9.8863  10.0930  10.0932
    10.4296  10.6491  10.7994  10.8042  10.8043  11.0352  15.6364  15.6373
    17.7145  17.7152

          k = 0.3125 0.3125 0.1875 (   673 PWs)   bands (ev):

     5.8955   7.9926   7.9927   8.2096   8.6965   8.7726   8.7726   9.1875
     9.3338   9.3339   9.4008   9.5449   9.5918   9.9836   9.9916   9.9917
    10.2977  10.6003  10.7234  10.8175  10.8175  12.8247  12.8248  15.1841
    17.4495  20.0823

          k = 0.3125 0.4375 0.1875 (   671 PWs)   bands (ev):

     6.6974   7.4729   8.1396   8.2055   8.8382   8.8849   9.0116   9.1520
     9.2862   9.3260   9.3672   9.4537   9.6551   9.7939   9.9046   9.9101
    10.4369  10.6919  10.7133  10.7221  10.8732  11.5141  13.7386  14.7885
    17.2702  18.4251

          k = 0.4375 0.1875 0.3125 (   671 PWs)   bands (ev):

     6.6974   7.4729   8.1396   8.2055   8.8382   8.8849   9.0116   9.1520
     9.2862   9.3260   9.3672   9.4537   9.6551   9.7939   9.9045   9.9101
    10.4369  10.6919  10.7133  10.7221  10.8732  11.5141  13.7386  14.7885
    17.2702  18.4251

          k = 0.4375 0.4375 0.1875 (   664 PWs)   bands (ev):

     7.2655   7.7588   7.7589   7.9902   9.0760   9.1821   9.1822   9.3144
     9.3430   9.3430   9.3724   9.4554   9.6546   9.7737   9.7738   9.8062
    10.4173  10.5829  10.5830  10.6149  11.3507  12.2710  12.2711  13.3666
    18.1842  19.5359

          k = 0.4375 0.3125 0.3125 (   663 PWs)   bands (ev):

     6.9922   7.5220   7.8973   7.8974   9.0628   9.0632   9.2475   9.4558
     9.5131   9.5454   9.5820   9.6249   9.6250   9.6343   9.7381   9.7382
    10.7506  10.7779  10.8033  10.8034  10.8395  11.6955  13.7145  13.7156
    16.9281  16.9289

          k = 0.4375 0.4375 0.3125 (   665 PWs)   bands (ev):

     7.2925   7.5916   7.5916   7.7118   9.2159   9.2820   9.2820   9.4114
     9.4908   9.5727   9.5727   9.6044   9.8978   9.8978   9.9248   9.9699
    10.6386  10.7694  10.7694  10.7711  11.1676  12.2340  12.2341  13.0772
    16.7814  17.7049

 ------ SPIN DOWN ----------


          k = 0.0625 0.0625 0.0625 (   685 PWs)   bands (ev):

     3.5008   7.6443   7.6446   7.6449   8.0813   8.0813   8.0813   9.3533
     9.4085   9.4086  10.1511  10.1512  10.7779  10.7780  10.7780  10.7882
    10.7882  10.7884  10.9401  10.9402  10.9403  14.1651  14.1651  14.1651
    20.3785  20.3787

          k = 0.0625 0.0625 0.1875 (   679 PWs)   bands (ev):

     3.8757   7.6499   7.8078   7.8079   8.1822   8.2034   8.2034   9.2592
     9.4966   9.5002  10.0691  10.2060  10.3026  10.3026  10.6056  10.6321
    10.6322  10.6463  10.9316  10.9368  10.9369  12.5529  14.9581  14.9581
    20.5550  20.5550

          k = 0.0625 0.0625 0.3125 (   670 PWs)   bands (ev):

     4.6032   7.4474   8.1078   8.1079   8.3652   8.4358   8.4358   9.0853
     9.6705   9.6738   9.6990   9.6991  10.0361  10.2116  10.2859  10.4172
    10.4173  10.4317  10.7542  10.9610  10.9612  11.1095  16.1827  16.1827
    20.9033  20.9033

          k = 0.0625 0.0625 0.4375 (   673 PWs)   bands (ev):

     5.6162   6.7149   8.3462   8.3463   8.5927   8.7301   8.7301   8.8531
     9.1445   9.1445   9.7238   9.7944   9.9281  10.0880  10.1823  10.2635
    10.2636  10.4052  10.4144  10.5429  10.9513  10.9515  17.6162  17.6162
    19.2792  19.2792

          k = 0.0625 0.1875 0.1875 (   683 PWs)   bands (ev):

     4.2424   7.8311   7.8317   7.9447   8.2841   8.2841   8.2929   9.2452
     9.5291   9.5364  10.0422  10.0546  10.0546  10.0651  10.2181  10.4682
    10.5526  10.5527  10.7895  10.8631  10.8632  13.2828  13.2830  15.6156
    20.5657  20.9341

          k = 0.0625 0.1875 0.3125 (   672 PWs)   bands (ev):

     4.9510   7.6600   8.1389   8.1993   8.4477   8.4546   8.5068   9.1153
     9.5110   9.6009   9.6140   9.6824   9.7281  10.1021  10.3215  10.3541
    10.3831  10.4110  10.7349  10.7603  10.8325  11.7717  14.3126  16.7004
    18.7246  21.2316

          k = 0.0625 0.1875 0.4375 (   667 PWs)   bands (ev):

     5.9307   6.9805   8.4254   8.4699   8.6249   8.6752   8.7654   8.8994
     9.0660   9.1760   9.5281   9.5774   9.8711  10.1249  10.1876  10.1916
    10.2492  10.4883  10.6366  10.7719  10.8035  10.9696  15.5037  16.8844
    18.2214  19.7898

          k = 0.0625 0.3125 0.3125 (   672 PWs)   bands (ev):

     5.6161   8.0149   8.0154   8.3562   8.5626   8.6353   8.6354   9.0727
     9.2754   9.2756   9.4100   9.5554   9.7495  10.0981  10.1714  10.2575
    10.2576  10.6055  10.6055  10.6545  10.6562  12.6110  12.6114  16.5068
    17.8607  21.7410

          k = 0.0625 0.3125 0.4375 (   671 PWs)   bands (ev):

     6.5109   7.4350   8.3643   8.4612   8.7180   8.7967   8.8377   8.9491
     8.9932   9.1642   9.2802   9.4368   9.8522  10.0631  10.0853  10.1398
    10.1481  10.3836  10.5790  10.5804  10.9370  11.5104  13.6254  14.9101
    19.0935  20.6541

          k = 0.0625 0.4375 0.4375 (   668 PWs)   bands (ev):

     7.2421   7.9207   7.9209   8.2564   8.9534   8.9797   8.9798   8.9996
     9.0876   9.1208   9.1208   9.3234   9.8636   9.9639   9.9815   9.9816
    10.1726  10.3450  10.3451  10.3963  11.4437  12.2732  12.2736  13.3591
    20.3119  21.8387

          k = 0.1875 0.1875 0.1875 (   678 PWs)   bands (ev):

     4.5973   7.9678   7.9680   7.9683   8.3960   8.3960   8.3961   9.2365
     9.5317   9.5317   9.8504   9.8505   9.8505  10.2001  10.2001  10.3051
    10.3052  10.3052  10.8790  10.8792  10.8792  13.8273  13.8275  13.8276
    21.2116  21.2116

          k = 0.1875 0.1875 0.3125 (   671 PWs)   bands (ev):

     5.2788   7.7983   8.1912   8.1913   8.5640   8.5641   8.5744   9.1404
     9.4825   9.4826   9.5536   9.5900   9.5982  10.0962  10.1784  10.1786
    10.2380  10.3814  10.8551  10.8552  10.8915  12.1441  14.6892  14.6892
    19.2415  19.2415

          k = 0.1875 0.1875 0.4375 (   667 PWs)   bands (ev):

     6.2055   7.1755   8.4118   8.4119   8.6510   8.6511   8.7732   8.9779
     9.2250   9.2251   9.4489   9.5451   9.7484   9.8863  10.0930  10.0932
    10.4296  10.6491  10.7994  10.8042  10.8043  11.0353  15.6369  15.6369
    17.7148  17.7148

          k = 0.1875 0.3125 0.3125 (   673 PWs)   bands (ev):

     5.8955   7.9926   7.9928   8.2096   8.6965   8.7724   8.7727   9.1875
     9.3338   9.3339   9.4008   9.5449   9.5918   9.9836   9.9916   9.9917
    10.2978  10.6003  10.7234  10.8175  10.8175  12.8245  12.8250  15.1841
    17.4495  20.0823

          k = 0.1875 0.3125 0.4375 (   671 PWs)   bands (ev):

     6.6974   7.4729   8.1396   8.2055   8.8381   8.8849   9.0116   9.1520
     9.2862   9.3260   9.3672   9.4537   9.6551   9.7939   9.9046   9.9101
    10.4369  10.6919  10.7133  10.7221  10.8732  11.5141  13.7386  14.7886
    17.2702  18.4251

          k = 0.1875 0.4375 0.4375 (   664 PWs)   bands (ev):

     7.2655   7.7588   7.7589   7.9902   9.0759   9.1821   9.1823   9.3144
     9.3429   9.3431   9.3724   9.4554   9.6546   9.7737   9.7738   9.8062
    10.4173  10.5829  10.5830  10.6149  11.3507  12.2708  12.2713  13.3666
    18.1842  19.5360

          k = 0.3125 0.3125 0.3125 (   666 PWs)   bands (ev):

     6.3973   7.9351   7.9351   7.9351   8.9510   8.9512   8.9514   9.4025
     9.4578   9.4579   9.4580   9.5181   9.5181   9.8301   9.8302   9.8303
    10.5615  10.5615  10.8497  10.8499  10.8499  13.2606  13.2610  13.2613
    18.1520  18.1522

          k = 0.3125 0.3125 0.4375 (   663 PWs)   bands (ev):

     6.9922   7.5220   7.8973   7.8973   9.0629   9.0630   9.2476   9.4558
     9.5130   9.5454   9.5820   9.6249   9.6250   9.6343   9.7381   9.7382
    10.7506  10.7779  10.8033  10.8034  10.8395  11.6955  13.7150  13.7150
    16.9285  16.9285

          k = 0.3125 0.4375 0.4375 (   665 PWs)   bands (ev):

     7.2925   7.5915   7.5917   7.7118   9.2159   9.2820   9.2820   9.4114
     9.4908   9.5727   9.5728   9.6044   9.8976   9.8980   9.9248   9.9699
    10.6386  10.7694  10.7694  10.7711  11.1676  12.2337  12.2345  13.0772
    16.7814  17.7052

          k = 0.4375 0.4375 0.4375 (   666 PWs)   bands (ev):

     7.3625   7.4976   7.4977   7.4979   9.3612   9.3613   9.3613   9.4221
     9.4221   9.4637   9.4637   9.4638  10.4304  10.4306  10.4307  10.7508
    10.7508  10.7985  10.7986  10.7986  11.0524  12.1643  12.1649  12.1655
    16.6428  16.6432

          k = 0.1875 0.0625 0.0625 (   679 PWs)   bands (ev):

     3.8757   7.6499   7.8076   7.8081   8.1822   8.2034   8.2034   9.2592
     9.4966   9.5002  10.0691  10.2060  10.3026  10.3026  10.6056  10.6321
    10.6321  10.6463  10.9316  10.9367  10.9370  12.5529  14.9581  14.9581
    20.5548  20.5551

          k = 0.3125 0.0625 0.0625 (   670 PWs)   bands (ev):

     4.6032   7.4474   8.1075   8.1081   8.3652   8.4358   8.4358   9.0854
     9.6704   9.6737   9.6990   9.6990  10.0360  10.2116  10.2859  10.4172
    10.4172  10.4317  10.7542  10.9610  10.9613  11.1095  16.1827  16.1827
    20.9032  20.9034

          k = 0.4375 0.0625 0.0625 (   673 PWs)   bands (ev):

     5.6162   6.7149   8.3460   8.3465   8.5927   8.7301   8.7301   8.8532
     9.1445   9.1445   9.7238   9.7944   9.9281  10.0880  10.1823  10.2635
    10.2635  10.4052  10.4144  10.5429  10.9513  10.9516  17.6161  17.6164
    19.2791  19.2793

          k = 0.1875 0.1875 0.0625 (   683 PWs)   bands (ev):

     4.2424   7.8314   7.8314   7.9447   8.2841   8.2841   8.2929   9.2452
     9.5291   9.5364  10.0422  10.0545  10.0546  10.0651  10.2182  10.4682
    10.5526  10.5527  10.7895  10.8631  10.8632  13.2829  13.2829  15.6156
    20.5657  20.9341

          k = 0.1875 0.3125 0.0625 (   672 PWs)   bands (ev):

     4.9510   7.6600   8.1389   8.1993   8.4477   8.4546   8.5069   9.1153
     9.5110   9.6009   9.6140   9.6825   9.7281  10.1021  10.3215  10.3541
    10.3831  10.4110  10.7349  10.7603  10.8325  11.7717  14.3126  16.7004
    18.7246  21.2316

          k = 0.3125 0.0625 0.1875 (   672 PWs)   bands (ev):

     4.9510   7.6600   8.1389   8.1993   8.4477   8.4547   8.5068   9.1153
     9.5110   9.6009   9.6140   9.6824   9.7281  10.1021  10.3215  10.3541
    10.3831  10.4110  10.7349  10.7603  10.8325  11.7717  14.3126  16.7004
    18.7246  21.2316

          k = 0.1875 0.4375 0.0625 (   667 PWs)   bands (ev):

     5.9307   6.9805   8.4254   8.4700   8.6248   8.6752   8.7654   8.8994
     9.0659   9.1760   9.5281   9.5774   9.8711  10.1249  10.1875  10.1915
    10.2492  10.4883  10.6366  10.7719  10.8035  10.9696  15.5037  16.8844
    18.2214  19.7898

          k = 0.4375 0.0625 0.1875 (   667 PWs)   bands (ev):

     5.9307   6.9805   8.4254   8.4700   8.6248   8.6752   8.7654   8.8994
     9.0659   9.1760   9.5280   9.5774   9.8711  10.1249  10.1875  10.1915
    10.2492  10.4883  10.6367  10.7719  10.8035  10.9696  15.5037  16.8844
    18.2214  19.7898

          k = 0.3125 0.3125 0.0625 (   672 PWs)   bands (ev):

     5.6161   8.0151   8.0151   8.3561   8.5626   8.6353   8.6354   9.0727
     9.2755   9.2756   9.4100   9.5554   9.7495  10.0981  10.1714  10.2575
    10.2575  10.6054  10.6055  10.6545  10.6562  12.6111  12.6112  16.5068
    17.8607  21.7410

          k = 0.3125 0.4375 0.0625 (   671 PWs)   bands (ev):

     6.5109   7.4350   8.3643   8.4612   8.7180   8.7967   8.8377   8.9491
     8.9932   9.1642   9.2802   9.4368   9.8522  10.0631  10.0853  10.1398
    10.1481  10.3836  10.5790  10.5804  10.9370  11.5104  13.6253  14.9101
    19.0935  20.6541

          k = 0.4375 0.0625 0.3125 (   671 PWs)   bands (ev):

     6.5109   7.4350   8.3643   8.4612   8.7180   8.7967   8.8377   8.9491
     8.9932   9.1642   9.2802   9.4368   9.8522  10.0631  10.0853  10.1398
    10.1481  10.3836  10.5790  10.5804  10.9370  11.5104  13.6253  14.9101
    19.0935  20.6541

          k = 0.4375 0.4375 0.0625 (   668 PWs)   bands (ev):

     7.2421   7.9208   7.9208   8.2564   8.9534   8.9797   8.9798   8.9996
     9.0876   9.1207   9.1209   9.3234   9.8636   9.9639   9.9815   9.9816
    10.1726  10.3450  10.3451  10.3963  11.4437  12.2734  12.2735  13.3591
    20.3119  21.8386

          k = 0.3125 0.1875 0.1875 (   671 PWs)   bands (ev):

     5.2788   7.7983   8.1911   8.1914   8.5640   8.5642   8.5745   9.1404
     9.4825   9.4825   9.5536   9.5900   9.5981  10.0962  10.1785  10.1785
    10.2380  10.3814  10.8551  10.8552  10.8915  12.1441  14.6890  14.6894
    19.2414  19.2416

          k = 0.4375 0.1875 0.1875 (   667 PWs)   bands (ev):

     6.2055   7.1755   8.4119   8.4119   8.6508   8.6513   8.7732   8.9779
     9.2250   9.2251   9.4489   9.5451   9.7484   9.8863  10.0931  10.0931
    10.4296  10.6491  10.7994  10.8042  10.8044  11.0352  15.6364  15.6374
    17.7145  17.7152

          k = 0.3125 0.3125 0.1875 (   673 PWs)   bands (ev):

     5.8955   7.9926   7.9927   8.2096   8.6965   8.7726   8.7726   9.1875
     9.3338   9.3339   9.4008   9.5449   9.5918   9.9836   9.9916   9.9917
    10.2977  10.6003  10.7234  10.8175  10.8175  12.8247  12.8248  15.1841
    17.4495  20.0823

          k = 0.3125 0.4375 0.1875 (   671 PWs)   bands (ev):

     6.6974   7.4729   8.1396   8.2055   8.8382   8.8849   9.0116   9.1520
     9.2862   9.3260   9.3672   9.4537   9.6551   9.7939   9.9046   9.9101
    10.4369  10.6919  10.7133  10.7221  10.8732  11.5141  13.7386  14.7886
    17.2702  18.4251

          k = 0.4375 0.1875 0.3125 (   671 PWs)   bands (ev):

     6.6974   7.4729   8.1396   8.2055   8.8382   8.8849   9.0116   9.1520
     9.2862   9.3260   9.3672   9.4537   9.6551   9.7939   9.9046   9.9101
    10.4369  10.6919  10.7133  10.7221  10.8732  11.5141  13.7386  14.7886
    17.2702  18.4251

          k = 0.4375 0.4375 0.1875 (   664 PWs)   bands (ev):

     7.2655   7.7588   7.7589   7.9902   9.0760   9.1821   9.1822   9.3144
     9.3430   9.3430   9.3724   9.4554   9.6546   9.7737   9.7738   9.8062
    10.4173  10.5829  10.5830  10.6149  11.3507  12.2710  12.2711  13.3666
    18.1842  19.5359

          k = 0.4375 0.3125 0.3125 (   663 PWs)   bands (ev):

     6.9922   7.5220   7.8972   7.8974   9.0628   9.0631   9.2475   9.4558
     9.5131   9.5454   9.5820   9.6249   9.6251   9.6343   9.7381   9.7381
    10.7506  10.7779  10.8033  10.8034  10.8395  11.6955  13.7145  13.7156
    16.9281  16.9289

          k = 0.4375 0.4375 0.3125 (   665 PWs)   bands (ev):

     7.2925   7.5916   7.5916   7.7118   9.2159   9.2820   9.2820   9.4114
     9.4908   9.5727   9.5727   9.6044   9.8978   9.8978   9.9248   9.9699
    10.6386  10.7694  10.7694  10.7711  11.1676  12.2341  12.2341  13.0772
    16.7814  17.7049

     the Fermi energy is    12.5690 ev

!    total energy              =    -490.50735608 Ry
     Harris-Foulkes estimate   =    -490.50735636 Ry
     estimated scf accuracy    <       0.00000045 Ry

     The total energy is the sum of the following terms:

     one-electron contribution =    -108.07088813 Ry
     hartree contribution      =     120.88905483 Ry
     xc contribution           =    -178.03938230 Ry
     ewald contribution        =    -325.28614540 Ry
     smearing contrib. (-TS)   =       0.00000491 Ry

     total magnetization       =     0.00 Bohr mag/cell
     absolute magnetization    =     0.00 Bohr mag/cell

     convergence has been achieved in   7 iterations

     Writing output data file cu-25.save/

     init_run     :      0.69s CPU      0.72s WALL (       1 calls)
     electrons    :     10.32s CPU     10.62s WALL (       1 calls)

     Called by init_run:
     wfcinit      :      0.56s CPU      0.59s WALL (       1 calls)
     potinit      :      0.01s CPU      0.01s WALL (       1 calls)
     hinit0       :      0.10s CPU      0.11s WALL (       1 calls)

     Called by electrons:
     c_bands      :      9.15s CPU      9.40s WALL (       7 calls)
     sum_band     :      1.09s CPU      1.14s WALL (       7 calls)
     v_of_rho     :      0.03s CPU      0.03s WALL (       8 calls)
     newd         :      0.05s CPU      0.05s WALL (       8 calls)
     mix_rho      :      0.00s CPU      0.00s WALL (       7 calls)

     Called by c_bands:
     init_us_2    :      0.07s CPU      0.07s WALL (    1200 calls)
     cegterg      :      8.78s CPU      9.03s WALL (     560 calls)

     Called by sum_band:
     sum_band:bec :      0.03s CPU      0.03s WALL (     560 calls)
     addusdens    :      0.05s CPU      0.05s WALL (       7 calls)

     Called by *egterg:
     h_psi        :      4.55s CPU      4.69s WALL (    2032 calls)
     s_psi        :      0.55s CPU      0.58s WALL (    2032 calls)
     g_psi        :      0.02s CPU      0.02s WALL (    1392 calls)
     cdiaghg      :      2.20s CPU      2.25s WALL (    1952 calls)

     Called by h_psi:
     h_psi:pot    :      4.53s CPU      4.68s WALL (    2032 calls)
     h_psi:calbec :      0.79s CPU      0.82s WALL (    2032 calls)
     vloc_psi     :      3.20s CPU      3.29s WALL (    2032 calls)
     add_vuspsi   :      0.54s CPU      0.56s WALL (    2032 calls)

     General routines
     calbec       :      1.08s CPU      1.13s WALL (    2592 calls)
     fft          :      0.02s CPU      0.02s WALL (     166 calls)
     ffts         :      0.00s CPU      0.00s WALL (      14 calls)
     fftw         :      3.51s CPU      3.61s WALL (   92866 calls)

     Parallel routines
     fft_scatt_xy :      0.28s CPU      0.28s WALL (   93046 calls)
     fft_scatt_yz :      1.64s CPU      1.68s WALL (   93046 calls)

     PWSCF        :     12.45s CPU     12.82s WALL


   This run was terminated on:  19: 4:22  17Mar2022            

=------------------------------------------------------------------------------=
   JOB DONE.
=------------------------------------------------------------------------------=
