
     Program PWSCF v.6.4.1 starts on 17Mar2022 at 19: 6:13 

     This program is part of the open-source Quantum ESPRESSO suite
     for quantum simulation of materials; please cite
         "P. Giannozzi et al., J. Phys.:Condens. Matter 21 395502 (2009);
         "P. Giannozzi et al., J. Phys.:Condens. Matter 29 465901 (2017);
          URL http://www.quantum-espresso.org", 
     in publications or presentations arising from this work. More details at
     http://www.quantum-espresso.org/quote

     Parallel version (MPI), running on     6 processors

     MPI processes distributed on     1 nodes
     R & G space division:  proc/nbgrp/npool/nimage =       6
     Reading input from cu-55.in
Warning: card CU1   63.546    CU.PBE-DN-RRKJUS_PSL.1.0.0.UPF ignored
Warning: card CU2   63.546    CU.PBE-DN-RRKJUS_PSL.1.0.0.UPF ignored

     Current dimensions of program PWSCF are:
     Max number of different atomic species (ntypx) = 10
     Max number of k-points (npk) =  40000
     Max angular momentum in pseudopotentials (lmaxx) =  3
               file Cu.pbe-dn-rrkjus_psl.1.0.0.UPF: wavefunction(s)  3D renormalized
               file Cu.pbe-dn-rrkjus_psl.1.0.0.UPF: wavefunction(s)  3D renormalized

     Subspace diagonalization in iterative solution of the eigenvalue problem:
     a serial algorithm will be used

     Found symmetry operation: I + (  0.0000 -0.5000 -0.5000)
     This is a supercell, fractional translations are disabled
     Message from routine setup:
     DEPRECATED: symmetry with ibrav=0, use correct ibrav instead

     Parallelization info
     --------------------
     sticks:   dense  smooth     PW     G-vecs:    dense   smooth      PW
     Min         133     133     40                 2909     2909     482
     Max         135     135     41                 2911     2911     485
     Sum         805     805    241                17461    17461    2897



     bravais-lattice index     =            0
     lattice parameter (alat)  =       6.8219  a.u.
     unit-cell volume          =     317.4813 (a.u.)^3
     number of atoms/cell      =            4
     number of atomic types    =            2
     number of electrons       =        44.00
     number of Kohn-Sham states=           26
     kinetic-energy cutoff     =      55.0000  Ry
     charge density cutoff     =     220.0000  Ry
     convergence threshold     =      1.0E-06
     mixing beta               =       0.7000
     number of iterations used =            8  plain     mixing
     Exchange-correlation      = PBE ( 1  4  3  4 0 0)

     celldm(1)=   6.821911  celldm(2)=   0.000000  celldm(3)=   0.000000
     celldm(4)=   0.000000  celldm(5)=   0.000000  celldm(6)=   0.000000

     crystal axes: (cart. coord. in units of alat)
               a(1) = (   1.000000   0.000000   0.000000 )  
               a(2) = (   0.000000   1.000000   0.000000 )  
               a(3) = (   0.000000   0.000000   1.000000 )  

     reciprocal axes: (cart. coord. in units 2 pi/alat)
               b(1) = (  1.000000  0.000000  0.000000 )  
               b(2) = (  0.000000  1.000000  0.000000 )  
               b(3) = (  0.000000  0.000000  1.000000 )  


     PseudoPot. # 1 for Cu read from file:
     /home/cristian/Escritorio/Proyecto_Grafeno/pseudopotenciales/Cu.pbe-dn-rrkjus_psl.1.0.0.UPF
     MD5 check sum: ba3d6c84e19846e79d48cdc68ff7152b
     Pseudo is Ultrasoft + core correction, Zval = 11.0
     Generated using "atomic" code by A. Dal Corso v.6.3
     Using radial grid of 1199 points,  6 beta functions with: 
                l(1) =   0
                l(2) =   0
                l(3) =   1
                l(4) =   1
                l(5) =   2
                l(6) =   2
     Q(r) pseudized with 0 coefficients 


     PseudoPot. # 2 for Cu read from file:
     /home/cristian/Escritorio/Proyecto_Grafeno/pseudopotenciales/Cu.pbe-dn-rrkjus_psl.1.0.0.UPF
     MD5 check sum: ba3d6c84e19846e79d48cdc68ff7152b
     Pseudo is Ultrasoft + core correction, Zval = 11.0
     Generated using "atomic" code by A. Dal Corso v.6.3
     Using radial grid of 1199 points,  6 beta functions with: 
                l(1) =   0
                l(2) =   0
                l(3) =   1
                l(4) =   1
                l(5) =   2
                l(6) =   2
     Q(r) pseudized with 0 coefficients 


     atomic species   valence    mass     pseudopotential
        Cu1           11.00    63.54600     Cu( 1.00)
        Cu2           11.00    63.54600     Cu( 1.00)

     Starting magnetic structure 
     atomic species   magnetization
        Cu1          0.100
        Cu2         -0.100

     16 Sym. Ops., with inversion, found



   Cartesian axes

     site n.     atom                  positions (alat units)
         1           Cu1 tau(   1) = (   0.0000000   0.0000000   0.0000000  )
         2           Cu2 tau(   2) = (   0.5000000   0.5000000   0.0000000  )
         3           Cu1 tau(   3) = (   0.0000000   0.5000000   0.5000000  )
         4           Cu2 tau(   4) = (   0.5000000   0.0000000   0.5000000  )

     number of k points=    40  Methfessel-Paxton smearing, width (Ry)=  0.0300
                       cart. coord. in units 2pi/alat
        k(    1) = (   0.0625000   0.0625000   0.0625000), wk =   0.0156250
        k(    2) = (   0.0625000   0.0625000   0.1875000), wk =   0.0312500
        k(    3) = (   0.0625000   0.0625000   0.3125000), wk =   0.0312500
        k(    4) = (   0.0625000   0.0625000   0.4375000), wk =   0.0312500
        k(    5) = (   0.0625000   0.1875000   0.1875000), wk =   0.0156250
        k(    6) = (   0.0625000   0.1875000   0.3125000), wk =   0.0312500
        k(    7) = (   0.0625000   0.1875000   0.4375000), wk =   0.0312500
        k(    8) = (   0.0625000   0.3125000   0.3125000), wk =   0.0156250
        k(    9) = (   0.0625000   0.3125000   0.4375000), wk =   0.0312500
        k(   10) = (   0.0625000   0.4375000   0.4375000), wk =   0.0156250
        k(   11) = (   0.1875000   0.1875000   0.1875000), wk =   0.0156250
        k(   12) = (   0.1875000   0.1875000   0.3125000), wk =   0.0312500
        k(   13) = (   0.1875000   0.1875000   0.4375000), wk =   0.0312500
        k(   14) = (   0.1875000   0.3125000   0.3125000), wk =   0.0156250
        k(   15) = (   0.1875000   0.3125000   0.4375000), wk =   0.0312500
        k(   16) = (   0.1875000   0.4375000   0.4375000), wk =   0.0156250
        k(   17) = (   0.3125000   0.3125000   0.3125000), wk =   0.0156250
        k(   18) = (   0.3125000   0.3125000   0.4375000), wk =   0.0312500
        k(   19) = (   0.3125000   0.4375000   0.4375000), wk =   0.0156250
        k(   20) = (   0.4375000   0.4375000   0.4375000), wk =   0.0156250
        k(   21) = (   0.1875000   0.0625000   0.0625000), wk =   0.0156250
        k(   22) = (   0.3125000   0.0625000   0.0625000), wk =   0.0156250
        k(   23) = (   0.4375000   0.0625000   0.0625000), wk =   0.0156250
        k(   24) = (   0.1875000   0.1875000   0.0625000), wk =   0.0312500
        k(   25) = (   0.1875000   0.3125000   0.0625000), wk =   0.0312500
        k(   26) = (   0.3125000   0.0625000   0.1875000), wk =   0.0312500
        k(   27) = (   0.1875000   0.4375000   0.0625000), wk =   0.0312500
        k(   28) = (   0.4375000   0.0625000   0.1875000), wk =   0.0312500
        k(   29) = (   0.3125000   0.3125000   0.0625000), wk =   0.0312500
        k(   30) = (   0.3125000   0.4375000   0.0625000), wk =   0.0312500
        k(   31) = (   0.4375000   0.0625000   0.3125000), wk =   0.0312500
        k(   32) = (   0.4375000   0.4375000   0.0625000), wk =   0.0312500
        k(   33) = (   0.3125000   0.1875000   0.1875000), wk =   0.0156250
        k(   34) = (   0.4375000   0.1875000   0.1875000), wk =   0.0156250
        k(   35) = (   0.3125000   0.3125000   0.1875000), wk =   0.0312500
        k(   36) = (   0.3125000   0.4375000   0.1875000), wk =   0.0312500
        k(   37) = (   0.4375000   0.1875000   0.3125000), wk =   0.0312500
        k(   38) = (   0.4375000   0.4375000   0.1875000), wk =   0.0312500
        k(   39) = (   0.4375000   0.3125000   0.3125000), wk =   0.0156250
        k(   40) = (   0.4375000   0.4375000   0.3125000), wk =   0.0312500

     Dense  grid:    17461 G-vectors     FFT dimensions: (  36,  36,  36)

     Estimated max dynamical RAM per process >      26.09 MB

     Estimated total dynamical RAM >     156.56 MB
     Generating pointlists ...
     new r_m :   0.2917 (alat units)  1.9898 (a.u.) for type    1
     new r_m :   0.2917 (alat units)  1.9898 (a.u.) for type    2

     Initial potential from superposition of free atoms

     starting charge   43.99908, renormalised to   44.00000
     Starting wfcs are   36 randomized atomic wfcs

     total cpu time spent up to now is        3.3 secs

     Self-consistent Calculation

     iteration #  1     ecut=    55.00 Ry     beta= 0.70
     Davidson diagonalization with overlap
     ethr =  1.00E-02,  avg # of iterations =  2.4

     Threshold (ethr) on eigenvalues was too large:
     Diagonalizing with lowered threshold

     Davidson diagonalization with overlap
     ethr =  6.40E-04,  avg # of iterations =  2.3

     total cpu time spent up to now is       10.5 secs

     total energy              =    -490.83093611 Ry
     Harris-Foulkes estimate   =    -490.98316425 Ry
     estimated scf accuracy    <       0.33115045 Ry

     total magnetization       =    -0.00 Bohr mag/cell
     absolute magnetization    =     0.74 Bohr mag/cell

     iteration #  2     ecut=    55.00 Ry     beta= 0.70
     Davidson diagonalization with overlap
     ethr =  7.53E-04,  avg # of iterations =  2.5

     total cpu time spent up to now is       15.3 secs

     total energy              =    -490.82739681 Ry
     Harris-Foulkes estimate   =    -491.16730252 Ry
     estimated scf accuracy    <       0.87642781 Ry

     total magnetization       =     0.00 Bohr mag/cell
     absolute magnetization    =     0.17 Bohr mag/cell

     iteration #  3     ecut=    55.00 Ry     beta= 0.70
     Davidson diagonalization with overlap
     ethr =  7.53E-04,  avg # of iterations =  2.0

     total cpu time spent up to now is       19.9 secs

     total energy              =    -490.98407038 Ry
     Harris-Foulkes estimate   =    -490.98011124 Ry
     estimated scf accuracy    <       0.01495366 Ry

     total magnetization       =    -0.00 Bohr mag/cell
     absolute magnetization    =     0.23 Bohr mag/cell

     iteration #  4     ecut=    55.00 Ry     beta= 0.70
     Davidson diagonalization with overlap
     ethr =  3.40E-05,  avg # of iterations =  1.9

     total cpu time spent up to now is       23.4 secs

     total energy              =    -490.98600815 Ry
     Harris-Foulkes estimate   =    -490.98599243 Ry
     estimated scf accuracy    <       0.00004579 Ry

     total magnetization       =     0.00 Bohr mag/cell
     absolute magnetization    =     0.02 Bohr mag/cell

     iteration #  5     ecut=    55.00 Ry     beta= 0.70
     Davidson diagonalization with overlap
     ethr =  1.04E-07,  avg # of iterations =  3.6

     total cpu time spent up to now is       29.3 secs

     total energy              =    -490.98604308 Ry
     Harris-Foulkes estimate   =    -490.98608171 Ry
     estimated scf accuracy    <       0.00014698 Ry

     total magnetization       =    -0.00 Bohr mag/cell
     absolute magnetization    =     0.01 Bohr mag/cell

     iteration #  6     ecut=    55.00 Ry     beta= 0.70
     Davidson diagonalization with overlap
     ethr =  1.04E-07,  avg # of iterations =  2.1

     total cpu time spent up to now is       33.5 secs

     total energy              =    -490.98606590 Ry
     Harris-Foulkes estimate   =    -490.98606570 Ry
     estimated scf accuracy    <       0.00000905 Ry

     total magnetization       =     0.00 Bohr mag/cell
     absolute magnetization    =     0.01 Bohr mag/cell

     iteration #  7     ecut=    55.00 Ry     beta= 0.70
     Davidson diagonalization with overlap
     ethr =  2.06E-08,  avg # of iterations =  1.9

     Magnetic moment per site:
     atom:    1    charge:    9.8228    magn:    0.0000    constr:    0.0000
     atom:    2    charge:    9.8228    magn:   -0.0000    constr:    0.0000
     atom:    3    charge:    9.8227    magn:    0.0000    constr:    0.0000
     atom:    4    charge:    9.8228    magn:   -0.0000    constr:    0.0000

     total cpu time spent up to now is       37.0 secs

     End of self-consistent calculation

 ------ SPIN UP ------------


          k = 0.0625 0.0625 0.0625 (  2166 PWs)   bands (ev):

     3.4530   7.8832   7.8836   7.8839   8.3527   8.3527   8.3527   9.7012
     9.7593   9.7593  10.5529  10.5529  11.0782  11.0782  11.0783  11.1048
    11.1049  11.1050  11.2652  11.2653  11.2655  14.1522  14.1522  14.1522
    20.3127  20.3129

          k = 0.0625 0.0625 0.1875 (  2189 PWs)   bands (ev):

     3.8289   7.8496   8.0539   8.0539   8.4511   8.4576   8.4576   9.6002
     9.8387   9.8417  10.4587  10.5972  10.5972  10.6000  10.8928  10.9597
    10.9598  10.9813  11.1745  11.2561  11.2562  12.6033  14.9665  14.9665
    20.4883  20.4883

          k = 0.0625 0.0625 0.3125 (  2188 PWs)   bands (ev):

     4.5595   7.5694   8.3347   8.3348   8.6352   8.6688   8.6688   9.4034
     9.9807   9.9807   9.9870  10.0023  10.3191  10.4265  10.6873  10.7466
    10.7467  10.7724  11.0552  11.2527  11.2528  11.3040  16.1824  16.1824
    20.7801  20.7801

          k = 0.0625 0.0625 0.4375 (  2179 PWs)   bands (ev):

     5.5836   6.7281   8.5833   8.5834   8.8797   8.9843   8.9844   9.1494
     9.4317   9.4318  10.0187  10.0296  10.2297  10.3798  10.5003  10.5507
    10.5508  10.7136  10.8022  10.9294  11.2517  11.2518  17.6052  17.6052
    19.2284  19.2284

          k = 0.0625 0.1875 0.1875 (  2179 PWs)   bands (ev):

     4.1969   8.0379   8.0386   8.2056   8.5439   8.5477   8.5477   9.5483
     9.8776   9.8794  10.3297  10.3368  10.3368  10.4457  10.6125  10.8309
    10.8925  10.8926  11.1622  11.1622  11.1861  13.3568  13.3571  15.6320
    20.4758  20.8870

          k = 0.0625 0.1875 0.3125 (  2183 PWs)   bands (ev):

     4.9099   7.7939   8.3548   8.4602   8.7054   8.7164   8.7399   9.3971
     9.7598   9.8820   9.9244   9.9560  10.0092  10.3739  10.6546  10.6938
    10.7220  10.7378  11.0162  11.1298  11.1369  11.9576  14.3702  16.7032
    18.6847  21.1580

          k = 0.0625 0.1875 0.4375 (  2185 PWs)   bands (ev):

     5.9032   7.0009   8.6662   8.7244   8.8786   8.9384   8.9862   9.1786
     9.3091   9.4428   9.7817   9.8636  10.1995  10.4363  10.4797  10.5021
    10.5330  10.7714  10.9291  11.1160  11.1171  11.2329  15.5488  16.8906
    18.1926  19.6943

          k = 0.0625 0.3125 0.3125 (  2188 PWs)   bands (ev):

     5.5827   8.1719   8.1725   8.6240   8.8121   8.8786   8.8787   9.3425
     9.5289   9.5291   9.6796   9.8668  10.0657  10.3430  10.5061  10.5836
    10.5836  10.9356  10.9357  10.9413  11.0083  12.7647  12.7652  16.5237
    17.8384  21.6558

          k = 0.0625 0.3125 0.4375 (  2178 PWs)   bands (ev):

     6.5011   7.4824   8.5446   8.7003   8.9676   9.0526   9.0720   9.2189
     9.2571   9.4263   9.5584   9.7415  10.1738  10.3622  10.3871  10.4298
    10.4361  10.6851  10.9030  10.9265  11.2597  11.7748  13.7388  14.9767
    19.0410  20.5361

          k = 0.0625 0.4375 0.4375 (  2179 PWs)   bands (ev):

     7.2720   8.0228   8.0230   8.4396   9.2059   9.2060   9.2177   9.2374
     9.3552   9.4029   9.4030   9.6189  10.1473  10.2540  10.2540  10.2554
    10.4823  10.6677  10.6678  10.7572  11.7345  12.4818  12.4824  13.5003
    20.2353  21.7035

          k = 0.1875 0.1875 0.1875 (  2184 PWs)   bands (ev):

     4.5541   8.1891   8.1894   8.1897   8.6326   8.6327   8.6327   9.5213
     9.8881   9.8881  10.1103  10.1103  10.1104  10.5508  10.5509  10.6653
    10.6653  10.6654  11.2048  11.2049  11.2050  13.8932  13.8934  13.8936
    21.1144  21.1144

          k = 0.1875 0.1875 0.3125 (  2191 PWs)   bands (ev):

     5.2425   7.9508   8.4271   8.4272   8.7932   8.7933   8.8073   9.4181
     9.7439   9.7440   9.8071   9.9046   9.9381  10.4425  10.5155  10.5156
    10.5237  10.7168  11.1556  11.1556  11.1658  12.3150  14.7403  14.7403
    19.1742  19.1742

          k = 0.1875 0.1875 0.4375 (  2191 PWs)   bands (ev):

     6.1901   7.2158   8.6596   8.6597   8.9029   8.9029   9.0274   9.2424
     9.4925   9.4926   9.7087   9.8171  10.0506  10.2252  10.3912  10.3914
    10.7391  10.8978  11.0573  11.1058  11.1059  11.2960  15.6816  15.6816
    17.6918  17.6918

          k = 0.1875 0.3125 0.3125 (  2192 PWs)   bands (ev):

     5.8727   8.1733   8.1736   8.4681   8.9487   8.9946   8.9949   9.4258
     9.6029   9.6030   9.6942   9.8618   9.9174  10.3094  10.3094  10.3185
    10.5744  10.8732  11.1114  11.1230  11.1231  12.9685  12.9691  15.2240
    17.4551  19.9928

          k = 0.1875 0.3125 0.4375 (  2190 PWs)   bands (ev):

     6.7088   7.5622   8.3506   8.4444   9.1044   9.1465   9.2256   9.3725
     9.5511   9.6082   9.6381   9.7508   9.9681  10.1090  10.2029  10.2144
    10.7247  10.9824  11.0438  11.0455  11.1712  11.7654  13.8353  14.8444
    17.2737  18.3910

          k = 0.1875 0.4375 0.4375 (  2190 PWs)   bands (ev):

     7.3354   7.9096   7.9096   8.1951   9.3309   9.4316   9.4320   9.5194
     9.5857   9.5858   9.6626   9.6929   9.9380  10.0373  10.0374  10.0576
    10.7296  10.8948  10.8948  10.9353  11.6369  12.4494  12.4501  13.4695
    18.1533  19.4703

          k = 0.3125 0.3125 0.3125 (  2196 PWs)   bands (ev):

     6.4013   8.1472   8.1473   8.1473   9.2013   9.2015   9.2017   9.5902
     9.7262   9.7263   9.7264   9.8341   9.8341  10.1044  10.1044  10.1045
    10.8119  10.8119  11.1689  11.1689  11.1691  13.3583  13.3588  13.3592
    18.1276  18.1278

          k = 0.3125 0.3125 0.4375 (  2193 PWs)   bands (ev):

     7.0524   7.6686   8.1194   8.1194   9.3371   9.3372   9.4960   9.7112
     9.7595   9.7611   9.8392   9.8778   9.8778   9.9339  10.0028  10.0029
    11.0096  11.0351  11.1184  11.1184  11.1352  11.8929  13.7756  13.7756
    16.9415  16.9415

          k = 0.3125 0.4375 0.4375 (  2206 PWs)   bands (ev):

     7.4282   7.7818   7.7820   7.9260   9.5027   9.5662   9.5664   9.7098
     9.7820   9.8445   9.8446   9.8660  10.1096  10.1102  10.1343  10.1502
    10.9521  11.0822  11.0823  11.0863  11.4276  12.3590  12.3600  13.1396
    16.8038  17.6975

          k = 0.4375 0.4375 0.4375 (  2230 PWs)   bands (ev):

     7.5441   7.7049   7.7050   7.7052   9.6447   9.6448   9.6448   9.7138
     9.7138   9.7435   9.7435   9.7436  10.6440  10.6443  10.6446  11.0699
    11.1001  11.1001  11.1470  11.1471  11.1472  12.2130  12.2137  12.2144
    16.6764  16.6768

          k = 0.1875 0.0625 0.0625 (  2189 PWs)   bands (ev):

     3.8289   7.8496   8.0536   8.0542   8.4512   8.4576   8.4576   9.6003
     9.8387   9.8417  10.4587  10.5972  10.5972  10.6000  10.8928  10.9597
    10.9598  10.9813  11.1745  11.2559  11.2563  12.6033  14.9664  14.9665
    20.4880  20.4886

          k = 0.3125 0.0625 0.0625 (  2188 PWs)   bands (ev):

     4.5595   7.5694   8.3345   8.3351   8.6352   8.6688   8.6688   9.4034
     9.9807   9.9807   9.9870  10.0023  10.3191  10.4265  10.6873  10.7466
    10.7467  10.7724  11.0552  11.2526  11.2530  11.3040  16.1824  16.1825
    20.7800  20.7803

          k = 0.4375 0.0625 0.0625 (  2179 PWs)   bands (ev):

     5.5836   6.7281   8.5831   8.5837   8.8797   8.9843   8.9844   9.1495
     9.4317   9.4318  10.0187  10.0296  10.2297  10.3798  10.5003  10.5507
    10.5508  10.7136  10.8022  10.9294  11.2516  11.2519  17.6050  17.6053
    19.2282  19.2285

          k = 0.1875 0.1875 0.0625 (  2179 PWs)   bands (ev):

     4.1969   8.0382   8.0382   8.2056   8.5438   8.5477   8.5477   9.5483
     9.8776   9.8794  10.3297  10.3367  10.3368  10.4456  10.6125  10.8309
    10.8925  10.8926  11.1622  11.1622  11.1862  13.3569  13.3569  15.6320
    20.4758  20.8870

          k = 0.1875 0.3125 0.0625 (  2183 PWs)   bands (ev):

     4.9099   7.7939   8.3548   8.4602   8.7054   8.7164   8.7399   9.3971
     9.7598   9.8820   9.9244   9.9560  10.0092  10.3739  10.6546  10.6938
    10.7220  10.7378  11.0162  11.1298  11.1369  11.9576  14.3701  16.7032
    18.6847  21.1580

          k = 0.3125 0.0625 0.1875 (  2183 PWs)   bands (ev):

     4.9099   7.7939   8.3548   8.4602   8.7054   8.7164   8.7399   9.3971
     9.7598   9.8820   9.9244   9.9560  10.0092  10.3739  10.6546  10.6938
    10.7219  10.7378  11.0162  11.1299  11.1369  11.9576  14.3702  16.7032
    18.6847  21.1580

          k = 0.1875 0.4375 0.0625 (  2185 PWs)   bands (ev):

     5.9032   7.0009   8.6662   8.7244   8.8786   8.9384   8.9862   9.1786
     9.3091   9.4428   9.7817   9.8636  10.1995  10.4363  10.4797  10.5021
    10.5330  10.7714  10.9291  11.1160  11.1171  11.2329  15.5488  16.8906
    18.1926  19.6943

          k = 0.4375 0.0625 0.1875 (  2185 PWs)   bands (ev):

     5.9032   7.0009   8.6662   8.7244   8.8786   8.9384   8.9862   9.1787
     9.3091   9.4428   9.7817   9.8636  10.1995  10.4363  10.4797  10.5021
    10.5330  10.7714  10.9291  11.1160  11.1172  11.2329  15.5488  16.8907
    18.1926  19.6943

          k = 0.3125 0.3125 0.0625 (  2188 PWs)   bands (ev):

     5.5827   8.1722   8.1722   8.6240   8.8121   8.8787   8.8787   9.3425
     9.5290   9.5291   9.6796   9.8668  10.0657  10.3430  10.5061  10.5836
    10.5836  10.9356  10.9357  10.9413  11.0084  12.7649  12.7649  16.5237
    17.8384  21.6558

          k = 0.3125 0.4375 0.0625 (  2178 PWs)   bands (ev):

     6.5011   7.4824   8.5446   8.7003   8.9676   9.0526   9.0720   9.2189
     9.2571   9.4263   9.5584   9.7415  10.1738  10.3622  10.3871  10.4298
    10.4361  10.6851  10.9030  10.9265  11.2597  11.7748  13.7388  14.9767
    19.0410  20.5361

          k = 0.4375 0.0625 0.3125 (  2178 PWs)   bands (ev):

     6.5011   7.4824   8.5446   8.7003   8.9676   9.0526   9.0720   9.2189
     9.2571   9.4263   9.5584   9.7415  10.1738  10.3622  10.3871  10.4298
    10.4361  10.6851  10.9030  10.9265  11.2597  11.7748  13.7388  14.9767
    19.0410  20.5361

          k = 0.4375 0.4375 0.0625 (  2179 PWs)   bands (ev):

     7.2720   8.0229   8.0229   8.4396   9.2059   9.2060   9.2178   9.2374
     9.3552   9.4029   9.4030   9.6189  10.1473  10.2539  10.2540  10.2554
    10.4823  10.6677  10.6678  10.7572  11.7345  12.4821  12.4821  13.5003
    20.2353  21.7035

          k = 0.3125 0.1875 0.1875 (  2191 PWs)   bands (ev):

     5.2425   7.9508   8.4270   8.4273   8.7931   8.7934   8.8073   9.4181
     9.7439   9.7439   9.8071   9.9046   9.9381  10.4425  10.5155  10.5156
    10.5237  10.7168  11.1555  11.1557  11.1658  12.3150  14.7400  14.7406
    19.1741  19.1743

          k = 0.4375 0.1875 0.1875 (  2191 PWs)   bands (ev):

     6.1901   7.2158   8.6596   8.6597   8.9027   8.9031   9.0274   9.2424
     9.4925   9.4926   9.7087   9.8171  10.0506  10.2252  10.3913  10.3914
    10.7391  10.8978  11.0573  11.1057  11.1060  11.2960  15.6810  15.6822
    17.6914  17.6922

          k = 0.3125 0.3125 0.1875 (  2192 PWs)   bands (ev):

     5.8727   8.1734   8.1734   8.4681   8.9487   8.9947   8.9948   9.4258
     9.6029   9.6030   9.6942   9.8618   9.9174  10.3094  10.3094  10.3185
    10.5744  10.8732  11.1114  11.1230  11.1231  12.9687  12.9688  15.2240
    17.4551  19.9927

          k = 0.3125 0.4375 0.1875 (  2190 PWs)   bands (ev):

     6.7088   7.5622   8.3506   8.4444   9.1044   9.1465   9.2256   9.3725
     9.5511   9.6082   9.6381   9.7508   9.9681  10.1090  10.2028  10.2144
    10.7247  10.9824  11.0438  11.0455  11.1712  11.7654  13.8353  14.8444
    17.2737  18.3910

          k = 0.4375 0.1875 0.3125 (  2190 PWs)   bands (ev):

     6.7088   7.5622   8.3506   8.4444   9.1044   9.1465   9.2256   9.3725
     9.5511   9.6082   9.6381   9.7508   9.9681  10.1090  10.2028  10.2144
    10.7247  10.9824  11.0438  11.0455  11.1712  11.7654  13.8353  14.8444
    17.2737  18.3910

          k = 0.4375 0.4375 0.1875 (  2190 PWs)   bands (ev):

     7.3354   7.9096   7.9096   8.1951   9.3309   9.4318   9.4318   9.5194
     9.5858   9.5858   9.6626   9.6929   9.9380  10.0373  10.0373  10.0576
    10.7296  10.8948  10.8948  10.9353  11.6369  12.4497  12.4498  13.4695
    18.1533  19.4702

          k = 0.4375 0.3125 0.3125 (  2193 PWs)   bands (ev):

     7.0524   7.6686   8.1193   8.1195   9.3370   9.3373   9.4960   9.7112
     9.7595   9.7611   9.8392   9.8776   9.8780   9.9339  10.0028  10.0029
    11.0096  11.0351  11.1183  11.1185  11.1352  11.8929  13.7750  13.7763
    16.9411  16.9420

          k = 0.4375 0.4375 0.3125 (  2206 PWs)   bands (ev):

     7.4282   7.7819   7.7819   7.9260   9.5028   9.5663   9.5663   9.7098
     9.7820   9.8445   9.8445   9.8660  10.1099  10.1099  10.1343  10.1502
    10.9521  11.0822  11.0823  11.0863  11.4276  12.3594  12.3595  13.1396
    16.8038  17.6973

 ------ SPIN DOWN ----------


          k = 0.0625 0.0625 0.0625 (  2166 PWs)   bands (ev):

     3.4530   7.8832   7.8836   7.8839   8.3527   8.3527   8.3527   9.7012
     9.7593   9.7593  10.5529  10.5529  11.0782  11.0782  11.0783  11.1049
    11.1049  11.1050  11.2653  11.2654  11.2654  14.1522  14.1522  14.1522
    20.3127  20.3129

          k = 0.0625 0.0625 0.1875 (  2189 PWs)   bands (ev):

     3.8289   7.8496   8.0539   8.0539   8.4511   8.4576   8.4576   9.6002
     9.8387   9.8417  10.4587  10.5972  10.5972  10.6000  10.8928  10.9597
    10.9598  10.9813  11.1745  11.2561  11.2562  12.6034  14.9665  14.9665
    20.4883  20.4883

          k = 0.0625 0.0625 0.3125 (  2188 PWs)   bands (ev):

     4.5595   7.5694   8.3347   8.3348   8.6352   8.6688   8.6688   9.4034
     9.9807   9.9807   9.9870  10.0023  10.3191  10.4265  10.6873  10.7466
    10.7467  10.7724  11.0552  11.2527  11.2528  11.3040  16.1824  16.1824
    20.7802  20.7802

          k = 0.0625 0.0625 0.4375 (  2179 PWs)   bands (ev):

     5.5836   6.7281   8.5833   8.5834   8.8797   8.9843   8.9844   9.1494
     9.4317   9.4318  10.0187  10.0296  10.2297  10.3798  10.5003  10.5507
    10.5508  10.7136  10.8022  10.9294  11.2517  11.2518  17.6052  17.6052
    19.2284  19.2284

          k = 0.0625 0.1875 0.1875 (  2179 PWs)   bands (ev):

     4.1969   8.0379   8.0386   8.2056   8.5439   8.5477   8.5477   9.5483
     9.8776   9.8794  10.3297  10.3367  10.3369  10.4457  10.6125  10.8309
    10.8925  10.8926  11.1622  11.1622  11.1861  13.3568  13.3571  15.6320
    20.4758  20.8870

          k = 0.0625 0.1875 0.3125 (  2183 PWs)   bands (ev):

     4.9100   7.7939   8.3548   8.4602   8.7054   8.7164   8.7399   9.3971
     9.7598   9.8820   9.9244   9.9560  10.0092  10.3739  10.6546  10.6938
    10.7219  10.7378  11.0162  11.1298  11.1369  11.9576  14.3702  16.7032
    18.6847  21.1580

          k = 0.0625 0.1875 0.4375 (  2185 PWs)   bands (ev):

     5.9032   7.0010   8.6662   8.7244   8.8786   8.9384   8.9862   9.1786
     9.3091   9.4428   9.7817   9.8636  10.1995  10.4363  10.4797  10.5021
    10.5330  10.7714  10.9291  11.1160  11.1171  11.2329  15.5488  16.8907
    18.1926  19.6943

          k = 0.0625 0.3125 0.3125 (  2188 PWs)   bands (ev):

     5.5827   8.1719   8.1725   8.6240   8.8121   8.8786   8.8788   9.3425
     9.5289   9.5292   9.6796   9.8668  10.0657  10.3430  10.5061  10.5835
    10.5836  10.9356  10.9356  10.9413  11.0083  12.7647  12.7651  16.5237
    17.8384  21.6559

          k = 0.0625 0.3125 0.4375 (  2178 PWs)   bands (ev):

     6.5011   7.4824   8.5446   8.7003   8.9676   9.0526   9.0720   9.2189
     9.2571   9.4263   9.5584   9.7415  10.1738  10.3622  10.3871  10.4298
    10.4361  10.6851  10.9030  10.9265  11.2597  11.7748  13.7388  14.9767
    19.0410  20.5361

          k = 0.0625 0.4375 0.4375 (  2179 PWs)   bands (ev):

     7.2720   8.0228   8.0230   8.4396   9.2058   9.2061   9.2177   9.2374
     9.3552   9.4029   9.4030   9.6189  10.1473  10.2539  10.2541  10.2554
    10.4823  10.6677  10.6678  10.7572  11.7345  12.4819  12.4823  13.5003
    20.2353  21.7035

          k = 0.1875 0.1875 0.1875 (  2184 PWs)   bands (ev):

     4.5542   8.1891   8.1894   8.1898   8.6326   8.6327   8.6327   9.5213
     9.8881   9.8881  10.1102  10.1103  10.1104  10.5508  10.5508  10.6653
    10.6653  10.6654  11.2049  11.2049  11.2050  13.8932  13.8934  13.8936
    21.1144  21.1145

          k = 0.1875 0.1875 0.3125 (  2191 PWs)   bands (ev):

     5.2426   7.9508   8.4271   8.4272   8.7932   8.7933   8.8073   9.4181
     9.7439   9.7440   9.8071   9.9046   9.9381  10.4425  10.5155  10.5156
    10.5237  10.7168  11.1555  11.1556  11.1658  12.3150  14.7403  14.7403
    19.1742  19.1742

          k = 0.1875 0.1875 0.4375 (  2191 PWs)   bands (ev):

     6.1901   7.2158   8.6596   8.6597   8.9029   8.9029   9.0274   9.2424
     9.4925   9.4926   9.7087   9.8171  10.0506  10.2252  10.3912  10.3914
    10.7391  10.8978  11.0573  11.1058  11.1059  11.2960  15.6816  15.6816
    17.6918  17.6918

          k = 0.1875 0.3125 0.3125 (  2192 PWs)   bands (ev):

     5.8727   8.1733   8.1736   8.4681   8.9487   8.9946   8.9949   9.4258
     9.6028   9.6030   9.6942   9.8618   9.9174  10.3094  10.3094  10.3185
    10.5744  10.8732  11.1114  11.1230  11.1231  12.9685  12.9690  15.2240
    17.4551  19.9928

          k = 0.1875 0.3125 0.4375 (  2190 PWs)   bands (ev):

     6.7088   7.5622   8.3506   8.4444   9.1044   9.1465   9.2256   9.3725
     9.5511   9.6082   9.6381   9.7508   9.9681  10.1090  10.2028  10.2144
    10.7247  10.9824  11.0438  11.0455  11.1712  11.7654  13.8353  14.8444
    17.2737  18.3910

          k = 0.1875 0.4375 0.4375 (  2190 PWs)   bands (ev):

     7.3354   7.9096   7.9096   8.1951   9.3309   9.4316   9.4320   9.5194
     9.5857   9.5858   9.6626   9.6929   9.9380  10.0373  10.0374  10.0576
    10.7296  10.8948  10.8948  10.9353  11.6369  12.4495  12.4500  13.4695
    18.1533  19.4703

          k = 0.3125 0.3125 0.3125 (  2196 PWs)   bands (ev):

     6.4013   8.1473   8.1473   8.1473   9.2012   9.2015   9.2018   9.5902
     9.7262   9.7263   9.7264   9.8341   9.8341  10.1044  10.1044  10.1045
    10.8119  10.8119  11.1689  11.1690  11.1690  13.3584  13.3588  13.3592
    18.1276  18.1278

          k = 0.3125 0.3125 0.4375 (  2193 PWs)   bands (ev):

     7.0524   7.6686   8.1194   8.1194   9.3371   9.3372   9.4960   9.7112
     9.7595   9.7611   9.8392   9.8778   9.8778   9.9339  10.0028  10.0029
    11.0095  11.0351  11.1184  11.1184  11.1352  11.8929  13.7756  13.7757
    16.9415  16.9415

          k = 0.3125 0.4375 0.4375 (  2206 PWs)   bands (ev):

     7.4282   7.7818   7.7820   7.9260   9.5027   9.5663   9.5663   9.7098
     9.7820   9.8445   9.8446   9.8660  10.1096  10.1102  10.1343  10.1503
    10.9521  11.0822  11.0823  11.0863  11.4276  12.3590  12.3599  13.1396
    16.8038  17.6975

          k = 0.4375 0.4375 0.4375 (  2230 PWs)   bands (ev):

     7.5441   7.7049   7.7050   7.7052   9.6447   9.6448   9.6448   9.7138
     9.7138   9.7435   9.7435   9.7436  10.6440  10.6443  10.6446  11.0699
    11.1001  11.1001  11.1470  11.1471  11.1471  12.2130  12.2137  12.2144
    16.6764  16.6768

          k = 0.1875 0.0625 0.0625 (  2189 PWs)   bands (ev):

     3.8289   7.8496   8.0535   8.0543   8.4511   8.4576   8.4576   9.6003
     9.8387   9.8417  10.4587  10.5972  10.5972  10.6000  10.8928  10.9598
    10.9598  10.9813  11.1745  11.2560  11.2562  12.6033  14.9664  14.9665
    20.4880  20.4886

          k = 0.3125 0.0625 0.0625 (  2188 PWs)   bands (ev):

     4.5595   7.5694   8.3344   8.3351   8.6352   8.6688   8.6688   9.4034
     9.9807   9.9807   9.9870  10.0023  10.3191  10.4265  10.6873  10.7466
    10.7467  10.7724  11.0552  11.2527  11.2528  11.3040  16.1824  16.1825
    20.7800  20.7804

          k = 0.4375 0.0625 0.0625 (  2179 PWs)   bands (ev):

     5.5836   6.7281   8.5830   8.5837   8.8797   8.9843   8.9843   9.1495
     9.4317   9.4318  10.0187  10.0296  10.2297  10.3798  10.5003  10.5507
    10.5508  10.7136  10.8022  10.9294  11.2517  11.2518  17.6050  17.6054
    19.2282  19.2285

          k = 0.1875 0.1875 0.0625 (  2179 PWs)   bands (ev):

     4.1969   8.0382   8.0383   8.2056   8.5438   8.5477   8.5477   9.5483
     9.8776   9.8794  10.3297  10.3367  10.3368  10.4456  10.6125  10.8309
    10.8925  10.8926  11.1622  11.1622  11.1861  13.3569  13.3569  15.6320
    20.4758  20.8870

          k = 0.1875 0.3125 0.0625 (  2183 PWs)   bands (ev):

     4.9100   7.7939   8.3548   8.4602   8.7054   8.7164   8.7399   9.3971
     9.7598   9.8820   9.9244   9.9560  10.0092  10.3739  10.6546  10.6938
    10.7220  10.7378  11.0162  11.1298  11.1369  11.9576  14.3702  16.7032
    18.6847  21.1580

          k = 0.3125 0.0625 0.1875 (  2183 PWs)   bands (ev):

     4.9100   7.7939   8.3548   8.4602   8.7054   8.7164   8.7399   9.3971
     9.7598   9.8820   9.9244   9.9560  10.0092  10.3739  10.6546  10.6938
    10.7219  10.7378  11.0162  11.1298  11.1369  11.9576  14.3702  16.7032
    18.6847  21.1580

          k = 0.1875 0.4375 0.0625 (  2185 PWs)   bands (ev):

     5.9032   7.0010   8.6662   8.7244   8.8786   8.9384   8.9862   9.1786
     9.3091   9.4428   9.7817   9.8636  10.1995  10.4363  10.4797  10.5021
    10.5330  10.7714  10.9291  11.1160  11.1171  11.2329  15.5488  16.8907
    18.1926  19.6943

          k = 0.4375 0.0625 0.1875 (  2185 PWs)   bands (ev):

     5.9032   7.0010   8.6662   8.7244   8.8786   8.9384   8.9862   9.1787
     9.3091   9.4428   9.7817   9.8636  10.1995  10.4363  10.4797  10.5021
    10.5330  10.7714  10.9291  11.1160  11.1171  11.2329  15.5488  16.8907
    18.1926  19.6944

          k = 0.3125 0.3125 0.0625 (  2188 PWs)   bands (ev):

     5.5827   8.1722   8.1722   8.6240   8.8121   8.8787   8.8787   9.3425
     9.5290   9.5291   9.6796   9.8668  10.0657  10.3430  10.5061  10.5836
    10.5836  10.9356  10.9357  10.9413  11.0083  12.7649  12.7649  16.5237
    17.8384  21.6558

          k = 0.3125 0.4375 0.0625 (  2178 PWs)   bands (ev):

     6.5011   7.4824   8.5446   8.7003   8.9676   9.0526   9.0720   9.2189
     9.2571   9.4263   9.5584   9.7415  10.1738  10.3622  10.3871  10.4298
    10.4361  10.6851  10.9030  10.9265  11.2597  11.7748  13.7388  14.9767
    19.0410  20.5361

          k = 0.4375 0.0625 0.3125 (  2178 PWs)   bands (ev):

     6.5011   7.4824   8.5446   8.7003   8.9676   9.0526   9.0720   9.2189
     9.2571   9.4263   9.5584   9.7415  10.1738  10.3622  10.3871  10.4298
    10.4361  10.6851  10.9030  10.9265  11.2597  11.7748  13.7388  14.9767
    19.0410  20.5361

          k = 0.4375 0.4375 0.0625 (  2179 PWs)   bands (ev):

     7.2720   8.0229   8.0229   8.4396   9.2059   9.2060   9.2178   9.2374
     9.3552   9.4029   9.4030   9.6189  10.1473  10.2539  10.2540  10.2554
    10.4823  10.6677  10.6678  10.7572  11.7345  12.4821  12.4821  13.5003
    20.2353  21.7035

          k = 0.3125 0.1875 0.1875 (  2191 PWs)   bands (ev):

     5.2426   7.9508   8.4269   8.4274   8.7931   8.7934   8.8073   9.4181
     9.7439   9.7439   9.8071   9.9046   9.9381  10.4425  10.5155  10.5156
    10.5237  10.7168  11.1556  11.1556  11.1658  12.3150  14.7400  14.7406
    19.1741  19.1743

          k = 0.4375 0.1875 0.1875 (  2191 PWs)   bands (ev):

     6.1901   7.2158   8.6596   8.6597   8.9026   8.9032   9.0274   9.2424
     9.4925   9.4925   9.7087   9.8171  10.0506  10.2252  10.3913  10.3913
    10.7391  10.8978  11.0573  11.1058  11.1059  11.2960  15.6810  15.6822
    17.6914  17.6922

          k = 0.3125 0.3125 0.1875 (  2192 PWs)   bands (ev):

     5.8727   8.1734   8.1734   8.4681   8.9487   8.9947   8.9948   9.4258
     9.6029   9.6030   9.6942   9.8618   9.9174  10.3094  10.3094  10.3184
    10.5744  10.8732  11.1114  11.1230  11.1231  12.9687  12.9688  15.2240
    17.4551  19.9927

          k = 0.3125 0.4375 0.1875 (  2190 PWs)   bands (ev):

     6.7088   7.5622   8.3506   8.4444   9.1044   9.1465   9.2256   9.3725
     9.5511   9.6082   9.6381   9.7508   9.9681  10.1090  10.2028  10.2144
    10.7247  10.9824  11.0438  11.0455  11.1712  11.7654  13.8353  14.8444
    17.2737  18.3910

          k = 0.4375 0.1875 0.3125 (  2190 PWs)   bands (ev):

     6.7088   7.5622   8.3506   8.4444   9.1044   9.1465   9.2256   9.3725
     9.5511   9.6082   9.6381   9.7508   9.9681  10.1090  10.2028  10.2144
    10.7247  10.9824  11.0438  11.0455  11.1712  11.7654  13.8353  14.8444
    17.2737  18.3910

          k = 0.4375 0.4375 0.1875 (  2190 PWs)   bands (ev):

     7.3354   7.9096   7.9096   8.1951   9.3309   9.4318   9.4318   9.5194
     9.5858   9.5858   9.6626   9.6929   9.9380  10.0373  10.0373  10.0576
    10.7296  10.8948  10.8948  10.9353  11.6369  12.4497  12.4498  13.4695
    18.1533  19.4702

          k = 0.4375 0.3125 0.3125 (  2193 PWs)   bands (ev):

     7.0524   7.6686   8.1193   8.1195   9.3369   9.3374   9.4960   9.7112
     9.7595   9.7611   9.8392   9.8777   9.8779   9.9339  10.0028  10.0029
    11.0096  11.0351  11.1184  11.1184  11.1352  11.8929  13.7750  13.7763
    16.9411  16.9420

          k = 0.4375 0.4375 0.3125 (  2206 PWs)   bands (ev):

     7.4282   7.7819   7.7819   7.9260   9.5027   9.5663   9.5663   9.7098
     9.7820   9.8445   9.8445   9.8660  10.1099  10.1099  10.1343  10.1502
    10.9521  11.0822  11.0823  11.0863  11.4276  12.3595  12.3595  13.1396
    16.8038  17.6973

     the Fermi energy is    12.7145 ev

!    total energy              =    -490.98606733 Ry
     Harris-Foulkes estimate   =    -490.98606723 Ry
     estimated scf accuracy    <       0.00000005 Ry

     The total energy is the sum of the following terms:

     one-electron contribution =    -109.42082309 Ry
     hartree contribution      =     122.23927258 Ry
     xc contribution           =    -178.51841857 Ry
     ewald contribution        =    -325.28614540 Ry
     smearing contrib. (-TS)   =       0.00004715 Ry

     total magnetization       =     0.00 Bohr mag/cell
     absolute magnetization    =     0.00 Bohr mag/cell

     convergence has been achieved in   7 iterations

     Writing output data file cu-55.save/

     init_run     :      1.93s CPU      1.97s WALL (       1 calls)
     electrons    :     33.07s CPU     33.75s WALL (       1 calls)

     Called by init_run:
     wfcinit      :      1.71s CPU      1.74s WALL (       1 calls)
     potinit      :      0.03s CPU      0.03s WALL (       1 calls)
     hinit0       :      0.16s CPU      0.16s WALL (       1 calls)

     Called by electrons:
     c_bands      :     28.90s CPU     29.46s WALL (       8 calls)
     sum_band     :      3.90s CPU      4.01s WALL (       8 calls)
     v_of_rho     :      0.10s CPU      0.10s WALL (       8 calls)
     newd         :      0.19s CPU      0.20s WALL (       8 calls)
     mix_rho      :      0.01s CPU      0.01s WALL (       8 calls)

     Called by c_bands:
     init_us_2    :      0.27s CPU      0.28s WALL (    1360 calls)
     cegterg      :     27.57s CPU     28.11s WALL (     640 calls)

     Called by sum_band:
     sum_band:bec :      0.03s CPU      0.03s WALL (     640 calls)
     addusdens    :      0.25s CPU      0.25s WALL (       8 calls)

     Called by *egterg:
     h_psi        :     17.46s CPU     17.97s WALL (    2224 calls)
     s_psi        :      1.85s CPU      1.88s WALL (    2224 calls)
     g_psi        :      0.08s CPU      0.08s WALL (    1504 calls)
     cdiaghg      :      2.74s CPU      2.75s WALL (    2064 calls)

     Called by h_psi:
     h_psi:pot    :     17.42s CPU     17.92s WALL (    2224 calls)
     h_psi:calbec :      2.76s CPU      2.86s WALL (    2224 calls)
     vloc_psi     :     12.78s CPU     13.13s WALL (    2224 calls)
     add_vuspsi   :      1.88s CPU      1.93s WALL (    2224 calls)

     General routines
     calbec       :      3.73s CPU      3.88s WALL (    2864 calls)
     fft          :      0.05s CPU      0.05s WALL (     168 calls)
     ffts         :      0.00s CPU      0.00s WALL (      16 calls)
     fftw         :     14.01s CPU     14.39s WALL (  106394 calls)

     Parallel routines
     fft_scatt_xy :      0.98s CPU      1.01s WALL (  106578 calls)
     fft_scatt_yz :      5.60s CPU      5.73s WALL (  106578 calls)

     PWSCF        :     36.42s CPU     37.20s WALL


   This run was terminated on:  19: 6:50  17Mar2022            

=------------------------------------------------------------------------------=
   JOB DONE.
=------------------------------------------------------------------------------=
