
     Program PWSCF v.6.4.1 starts on 17Mar2022 at 19: 9: 7 

     This program is part of the open-source Quantum ESPRESSO suite
     for quantum simulation of materials; please cite
         "P. Giannozzi et al., J. Phys.:Condens. Matter 21 395502 (2009);
         "P. Giannozzi et al., J. Phys.:Condens. Matter 29 465901 (2017);
          URL http://www.quantum-espresso.org", 
     in publications or presentations arising from this work. More details at
     http://www.quantum-espresso.org/quote

     Parallel version (MPI), running on     6 processors

     MPI processes distributed on     1 nodes
     R & G space division:  proc/nbgrp/npool/nimage =       6
     Reading input from cu-75.in
Warning: card CU1   63.546    CU.PBE-DN-RRKJUS_PSL.1.0.0.UPF ignored
Warning: card CU2   63.546    CU.PBE-DN-RRKJUS_PSL.1.0.0.UPF ignored

     Current dimensions of program PWSCF are:
     Max number of different atomic species (ntypx) = 10
     Max number of k-points (npk) =  40000
     Max angular momentum in pseudopotentials (lmaxx) =  3
               file Cu.pbe-dn-rrkjus_psl.1.0.0.UPF: wavefunction(s)  3D renormalized
               file Cu.pbe-dn-rrkjus_psl.1.0.0.UPF: wavefunction(s)  3D renormalized

     Subspace diagonalization in iterative solution of the eigenvalue problem:
     a serial algorithm will be used

     Found symmetry operation: I + (  0.0000 -0.5000 -0.5000)
     This is a supercell, fractional translations are disabled
     Message from routine setup:
     DEPRECATED: symmetry with ibrav=0, use correct ibrav instead

     Parallelization info
     --------------------
     sticks:   dense  smooth     PW     G-vecs:    dense   smooth      PW
     Min         184     184     54                 4637     4637     730
     Max         187     187     55                 4638     4638     733
     Sum        1109    1109    325                27825    27825    4385



     bravais-lattice index     =            0
     lattice parameter (alat)  =       6.8219  a.u.
     unit-cell volume          =     317.4813 (a.u.)^3
     number of atoms/cell      =            4
     number of atomic types    =            2
     number of electrons       =        44.00
     number of Kohn-Sham states=           26
     kinetic-energy cutoff     =      75.0000  Ry
     charge density cutoff     =     300.0000  Ry
     convergence threshold     =      1.0E-06
     mixing beta               =       0.7000
     number of iterations used =            8  plain     mixing
     Exchange-correlation      = PBE ( 1  4  3  4 0 0)

     celldm(1)=   6.821911  celldm(2)=   0.000000  celldm(3)=   0.000000
     celldm(4)=   0.000000  celldm(5)=   0.000000  celldm(6)=   0.000000

     crystal axes: (cart. coord. in units of alat)
               a(1) = (   1.000000   0.000000   0.000000 )  
               a(2) = (   0.000000   1.000000   0.000000 )  
               a(3) = (   0.000000   0.000000   1.000000 )  

     reciprocal axes: (cart. coord. in units 2 pi/alat)
               b(1) = (  1.000000  0.000000  0.000000 )  
               b(2) = (  0.000000  1.000000  0.000000 )  
               b(3) = (  0.000000  0.000000  1.000000 )  


     PseudoPot. # 1 for Cu read from file:
     /home/cristian/Escritorio/Proyecto_Grafeno/pseudopotenciales/Cu.pbe-dn-rrkjus_psl.1.0.0.UPF
     MD5 check sum: ba3d6c84e19846e79d48cdc68ff7152b
     Pseudo is Ultrasoft + core correction, Zval = 11.0
     Generated using "atomic" code by A. Dal Corso v.6.3
     Using radial grid of 1199 points,  6 beta functions with: 
                l(1) =   0
                l(2) =   0
                l(3) =   1
                l(4) =   1
                l(5) =   2
                l(6) =   2
     Q(r) pseudized with 0 coefficients 


     PseudoPot. # 2 for Cu read from file:
     /home/cristian/Escritorio/Proyecto_Grafeno/pseudopotenciales/Cu.pbe-dn-rrkjus_psl.1.0.0.UPF
     MD5 check sum: ba3d6c84e19846e79d48cdc68ff7152b
     Pseudo is Ultrasoft + core correction, Zval = 11.0
     Generated using "atomic" code by A. Dal Corso v.6.3
     Using radial grid of 1199 points,  6 beta functions with: 
                l(1) =   0
                l(2) =   0
                l(3) =   1
                l(4) =   1
                l(5) =   2
                l(6) =   2
     Q(r) pseudized with 0 coefficients 


     atomic species   valence    mass     pseudopotential
        Cu1           11.00    63.54600     Cu( 1.00)
        Cu2           11.00    63.54600     Cu( 1.00)

     Starting magnetic structure 
     atomic species   magnetization
        Cu1          0.100
        Cu2         -0.100

     16 Sym. Ops., with inversion, found



   Cartesian axes

     site n.     atom                  positions (alat units)
         1           Cu1 tau(   1) = (   0.0000000   0.0000000   0.0000000  )
         2           Cu2 tau(   2) = (   0.5000000   0.5000000   0.0000000  )
         3           Cu1 tau(   3) = (   0.0000000   0.5000000   0.5000000  )
         4           Cu2 tau(   4) = (   0.5000000   0.0000000   0.5000000  )

     number of k points=    40  Methfessel-Paxton smearing, width (Ry)=  0.0300
                       cart. coord. in units 2pi/alat
        k(    1) = (   0.0625000   0.0625000   0.0625000), wk =   0.0156250
        k(    2) = (   0.0625000   0.0625000   0.1875000), wk =   0.0312500
        k(    3) = (   0.0625000   0.0625000   0.3125000), wk =   0.0312500
        k(    4) = (   0.0625000   0.0625000   0.4375000), wk =   0.0312500
        k(    5) = (   0.0625000   0.1875000   0.1875000), wk =   0.0156250
        k(    6) = (   0.0625000   0.1875000   0.3125000), wk =   0.0312500
        k(    7) = (   0.0625000   0.1875000   0.4375000), wk =   0.0312500
        k(    8) = (   0.0625000   0.3125000   0.3125000), wk =   0.0156250
        k(    9) = (   0.0625000   0.3125000   0.4375000), wk =   0.0312500
        k(   10) = (   0.0625000   0.4375000   0.4375000), wk =   0.0156250
        k(   11) = (   0.1875000   0.1875000   0.1875000), wk =   0.0156250
        k(   12) = (   0.1875000   0.1875000   0.3125000), wk =   0.0312500
        k(   13) = (   0.1875000   0.1875000   0.4375000), wk =   0.0312500
        k(   14) = (   0.1875000   0.3125000   0.3125000), wk =   0.0156250
        k(   15) = (   0.1875000   0.3125000   0.4375000), wk =   0.0312500
        k(   16) = (   0.1875000   0.4375000   0.4375000), wk =   0.0156250
        k(   17) = (   0.3125000   0.3125000   0.3125000), wk =   0.0156250
        k(   18) = (   0.3125000   0.3125000   0.4375000), wk =   0.0312500
        k(   19) = (   0.3125000   0.4375000   0.4375000), wk =   0.0156250
        k(   20) = (   0.4375000   0.4375000   0.4375000), wk =   0.0156250
        k(   21) = (   0.1875000   0.0625000   0.0625000), wk =   0.0156250
        k(   22) = (   0.3125000   0.0625000   0.0625000), wk =   0.0156250
        k(   23) = (   0.4375000   0.0625000   0.0625000), wk =   0.0156250
        k(   24) = (   0.1875000   0.1875000   0.0625000), wk =   0.0312500
        k(   25) = (   0.1875000   0.3125000   0.0625000), wk =   0.0312500
        k(   26) = (   0.3125000   0.0625000   0.1875000), wk =   0.0312500
        k(   27) = (   0.1875000   0.4375000   0.0625000), wk =   0.0312500
        k(   28) = (   0.4375000   0.0625000   0.1875000), wk =   0.0312500
        k(   29) = (   0.3125000   0.3125000   0.0625000), wk =   0.0312500
        k(   30) = (   0.3125000   0.4375000   0.0625000), wk =   0.0312500
        k(   31) = (   0.4375000   0.0625000   0.3125000), wk =   0.0312500
        k(   32) = (   0.4375000   0.4375000   0.0625000), wk =   0.0312500
        k(   33) = (   0.3125000   0.1875000   0.1875000), wk =   0.0156250
        k(   34) = (   0.4375000   0.1875000   0.1875000), wk =   0.0156250
        k(   35) = (   0.3125000   0.3125000   0.1875000), wk =   0.0312500
        k(   36) = (   0.3125000   0.4375000   0.1875000), wk =   0.0312500
        k(   37) = (   0.4375000   0.1875000   0.3125000), wk =   0.0312500
        k(   38) = (   0.4375000   0.4375000   0.1875000), wk =   0.0312500
        k(   39) = (   0.4375000   0.3125000   0.3125000), wk =   0.0156250
        k(   40) = (   0.4375000   0.4375000   0.3125000), wk =   0.0312500

     Dense  grid:    27825 G-vectors     FFT dimensions: (  40,  40,  40)

     Estimated max dynamical RAM per process >      40.35 MB

     Estimated total dynamical RAM >     242.09 MB
     Generating pointlists ...
     new r_m :   0.2917 (alat units)  1.9898 (a.u.) for type    1
     new r_m :   0.2917 (alat units)  1.9898 (a.u.) for type    2

     Initial potential from superposition of free atoms

     starting charge   43.99908, renormalised to   44.00000
     Starting wfcs are   36 randomized atomic wfcs

     total cpu time spent up to now is        4.0 secs

     Self-consistent Calculation

     iteration #  1     ecut=    75.00 Ry     beta= 0.70
     Davidson diagonalization with overlap
     ethr =  1.00E-02,  avg # of iterations =  2.4

     Threshold (ethr) on eigenvalues was too large:
     Diagonalizing with lowered threshold

     Davidson diagonalization with overlap
     ethr =  6.40E-04,  avg # of iterations =  2.2

     total cpu time spent up to now is       13.8 secs

     total energy              =    -490.83276580 Ry
     Harris-Foulkes estimate   =    -490.98465829 Ry
     estimated scf accuracy    <       0.33073221 Ry

     total magnetization       =     0.00 Bohr mag/cell
     absolute magnetization    =     0.74 Bohr mag/cell

     iteration #  2     ecut=    75.00 Ry     beta= 0.70
     Davidson diagonalization with overlap
     ethr =  7.52E-04,  avg # of iterations =  2.5

     total cpu time spent up to now is       20.3 secs

     total energy              =    -490.82911056 Ry
     Harris-Foulkes estimate   =    -491.16822561 Ry
     estimated scf accuracy    <       0.87412309 Ry

     total magnetization       =    -0.00 Bohr mag/cell
     absolute magnetization    =     0.17 Bohr mag/cell

     iteration #  3     ecut=    75.00 Ry     beta= 0.70
     Davidson diagonalization with overlap
     ethr =  7.52E-04,  avg # of iterations =  2.0

     total cpu time spent up to now is       26.7 secs

     total energy              =    -490.98552446 Ry
     Harris-Foulkes estimate   =    -490.98159162 Ry
     estimated scf accuracy    <       0.01498811 Ry

     total magnetization       =     0.00 Bohr mag/cell
     absolute magnetization    =     0.23 Bohr mag/cell

     iteration #  4     ecut=    75.00 Ry     beta= 0.70
     Davidson diagonalization with overlap
     ethr =  3.41E-05,  avg # of iterations =  2.1

     total cpu time spent up to now is       31.4 secs

     total energy              =    -490.98748212 Ry
     Harris-Foulkes estimate   =    -490.98746286 Ry
     estimated scf accuracy    <       0.00004083 Ry

     total magnetization       =     0.00 Bohr mag/cell
     absolute magnetization    =     0.02 Bohr mag/cell

     iteration #  5     ecut=    75.00 Ry     beta= 0.70
     Davidson diagonalization with overlap
     ethr =  9.28E-08,  avg # of iterations =  3.6

     total cpu time spent up to now is       39.4 secs

     total energy              =    -490.98752213 Ry
     Harris-Foulkes estimate   =    -490.98754358 Ry
     estimated scf accuracy    <       0.00007497 Ry

     total magnetization       =     0.00 Bohr mag/cell
     absolute magnetization    =     0.01 Bohr mag/cell

     iteration #  6     ecut=    75.00 Ry     beta= 0.70
     Davidson diagonalization with overlap
     ethr =  9.28E-08,  avg # of iterations =  2.0

     total cpu time spent up to now is       44.8 secs

     total energy              =    -490.98753620 Ry
     Harris-Foulkes estimate   =    -490.98753723 Ry
     estimated scf accuracy    <       0.00001395 Ry

     total magnetization       =    -0.00 Bohr mag/cell
     absolute magnetization    =     0.01 Bohr mag/cell

     iteration #  7     ecut=    75.00 Ry     beta= 0.70
     Davidson diagonalization with overlap
     ethr =  3.17E-08,  avg # of iterations =  1.6

     Magnetic moment per site:
     atom:    1    charge:    9.8222    magn:    0.0000    constr:    0.0000
     atom:    2    charge:    9.8221    magn:   -0.0000    constr:    0.0000
     atom:    3    charge:    9.8222    magn:    0.0000    constr:    0.0000
     atom:    4    charge:    9.8221    magn:   -0.0000    constr:    0.0000

     total cpu time spent up to now is       49.4 secs

     End of self-consistent calculation

 ------ SPIN UP ------------


          k = 0.0625 0.0625 0.0625 (  3479 PWs)   bands (ev):

     3.4529   7.8826   7.8829   7.8832   8.3521   8.3521   8.3521   9.7005
     9.7585   9.7585  10.5520  10.5520  11.0772  11.0773  11.0774  11.1040
    11.1040  11.1041  11.2642  11.2643  11.2644  14.1519  14.1519  14.1519
    20.3119  20.3121

          k = 0.0625 0.0625 0.1875 (  3497 PWs)   bands (ev):

     3.8288   7.8490   8.0532   8.0532   8.4506   8.4570   8.4570   9.5995
     9.8379   9.8410  10.4579  10.5965  10.5965  10.5991  10.8920  10.9589
    10.9589  10.9804  11.1735  11.2552  11.2552  12.6030  14.9661  14.9661
    20.4876  20.4876

          k = 0.0625 0.0625 0.3125 (  3489 PWs)   bands (ev):

     4.5593   7.5690   8.3341   8.3341   8.6346   8.6682   8.6682   9.4027
     9.9799   9.9799   9.9863  10.0016  10.3184  10.4259  10.6864  10.7458
    10.7458  10.7715  11.0543  11.2518  11.2518  11.3033  16.1820  16.1820
    20.7793  20.7793

          k = 0.0625 0.0625 0.4375 (  3479 PWs)   bands (ev):

     5.5835   6.7279   8.5826   8.5826   8.8790   8.9836   8.9836   9.1488
     9.4310   9.4310  10.0180  10.0290  10.2289  10.3790  10.4996  10.5499
    10.5499  10.7129  10.8013  10.9285  11.2508  11.2508  17.6046  17.6046
    19.2278  19.2278

          k = 0.0625 0.1875 0.1875 (  3492 PWs)   bands (ev):

     4.1968   8.0373   8.0380   8.2049   8.5432   8.5470   8.5471   9.5477
     9.8769   9.8786  10.3290  10.3360  10.3360  10.4448  10.6116  10.8300
    10.8916  10.8917  11.1612  11.1613  11.1853  13.3563  13.3566  15.6315
    20.4750  20.8865

          k = 0.0625 0.1875 0.3125 (  3494 PWs)   bands (ev):

     4.9098   7.7935   8.3542   8.4595   8.7047   8.7157   8.7392   9.3964
     9.7591   9.8813   9.9237   9.9553  10.0085  10.3731  10.6538  10.6929
    10.7211  10.7370  11.0152  11.1289  11.1360  11.9569  14.3696  16.7026
    18.6841  21.1573

          k = 0.0625 0.1875 0.4375 (  3476 PWs)   bands (ev):

     5.9031   7.0007   8.6656   8.7237   8.8779   8.9378   8.9855   9.1780
     9.3085   9.4420   9.7810   9.8629  10.1987  10.4355  10.4789  10.5013
    10.5322  10.7705  10.9282  11.1152  11.1162  11.2320  15.5482  16.8901
    18.1920  19.6937

          k = 0.0625 0.3125 0.3125 (  3478 PWs)   bands (ev):

     5.5826   8.1714   8.1720   8.6233   8.8114   8.8780   8.8780   9.3419
     9.5283   9.5285   9.6789   9.8661  10.0649  10.3423  10.5053  10.5827
    10.5828  10.9347  10.9348  10.9404  11.0075  12.7640  12.7645  16.5231
    17.8378  21.6552

          k = 0.0625 0.3125 0.4375 (  3477 PWs)   bands (ev):

     6.5009   7.4821   8.5441   8.6997   8.9669   9.0519   9.0713   9.2182
     9.2564   9.4256   9.5576   9.7408  10.1730  10.3614  10.3864  10.4290
    10.4352  10.6842  10.9022  10.9256  11.2588  11.7739  13.7382  14.9761
    19.0403  20.5354

          k = 0.0625 0.4375 0.4375 (  3483 PWs)   bands (ev):

     7.2718   8.0224   8.0227   8.4391   9.2052   9.2053   9.2170   9.2367
     9.3545   9.4022   9.4023   9.6182  10.1466  10.2532  10.2532  10.2546
    10.4815  10.6668  10.6670  10.7563  11.7336  12.4811  12.4817  13.4997
    20.2346  21.7027

          k = 0.1875 0.1875 0.1875 (  3488 PWs)   bands (ev):

     4.5540   8.1886   8.1889   8.1891   8.6319   8.6320   8.6320   9.5208
     9.8873   9.8873  10.1096  10.1096  10.1096  10.5501  10.5501  10.6644
    10.6644  10.6645  11.2039  11.2040  11.2041  13.8927  13.8929  13.8930
    21.1138  21.1139

          k = 0.1875 0.1875 0.3125 (  3490 PWs)   bands (ev):

     5.2424   7.9504   8.4266   8.4266   8.7926   8.7926   8.8066   9.4174
     9.7433   9.7433   9.8065   9.9039   9.9374  10.4417  10.5148  10.5148
    10.5229  10.7160  11.1547  11.1547  11.1648  12.3143  14.7398  14.7398
    19.1736  19.1736

          k = 0.1875 0.1875 0.4375 (  3485 PWs)   bands (ev):

     6.1899   7.2155   8.6590   8.6590   8.9022   8.9023   9.0267   9.2417
     9.4919   9.4919   9.7080   9.8164  10.0499  10.2245  10.3905  10.3905
    10.7383  10.8970  11.0564  11.1050  11.1050  11.2952  15.6811  15.6811
    17.6912  17.6912

          k = 0.1875 0.3125 0.3125 (  3484 PWs)   bands (ev):

     5.8726   8.1728   8.1731   8.4674   8.9480   8.9939   8.9942   9.4251
     9.6023   9.6023   9.6936   9.8611   9.9167  10.3086  10.3087  10.3177
    10.5736  10.8724  11.1106  11.1221  11.1222  12.9679  12.9685  15.2234
    17.4545  19.9922

          k = 0.1875 0.3125 0.4375 (  3472 PWs)   bands (ev):

     6.7086   7.5619   8.3500   8.4438   9.1038   9.1459   9.2249   9.3719
     9.5504   9.6075   9.6375   9.7501   9.9674  10.1082  10.2021  10.2136
    10.7239  10.9815  11.0430  11.0446  11.1704  11.7646  13.8347  14.8439
    17.2731  18.3904

          k = 0.1875 0.4375 0.4375 (  3479 PWs)   bands (ev):

     7.3350   7.9091   7.9091   8.1946   9.3303   9.4309   9.4314   9.5187
     9.5851   9.5851   9.6619   9.6922   9.9373  10.0366  10.0366  10.0569
    10.7288  10.8939  10.8940  10.9345  11.6361  12.4488  12.4494  13.4689
    18.1527  19.4696

          k = 0.3125 0.3125 0.3125 (  3479 PWs)   bands (ev):

     6.4010   8.1467   8.1467   8.1468   9.2007   9.2009   9.2011   9.5896
     9.7255   9.7256   9.7257   9.8334   9.8334  10.1036  10.1036  10.1037
    10.8111  10.8111  11.1680  11.1681  11.1682  13.3578  13.3582  13.3586
    18.1270  18.1272

          k = 0.3125 0.3125 0.4375 (  3476 PWs)   bands (ev):

     7.0521   7.6681   8.1188   8.1188   9.3365   9.3365   9.4953   9.7106
     9.7589   9.7605   9.8384   9.8772   9.8772   9.9331  10.0021  10.0021
    11.0087  11.0343  11.1176  11.1176  11.1343  11.8922  13.7752  13.7752
    16.9409  16.9409

          k = 0.3125 0.4375 0.4375 (  3474 PWs)   bands (ev):

     7.4277   7.7813   7.7815   7.9254   9.5020   9.5655   9.5657   9.7091
     9.7813   9.8438   9.8439   9.8653  10.1090  10.1096  10.1338  10.1497
    10.9513  11.0814  11.0815  11.0855  11.4269  12.3584  12.3594  13.1391
    16.8032  17.6969

          k = 0.4375 0.4375 0.4375 (  3469 PWs)   bands (ev):

     7.5436   7.7043   7.7045   7.7047   9.6441   9.6441   9.6442   9.7131
     9.7131   9.7428   9.7429   9.7429  10.6434  10.6437  10.6440  11.0696
    11.0993  11.0993  11.1463  11.1463  11.1464  12.2127  12.2134  12.2141
    16.6758  16.6762

          k = 0.1875 0.0625 0.0625 (  3497 PWs)   bands (ev):

     3.8288   7.8490   8.0529   8.0535   8.4506   8.4570   8.4570   9.5995
     9.8379   9.8410  10.4579  10.5964  10.5965  10.5991  10.8920  10.9588
    10.9590  10.9804  11.1735  11.2550  11.2554  12.6029  14.9661  14.9661
    20.4873  20.4879

          k = 0.3125 0.0625 0.0625 (  3489 PWs)   bands (ev):

     4.5593   7.5690   8.3338   8.3343   8.6346   8.6682   8.6682   9.4028
     9.9799   9.9799   9.9863  10.0016  10.3184  10.4259  10.6864  10.7457
    10.7459  10.7715  11.0543  11.2516  11.2520  11.3033  16.1819  16.1820
    20.7791  20.7795

          k = 0.4375 0.0625 0.0625 (  3479 PWs)   bands (ev):

     5.5835   6.7279   8.5824   8.5829   8.8790   8.9836   8.9836   9.1488
     9.4310   9.4310  10.0180  10.0290  10.2289  10.3790  10.4996  10.5498
    10.5501  10.7129  10.8013  10.9285  11.2506  11.2510  17.6044  17.6048
    19.2276  19.2279

          k = 0.1875 0.1875 0.0625 (  3492 PWs)   bands (ev):

     4.1968   8.0377   8.0377   8.2049   8.5432   8.5470   8.5471   9.5477
     9.8769   9.8786  10.3290  10.3360  10.3360  10.4448  10.6116  10.8300
    10.8917  10.8917  11.1612  11.1612  11.1853  13.3564  13.3564  15.6315
    20.4750  20.8865

          k = 0.1875 0.3125 0.0625 (  3494 PWs)   bands (ev):

     4.9098   7.7935   8.3542   8.4595   8.7047   8.7157   8.7392   9.3964
     9.7591   9.8813   9.9237   9.9553  10.0085  10.3731  10.6538  10.6929
    10.7212  10.7370  11.0152  11.1289  11.1360  11.9569  14.3696  16.7026
    18.6841  21.1573

          k = 0.3125 0.0625 0.1875 (  3494 PWs)   bands (ev):

     4.9098   7.7935   8.3542   8.4595   8.7047   8.7157   8.7392   9.3965
     9.7591   9.8813   9.9236   9.9553  10.0085  10.3731  10.6538  10.6929
    10.7211  10.7370  11.0152  11.1289  11.1361  11.9569  14.3696  16.7026
    18.6841  21.1573

          k = 0.1875 0.4375 0.0625 (  3476 PWs)   bands (ev):

     5.9031   7.0007   8.6656   8.7237   8.8779   8.9378   8.9855   9.1780
     9.3085   9.4420   9.7810   9.8629  10.1987  10.4355  10.4789  10.5013
    10.5322  10.7705  10.9282  11.1152  11.1162  11.2320  15.5482  16.8901
    18.1920  19.6937

          k = 0.4375 0.0625 0.1875 (  3476 PWs)   bands (ev):

     5.9031   7.0007   8.6656   8.7237   8.8779   8.9378   8.9855   9.1780
     9.3085   9.4420   9.7810   9.8629  10.1987  10.4355  10.4789  10.5013
    10.5322  10.7705  10.9282  11.1151  11.1163  11.2320  15.5482  16.8901
    18.1920  19.6937

          k = 0.3125 0.3125 0.0625 (  3478 PWs)   bands (ev):

     5.5826   8.1717   8.1717   8.6233   8.8114   8.8780   8.8780   9.3419
     9.5284   9.5284   9.6789   9.8661  10.0649  10.3423  10.5053  10.5828
    10.5828  10.9348  10.9348  10.9404  11.0075  12.7643  12.7643  16.5231
    17.8378  21.6552

          k = 0.3125 0.4375 0.0625 (  3477 PWs)   bands (ev):

     6.5009   7.4821   8.5441   8.6997   8.9669   9.0519   9.0713   9.2182
     9.2564   9.4256   9.5576   9.7408  10.1730  10.3614  10.3864  10.4290
    10.4352  10.6842  10.9022  10.9256  11.2588  11.7739  13.7382  14.9761
    19.0403  20.5354

          k = 0.4375 0.0625 0.3125 (  3477 PWs)   bands (ev):

     6.5009   7.4821   8.5441   8.6997   8.9669   9.0519   9.0713   9.2182
     9.2564   9.4256   9.5576   9.7408  10.1730  10.3614  10.3864  10.4290
    10.4352  10.6842  10.9022  10.9256  11.2588  11.7739  13.7382  14.9761
    19.0403  20.5354

          k = 0.4375 0.4375 0.0625 (  3483 PWs)   bands (ev):

     7.2718   8.0225   8.0225   8.4391   9.2053   9.2053   9.2170   9.2367
     9.3545   9.4022   9.4022   9.6182  10.1466  10.2532  10.2532  10.2546
    10.4815  10.6669  10.6669  10.7563  11.7336  12.4814  12.4814  13.4997
    20.2346  21.7027

          k = 0.3125 0.1875 0.1875 (  3490 PWs)   bands (ev):

     5.2424   7.9504   8.4264   8.4267   8.7925   8.7927   8.8066   9.4174
     9.7432   9.7433   9.8065   9.9039   9.9374  10.4417  10.5147  10.5149
    10.5229  10.7160  11.1546  11.1549  11.1648  12.3143  14.7395  14.7400
    19.1736  19.1737

          k = 0.4375 0.1875 0.1875 (  3485 PWs)   bands (ev):

     6.1899   7.2155   8.6590   8.6591   8.9021   8.9024   9.0268   9.2418
     9.4918   9.4920   9.7080   9.8164  10.0499  10.2245  10.3904  10.3906
    10.7383  10.8970  11.0564  11.1048  11.1051  11.2952  15.6805  15.6817
    17.6909  17.6916

          k = 0.3125 0.3125 0.1875 (  3484 PWs)   bands (ev):

     5.8726   8.1729   8.1729   8.4674   8.9480   8.9941   8.9941   9.4251
     9.6023   9.6023   9.6936   9.8611   9.9167  10.3086  10.3086  10.3177
    10.5736  10.8724  11.1106  11.1221  11.1221  12.9682  12.9682  15.2234
    17.4545  19.9922

          k = 0.3125 0.4375 0.1875 (  3472 PWs)   bands (ev):

     6.7086   7.5619   8.3500   8.4438   9.1038   9.1459   9.2249   9.3719
     9.5504   9.6075   9.6375   9.7501   9.9674  10.1082  10.2021  10.2136
    10.7239  10.9815  11.0430  11.0446  11.1704  11.7646  13.8347  14.8439
    17.2731  18.3904

          k = 0.4375 0.1875 0.3125 (  3472 PWs)   bands (ev):

     6.7086   7.5619   8.3500   8.4438   9.1038   9.1459   9.2249   9.3719
     9.5504   9.6075   9.6375   9.7501   9.9674  10.1082  10.2021  10.2136
    10.7239  10.9815  11.0430  11.0446  11.1704  11.7646  13.8347  14.8439
    17.2731  18.3904

          k = 0.4375 0.4375 0.1875 (  3479 PWs)   bands (ev):

     7.3350   7.9091   7.9091   8.1946   9.3303   9.4311   9.4311   9.5187
     9.5851   9.5851   9.6619   9.6922   9.9372  10.0366  10.0366  10.0569
    10.7288  10.8939  10.8939  10.9345  11.6361  12.4491  12.4491  13.4689
    18.1527  19.4696

          k = 0.4375 0.3125 0.3125 (  3476 PWs)   bands (ev):

     7.0521   7.6681   8.1187   8.1189   9.3363   9.3366   9.4953   9.7106
     9.7589   9.7605   9.8384   9.8769   9.8774   9.9331  10.0021  10.0022
    11.0087  11.0343  11.1175  11.1177  11.1343  11.8922  13.7745  13.7758
    16.9405  16.9413

          k = 0.4375 0.4375 0.3125 (  3474 PWs)   bands (ev):

     7.4277   7.7814   7.7814   7.9254   9.5021   9.5656   9.5656   9.7091
     9.7813   9.8438   9.8438   9.8653  10.1093  10.1093  10.1338  10.1497
    10.9513  11.0814  11.0814  11.0855  11.4269  12.3589  12.3589  13.1391
    16.8032  17.6967

 ------ SPIN DOWN ----------


          k = 0.0625 0.0625 0.0625 (  3479 PWs)   bands (ev):

     3.4529   7.8825   7.8829   7.8833   8.3521   8.3521   8.3521   9.7005
     9.7585   9.7585  10.5520  10.5520  11.0773  11.0773  11.0773  11.1040
    11.1040  11.1040  11.2643  11.2643  11.2643  14.1519  14.1519  14.1519
    20.3119  20.3121

          k = 0.0625 0.0625 0.1875 (  3497 PWs)   bands (ev):

     3.8288   7.8490   8.0532   8.0532   8.4506   8.4570   8.4570   9.5995
     9.8379   9.8410  10.4579  10.5965  10.5965  10.5991  10.8920  10.9589
    10.9589  10.9804  11.1735  11.2552  11.2552  12.6030  14.9661  14.9661
    20.4876  20.4876

          k = 0.0625 0.0625 0.3125 (  3489 PWs)   bands (ev):

     4.5593   7.5690   8.3340   8.3341   8.6346   8.6682   8.6682   9.4027
     9.9799   9.9799   9.9863  10.0016  10.3184  10.4259  10.6864  10.7458
    10.7458  10.7715  11.0543  11.2518  11.2518  11.3033  16.1820  16.1820
    20.7793  20.7793

          k = 0.0625 0.0625 0.4375 (  3479 PWs)   bands (ev):

     5.5835   6.7279   8.5826   8.5826   8.8790   8.9836   8.9836   9.1488
     9.4310   9.4310  10.0180  10.0290  10.2289  10.3790  10.4996  10.5499
    10.5499  10.7129  10.8013  10.9285  11.2508  11.2508  17.6046  17.6046
    19.2278  19.2278

          k = 0.0625 0.1875 0.1875 (  3492 PWs)   bands (ev):

     4.1968   8.0373   8.0380   8.2049   8.5432   8.5470   8.5471   9.5477
     9.8769   9.8786  10.3290  10.3359  10.3362  10.4448  10.6116  10.8300
    10.8917  10.8917  11.1612  11.1612  11.1853  13.3563  13.3566  15.6315
    20.4750  20.8865

          k = 0.0625 0.1875 0.3125 (  3494 PWs)   bands (ev):

     4.9098   7.7935   8.3542   8.4595   8.7047   8.7157   8.7392   9.3964
     9.7591   9.8813   9.9237   9.9553  10.0085  10.3731  10.6538  10.6929
    10.7211  10.7370  11.0152  11.1289  11.1360  11.9569  14.3696  16.7026
    18.6841  21.1573

          k = 0.0625 0.1875 0.4375 (  3476 PWs)   bands (ev):

     5.9031   7.0007   8.6656   8.7237   8.8779   8.9378   8.9855   9.1780
     9.3085   9.4420   9.7810   9.8629  10.1987  10.4355  10.4789  10.5013
    10.5322  10.7705  10.9282  11.1152  11.1162  11.2320  15.5482  16.8901
    18.1920  19.6937

          k = 0.0625 0.3125 0.3125 (  3478 PWs)   bands (ev):

     5.5826   8.1714   8.1720   8.6233   8.8114   8.8779   8.8781   9.3419
     9.5282   9.5286   9.6789   9.8661  10.0649  10.3423  10.5053  10.5827
    10.5828  10.9348  10.9348  10.9404  11.0075  12.7641  12.7645  16.5231
    17.8378  21.6552

          k = 0.0625 0.3125 0.4375 (  3477 PWs)   bands (ev):

     6.5009   7.4821   8.5441   8.6997   8.9669   9.0519   9.0713   9.2182
     9.2564   9.4256   9.5576   9.7408  10.1730  10.3614  10.3864  10.4290
    10.4352  10.6842  10.9022  10.9256  11.2588  11.7739  13.7382  14.9761
    19.0403  20.5354

          k = 0.0625 0.4375 0.4375 (  3483 PWs)   bands (ev):

     7.2718   8.0224   8.0226   8.4391   9.2051   9.2054   9.2170   9.2367
     9.3545   9.4022   9.4023   9.6182  10.1466  10.2531  10.2533  10.2546
    10.4815  10.6669  10.6670  10.7563  11.7336  12.4812  12.4815  13.4997
    20.2346  21.7028

          k = 0.1875 0.1875 0.1875 (  3488 PWs)   bands (ev):

     4.5540   8.1885   8.1889   8.1892   8.6319   8.6320   8.6320   9.5207
     9.8873   9.8873  10.1095  10.1096  10.1097  10.5501  10.5501  10.6644
    10.6644  10.6645  11.2040  11.2040  11.2040  13.8927  13.8929  13.8930
    21.1139  21.1139

          k = 0.1875 0.1875 0.3125 (  3490 PWs)   bands (ev):

     5.2424   7.9504   8.4266   8.4266   8.7925   8.7926   8.8066   9.4174
     9.7433   9.7433   9.8065   9.9039   9.9374  10.4417  10.5148  10.5148
    10.5229  10.7160  11.1547  11.1547  11.1648  12.3143  14.7398  14.7398
    19.1736  19.1736

          k = 0.1875 0.1875 0.4375 (  3485 PWs)   bands (ev):

     6.1899   7.2155   8.6590   8.6590   8.9022   8.9023   9.0267   9.2417
     9.4919   9.4919   9.7080   9.8164  10.0499  10.2244  10.3905  10.3905
    10.7383  10.8970  11.0564  11.1050  11.1050  11.2952  15.6811  15.6811
    17.6912  17.6912

          k = 0.1875 0.3125 0.3125 (  3484 PWs)   bands (ev):

     5.8726   8.1728   8.1731   8.4674   8.9480   8.9939   8.9943   9.4251
     9.6021   9.6024   9.6936   9.8611   9.9167  10.3086  10.3086  10.3177
    10.5736  10.8724  11.1106  11.1221  11.1221  12.9679  12.9684  15.2234
    17.4545  19.9922

          k = 0.1875 0.3125 0.4375 (  3472 PWs)   bands (ev):

     6.7086   7.5619   8.3500   8.4438   9.1038   9.1459   9.2249   9.3719
     9.5504   9.6075   9.6375   9.7501   9.9674  10.1082  10.2021  10.2136
    10.7239  10.9815  11.0430  11.0446  11.1704  11.7646  13.8347  14.8439
    17.2731  18.3904

          k = 0.1875 0.4375 0.4375 (  3479 PWs)   bands (ev):

     7.3350   7.9091   7.9091   8.1946   9.3302   9.4310   9.4313   9.5187
     9.5850   9.5852   9.6619   9.6922   9.9372  10.0365  10.0367  10.0569
    10.7288  10.8939  10.8940  10.9345  11.6361  12.4489  12.4493  13.4689
    18.1527  19.4696

          k = 0.3125 0.3125 0.3125 (  3479 PWs)   bands (ev):

     6.4010   8.1467   8.1467   8.1467   9.2006   9.2009   9.2012   9.5896
     9.7256   9.7256   9.7256   9.8334   9.8334  10.1036  10.1036  10.1037
    10.8111  10.8111  11.1681  11.1681  11.1681  13.3578  13.3582  13.3586
    18.1270  18.1272

          k = 0.3125 0.3125 0.4375 (  3476 PWs)   bands (ev):

     7.0521   7.6681   8.1188   8.1188   9.3365   9.3365   9.4953   9.7106
     9.7589   9.7605   9.8384   9.8772   9.8772   9.9331  10.0021  10.0021
    11.0087  11.0343  11.1176  11.1176  11.1343  11.8922  13.7752  13.7752
    16.9409  16.9409

          k = 0.3125 0.4375 0.4375 (  3474 PWs)   bands (ev):

     7.4277   7.7813   7.7815   7.9254   9.5020   9.5656   9.5656   9.7091
     9.7813   9.8438   9.8439   9.8653  10.1090  10.1096  10.1338  10.1497
    10.9513  11.0814  11.0814  11.0855  11.4269  12.3585  12.3594  13.1391
    16.8032  17.6969

          k = 0.4375 0.4375 0.4375 (  3469 PWs)   bands (ev):

     7.5436   7.7043   7.7045   7.7047   9.6441   9.6441   9.6442   9.7131
     9.7131   9.7428   9.7429   9.7429  10.6435  10.6437  10.6440  11.0696
    11.0993  11.0993  11.1463  11.1463  11.1463  12.2127  12.2134  12.2141
    16.6758  16.6763

          k = 0.1875 0.0625 0.0625 (  3497 PWs)   bands (ev):

     3.8288   7.8490   8.0528   8.0536   8.4506   8.4570   8.4570   9.5995
     9.8379   9.8410  10.4579  10.5965  10.5965  10.5991  10.8920  10.9588
    10.9589  10.9804  11.1735  11.2552  11.2552  12.6030  14.9661  14.9661
    20.4873  20.4878

          k = 0.3125 0.0625 0.0625 (  3489 PWs)   bands (ev):

     4.5593   7.5690   8.3337   8.3344   8.6346   8.6682   8.6682   9.4028
     9.9799   9.9799   9.9863  10.0016  10.3184  10.4259  10.6864  10.7457
    10.7458  10.7715  11.0543  11.2518  11.2519  11.3033  16.1819  16.1820
    20.7792  20.7795

          k = 0.4375 0.0625 0.0625 (  3479 PWs)   bands (ev):

     5.5835   6.7279   8.5822   8.5830   8.8790   8.9836   8.9836   9.1488
     9.4310   9.4310  10.0180  10.0290  10.2289  10.3790  10.4996  10.5499
    10.5500  10.7129  10.8013  10.9285  11.2508  11.2508  17.6044  17.6048
    19.2276  19.2279

          k = 0.1875 0.1875 0.0625 (  3492 PWs)   bands (ev):

     4.1968   8.0377   8.0377   8.2049   8.5432   8.5470   8.5471   9.5477
     9.8769   9.8786  10.3290  10.3360  10.3360  10.4448  10.6116  10.8300
    10.8917  10.8917  11.1612  11.1612  11.1853  13.3564  13.3564  15.6315
    20.4750  20.8865

          k = 0.1875 0.3125 0.0625 (  3494 PWs)   bands (ev):

     4.9098   7.7935   8.3542   8.4595   8.7047   8.7157   8.7392   9.3964
     9.7591   9.8813   9.9236   9.9553  10.0085  10.3731  10.6538  10.6929
    10.7211  10.7370  11.0152  11.1289  11.1360  11.9569  14.3696  16.7026
    18.6841  21.1573

          k = 0.3125 0.0625 0.1875 (  3494 PWs)   bands (ev):

     4.9098   7.7935   8.3542   8.4595   8.7047   8.7157   8.7392   9.3965
     9.7591   9.8813   9.9236   9.9553  10.0085  10.3731  10.6538  10.6929
    10.7211  10.7370  11.0152  11.1289  11.1360  11.9569  14.3696  16.7026
    18.6841  21.1573

          k = 0.1875 0.4375 0.0625 (  3476 PWs)   bands (ev):

     5.9031   7.0007   8.6656   8.7237   8.8779   8.9378   8.9855   9.1780
     9.3085   9.4420   9.7810   9.8629  10.1987  10.4355  10.4789  10.5013
    10.5322  10.7705  10.9282  11.1152  11.1162  11.2320  15.5482  16.8901
    18.1920  19.6937

          k = 0.4375 0.0625 0.1875 (  3476 PWs)   bands (ev):

     5.9031   7.0007   8.6656   8.7237   8.8779   8.9378   8.9855   9.1780
     9.3085   9.4420   9.7810   9.8629  10.1987  10.4355  10.4789  10.5013
    10.5322  10.7705  10.9282  11.1152  11.1162  11.2320  15.5482  16.8901
    18.1920  19.6937

          k = 0.3125 0.3125 0.0625 (  3478 PWs)   bands (ev):

     5.5826   8.1717   8.1717   8.6233   8.8114   8.8780   8.8780   9.3419
     9.5284   9.5284   9.6789   9.8661  10.0649  10.3423  10.5053  10.5828
    10.5828  10.9348  10.9348  10.9404  11.0075  12.7643  12.7643  16.5231
    17.8378  21.6552

          k = 0.3125 0.4375 0.0625 (  3477 PWs)   bands (ev):

     6.5009   7.4821   8.5441   8.6997   8.9669   9.0519   9.0713   9.2182
     9.2564   9.4256   9.5576   9.7408  10.1730  10.3614  10.3864  10.4290
    10.4352  10.6842  10.9022  10.9256  11.2588  11.7739  13.7382  14.9761
    19.0403  20.5354

          k = 0.4375 0.0625 0.3125 (  3477 PWs)   bands (ev):

     6.5009   7.4821   8.5441   8.6997   8.9669   9.0519   9.0713   9.2182
     9.2564   9.4256   9.5576   9.7408  10.1730  10.3614  10.3864  10.4290
    10.4352  10.6842  10.9022  10.9256  11.2588  11.7739  13.7382  14.9761
    19.0403  20.5354

          k = 0.4375 0.4375 0.0625 (  3483 PWs)   bands (ev):

     7.2718   8.0225   8.0225   8.4391   9.2053   9.2053   9.2170   9.2367
     9.3545   9.4022   9.4022   9.6182  10.1466  10.2532  10.2532  10.2546
    10.4815  10.6669  10.6669  10.7563  11.7336  12.4814  12.4814  13.4997
    20.2346  21.7027

          k = 0.3125 0.1875 0.1875 (  3490 PWs)   bands (ev):

     5.2424   7.9504   8.4263   8.4268   8.7924   8.7927   8.8066   9.4174
     9.7432   9.7433   9.8065   9.9039   9.9374  10.4417  10.5147  10.5148
    10.5229  10.7160  11.1547  11.1547  11.1648  12.3143  14.7395  14.7400
    19.1735  19.1737

          k = 0.4375 0.1875 0.1875 (  3485 PWs)   bands (ev):

     6.1899   7.2155   8.6590   8.6591   8.9019   8.9026   9.0268   9.2418
     9.4919   9.4919   9.7080   9.8164  10.0499  10.2244  10.3904  10.3906
    10.7383  10.8970  11.0564  11.1049  11.1050  11.2952  15.6805  15.6817
    17.6908  17.6917

          k = 0.3125 0.3125 0.1875 (  3484 PWs)   bands (ev):

     5.8726   8.1729   8.1729   8.4674   8.9480   8.9941   8.9941   9.4251
     9.6023   9.6023   9.6936   9.8610   9.9167  10.3086  10.3086  10.3177
    10.5736  10.8724  11.1106  11.1221  11.1221  12.9682  12.9682  15.2234
    17.4545  19.9922

          k = 0.3125 0.4375 0.1875 (  3472 PWs)   bands (ev):

     6.7086   7.5619   8.3500   8.4438   9.1038   9.1459   9.2249   9.3719
     9.5504   9.6075   9.6375   9.7501   9.9674  10.1082  10.2021  10.2136
    10.7239  10.9815  11.0430  11.0446  11.1704  11.7646  13.8347  14.8439
    17.2731  18.3904

          k = 0.4375 0.1875 0.3125 (  3472 PWs)   bands (ev):

     6.7086   7.5619   8.3500   8.4438   9.1038   9.1459   9.2249   9.3719
     9.5504   9.6075   9.6375   9.7501   9.9674  10.1082  10.2021  10.2136
    10.7239  10.9815  11.0430  11.0446  11.1704  11.7646  13.8347  14.8439
    17.2731  18.3904

          k = 0.4375 0.4375 0.1875 (  3479 PWs)   bands (ev):

     7.3350   7.9091   7.9091   8.1946   9.3303   9.4311   9.4311   9.5187
     9.5851   9.5851   9.6619   9.6922   9.9372  10.0366  10.0366  10.0569
    10.7288  10.8939  10.8939  10.9345  11.6361  12.4491  12.4491  13.4689
    18.1527  19.4696

          k = 0.4375 0.3125 0.3125 (  3476 PWs)   bands (ev):

     7.0521   7.6681   8.1187   8.1189   9.3362   9.3367   9.4953   9.7106
     9.7588   9.7605   9.8384   9.8771   9.8772   9.9331  10.0020  10.0022
    11.0087  11.0343  11.1176  11.1176  11.1343  11.8922  13.7745  13.7759
    16.9404  16.9414

          k = 0.4375 0.4375 0.3125 (  3474 PWs)   bands (ev):

     7.4277   7.7814   7.7814   7.9254   9.5021   9.5656   9.5656   9.7091
     9.7813   9.8438   9.8438   9.8652  10.1093  10.1093  10.1338  10.1497
    10.9513  11.0814  11.0814  11.0855  11.4269  12.3589  12.3589  13.1391
    16.8032  17.6967

     the Fermi energy is    12.7139 ev

!    total energy              =    -490.98753810 Ry
     Harris-Foulkes estimate   =    -490.98753800 Ry
     estimated scf accuracy    <       0.00000005 Ry

     The total energy is the sum of the following terms:

     one-electron contribution =    -109.42199605 Ry
     hartree contribution      =     122.23825533 Ry
     xc contribution           =    -178.51769897 Ry
     ewald contribution        =    -325.28614539 Ry
     smearing contrib. (-TS)   =       0.00004698 Ry

     total magnetization       =     0.00 Bohr mag/cell
     absolute magnetization    =     0.00 Bohr mag/cell

     convergence has been achieved in   7 iterations

     Writing output data file cu-75.save/

     init_run     :      2.54s CPU      2.66s WALL (       1 calls)
     electrons    :     44.26s CPU     45.43s WALL (       1 calls)

     Called by init_run:
     wfcinit      :      2.25s CPU      2.36s WALL (       1 calls)
     potinit      :      0.04s CPU      0.04s WALL (       1 calls)
     hinit0       :      0.19s CPU      0.19s WALL (       1 calls)

     Called by electrons:
     c_bands      :     38.69s CPU     39.66s WALL (       8 calls)
     sum_band     :      5.15s CPU      5.34s WALL (       8 calls)
     v_of_rho     :      0.14s CPU      0.14s WALL (       8 calls)
     newd         :      0.30s CPU      0.31s WALL (       8 calls)
     mix_rho      :      0.01s CPU      0.02s WALL (       8 calls)

     Called by c_bands:
     init_us_2    :      0.41s CPU      0.42s WALL (    1360 calls)
     cegterg      :     36.59s CPU     37.54s WALL (     640 calls)

     Called by sum_band:
     sum_band:bec :      0.03s CPU      0.03s WALL (     640 calls)
     addusdens    :      0.37s CPU      0.38s WALL (       8 calls)

     Called by *egterg:
     h_psi        :     22.81s CPU     23.81s WALL (    2202 calls)
     s_psi        :      3.06s CPU      3.08s WALL (    2202 calls)
     g_psi        :      0.13s CPU      0.13s WALL (    1482 calls)
     cdiaghg      :      2.60s CPU      2.62s WALL (    2042 calls)

     Called by h_psi:
     h_psi:pot    :     22.74s CPU     23.74s WALL (    2202 calls)
     h_psi:calbec :      4.06s CPU      4.25s WALL (    2202 calls)
     vloc_psi     :     15.63s CPU     16.39s WALL (    2202 calls)
     add_vuspsi   :      3.05s CPU      3.10s WALL (    2202 calls)

     General routines
     calbec       :      5.53s CPU      5.78s WALL (    2842 calls)
     fft          :      0.06s CPU      0.06s WALL (     168 calls)
     ffts         :      0.00s CPU      0.00s WALL (      16 calls)
     fftw         :     16.89s CPU     17.68s WALL (  105558 calls)

     Parallel routines
     fft_scatt_xy :      1.39s CPU      1.45s WALL (  105742 calls)
     fft_scatt_yz :      7.78s CPU      8.13s WALL (  105742 calls)

     PWSCF        :     48.28s CPU     49.64s WALL


   This run was terminated on:  19: 9:57  17Mar2022            

=------------------------------------------------------------------------------=
   JOB DONE.
=------------------------------------------------------------------------------=
