
     Program PWSCF v.6.4.1 starts on 18Jun2022 at 21:45:46 

     This program is part of the open-source Quantum ESPRESSO suite
     for quantum simulation of materials; please cite
         "P. Giannozzi et al., J. Phys.:Condens. Matter 21 395502 (2009);
         "P. Giannozzi et al., J. Phys.:Condens. Matter 29 465901 (2017);
          URL http://www.quantum-espresso.org", 
     in publications or presentations arising from this work. More details at
     http://www.quantum-espresso.org/quote

     Parallel version (MPI), running on     5 processors

     MPI processes distributed on     1 nodes
     R & G space division:  proc/nbgrp/npool/nimage =       5
     Reading input from distance-4.0.in

     Current dimensions of program PWSCF are:
     Max number of different atomic species (ntypx) = 10
     Max number of k-points (npk) =  40000
     Max angular momentum in pseudopotentials (lmaxx) =  3

     IMPORTANT: XC functional enforced from input :
     Exchange-correlation      = RVV10 ( 1  4 13  4 3 0)
     Any further DFT definition will be discarded
     Please, verify this is what you really want

               file H.pbe-rrkjus.UPF: wavefunction(s)  1S renormalized
               file H.pbe-rrkjus.UPF: wavefunction(s)  1S renormalized

     Subspace diagonalization in iterative solution of the eigenvalue problem:
     a serial algorithm will be used


     Parallelization info
     --------------------
     sticks:   dense  smooth     PW     G-vecs:    dense   smooth      PW
     Min        3662    2095    542               487826   210779   27834
     Max        3663    2096    543               487829   210784   27841
     Sum       18313   10477   2713              2439139  1053907  139193



     bravais-lattice index     =            4
     lattice parameter (alat)  =      23.2937  a.u.
     unit-cell volume          =   13319.7822 (a.u.)^3
     number of atoms/cell      =           52
     number of atomic types    =            3
     number of electrons       =       202.00
     number of Kohn-Sham states=          121
     kinetic-energy cutoff     =      70.0000  Ry
     charge density cutoff     =     490.0000  Ry
     convergence threshold     =      1.0E-06
     mixing beta               =       0.7000
     number of iterations used =            8  plain     mixing
     Exchange-correlation      = RVV10 ( 1  4 13  4 3 0)

     celldm(1)=  23.293684  celldm(2)=   0.000000  celldm(3)=   1.216892
     celldm(4)=   0.000000  celldm(5)=   0.000000  celldm(6)=   0.000000

     crystal axes: (cart. coord. in units of alat)
               a(1) = (   1.000000   0.000000   0.000000 )  
               a(2) = (  -0.500000   0.866025   0.000000 )  
               a(3) = (   0.000000   0.000000   1.216892 )  

     reciprocal axes: (cart. coord. in units 2 pi/alat)
               b(1) = (  1.000000  0.577350 -0.000000 )  
               b(2) = (  0.000000  1.154701  0.000000 )  
               b(3) = (  0.000000 -0.000000  0.821766 )  


     PseudoPot. # 1 for H  read from file:
     /home/cristian/Escritorio/Proyecto_Grafeno/pseudopotenciales/H.pbe-rrkjus.UPF
     MD5 check sum: 7cc9d459525c9a0585f487a71c3c9563
     Pseudo is Ultrasoft, Zval =  1.0
     Generated by new atomic code, or converted to UPF format
     Using radial grid of 1061 points,  2 beta functions with: 
                l(1) =   0
                l(2) =   0
     Q(r) pseudized with 0 coefficients 


     PseudoPot. # 2 for H  read from file:
     /home/cristian/Escritorio/Proyecto_Grafeno/pseudopotenciales/H.pbe-rrkjus.UPF
     MD5 check sum: 7cc9d459525c9a0585f487a71c3c9563
     Pseudo is Ultrasoft, Zval =  1.0
     Generated by new atomic code, or converted to UPF format
     Using radial grid of 1061 points,  2 beta functions with: 
                l(1) =   0
                l(2) =   0
     Q(r) pseudized with 0 coefficients 


     PseudoPot. # 3 for C  read from file:
     /home/cristian/Escritorio/Proyecto_Grafeno/pseudopotenciales/C.pbe-n-rrkjus_psl.1.0.0.UPF
     MD5 check sum: 1fdd950c42eb37d8afe3dd2f8d12311e
     Pseudo is Ultrasoft + core correction, Zval =  4.0
     Generated using "atomic" code by A. Dal Corso v.6.3MaX
     Using radial grid of 1073 points,  4 beta functions with: 
                l(1) =   0
                l(2) =   0
                l(3) =   1
                l(4) =   1
     Q(r) pseudized with 0 coefficients 


     vdW kernel table read from file rVV10_kernel_table
     MD5 check sum: b8e2538accc0c0b3206b45ba4daaba6c

     atomic species   valence    mass     pseudopotential
        H1             1.00     1.00794     H ( 1.00)
        H2             1.00     1.00794     H ( 1.00)
        C              4.00    12.01070     C ( 1.00)

     No symmetry found



   Cartesian axes

     site n.     atom                  positions (alat units)
         1           H1  tau(   1) = (   0.2500000   0.4907477   0.3245045  )
         2           H2  tau(   2) = (   0.2500000   0.4907477   0.3855171  )
         3           C   tau(   3) = (   0.0000000   0.0000000   0.0000000  )
         4           C   tau(   4) = (   0.0000000   0.1154701   0.0000000  )
         5           C   tau(   5) = (  -0.1000000   0.1732051   0.0000000  )
         6           C   tau(   6) = (  -0.1000000   0.2886751   0.0000000  )
         7           C   tau(   7) = (  -0.2000000   0.3464102   0.0000000  )
         8           C   tau(   8) = (  -0.2000000   0.4618802   0.0000000  )
         9           C   tau(   9) = (  -0.3000000   0.5196152   0.0000000  )
        10           C   tau(  10) = (  -0.3000000   0.6350853   0.0000000  )
        11           C   tau(  11) = (  -0.4000000   0.6928203   0.0000000  )
        12           C   tau(  12) = (  -0.4000000   0.8082904   0.0000000  )
        13           C   tau(  13) = (   0.2000000   0.0000000   0.0000000  )
        14           C   tau(  14) = (   0.2000000   0.1154701   0.0000000  )
        15           C   tau(  15) = (   0.1000000   0.1732051   0.0000000  )
        16           C   tau(  16) = (   0.1000000   0.2886751   0.0000000  )
        17           C   tau(  17) = (   0.0000000   0.3464102   0.0000000  )
        18           C   tau(  18) = (   0.0000000   0.4618802   0.0000000  )
        19           C   tau(  19) = (  -0.1000000   0.5196152   0.0000000  )
        20           C   tau(  20) = (  -0.1000000   0.6350853   0.0000000  )
        21           C   tau(  21) = (  -0.2000000   0.6928203   0.0000000  )
        22           C   tau(  22) = (  -0.2000000   0.8082904   0.0000000  )
        23           C   tau(  23) = (   0.4000000   0.0000000   0.0000000  )
        24           C   tau(  24) = (   0.4000000   0.1154701   0.0000000  )
        25           C   tau(  25) = (   0.3000000   0.1732051   0.0000000  )
        26           C   tau(  26) = (   0.3000000   0.2886751   0.0000000  )
        27           C   tau(  27) = (   0.2000000   0.3464102   0.0000000  )
        28           C   tau(  28) = (   0.2000000   0.4618802   0.0000000  )
        29           C   tau(  29) = (   0.1000000   0.5196152   0.0000000  )
        30           C   tau(  30) = (   0.1000000   0.6350853   0.0000000  )
        31           C   tau(  31) = (   0.0000000   0.6928203   0.0000000  )
        32           C   tau(  32) = (   0.0000000   0.8082904   0.0000000  )
        33           C   tau(  33) = (   0.6000000   0.0000000   0.0000000  )
        34           C   tau(  34) = (   0.6000000   0.1154701   0.0000000  )
        35           C   tau(  35) = (   0.5000000   0.1732051   0.0000000  )
        36           C   tau(  36) = (   0.5000000   0.2886751   0.0000000  )
        37           C   tau(  37) = (   0.4000000   0.3464102   0.0000000  )
        38           C   tau(  38) = (   0.4000000   0.4618802   0.0000000  )
        39           C   tau(  39) = (   0.3000000   0.5196152   0.0000000  )
        40           C   tau(  40) = (   0.3000000   0.6350853   0.0000000  )
        41           C   tau(  41) = (   0.2000000   0.6928203   0.0000000  )
        42           C   tau(  42) = (   0.2000000   0.8082904   0.0000000  )
        43           C   tau(  43) = (   0.8000000   0.0000000   0.0000000  )
        44           C   tau(  44) = (   0.8000000   0.1154701   0.0000000  )
        45           C   tau(  45) = (   0.7000000   0.1732051   0.0000000  )
        46           C   tau(  46) = (   0.7000000   0.2886751   0.0000000  )
        47           C   tau(  47) = (   0.6000000   0.3464102   0.0000000  )
        48           C   tau(  48) = (   0.6000000   0.4618802   0.0000000  )
        49           C   tau(  49) = (   0.5000000   0.5196152   0.0000000  )
        50           C   tau(  50) = (   0.5000000   0.6350853   0.0000000  )
        51           C   tau(  51) = (   0.4000000   0.6928203   0.0000000  )
        52           C   tau(  52) = (   0.4000000   0.8082904   0.0000000  )

     number of k points=     4  Marzari-Vanderbilt smearing, width (Ry)=  0.0010
                       cart. coord. in units 2pi/alat
        k(    1) = (   0.0000000   0.0000000   0.0000000), wk =   0.5000000
        k(    2) = (   0.0000000  -0.5773503   0.0000000), wk =   0.5000000
        k(    3) = (   0.5000000  -0.2886751   0.0000000), wk =   0.5000000
        k(    4) = (  -0.5000000  -0.2886751   0.0000000), wk =   0.5000000

     Dense  grid:  2439139 G-vectors     FFT dimensions: ( 180, 180, 200)

     Smooth grid:  1053907 G-vectors     FFT dimensions: ( 125, 125, 160)

     Estimated max dynamical RAM per process >       1.39 GB

     Estimated total dynamical RAM >       6.95 GB

     Check: negative core charge=   -0.000001

     Initial potential from superposition of free atoms

     starting charge  201.80551, renormalised to  202.00000

     negative rho (up, down):  8.675E-04 0.000E+00


---------------------------------------------------------------------------------
Carrying out rVV10 run using the following parameters:
Nqs =      20    Nr_points =    1024   r_max =   100.000
b_value =  6.30000    beta =  0.00901
     q_mesh =  0.00010000  0.00030000  0.00058939  0.00100810
               0.00161396  0.00249058  0.00375900  0.00559430
               0.00824984  0.01209221  0.01765183  0.02569619
               0.03733578  0.05417739  0.07854596  0.11380545
               0.16482331  0.23864234  0.34545298  0.50000000

Gradients computed in Reciprocal space

---------------------------------------------------------------------------------


     Starting wfcs are  202 randomized atomic wfcs

     total cpu time spent up to now is      158.6 secs

     Self-consistent Calculation

     iteration #  1     ecut=    70.00 Ry     beta= 0.70
     Davidson diagonalization with overlap
     ethr =  1.00E-02,  avg # of iterations =  2.0

     negative rho (up, down):  8.990E-04 0.000E+00

     total cpu time spent up to now is      441.6 secs

     total energy              =    -624.76125751 Ry
     Harris-Foulkes estimate   =    -628.28241171 Ry
     estimated scf accuracy    <       5.86315217 Ry

     iteration #  2     ecut=    70.00 Ry     beta= 0.70
     Davidson diagonalization with overlap
     ethr =  2.90E-03,  avg # of iterations =  7.8

     negative rho (up, down):  1.077E-03 0.000E+00

     total cpu time spent up to now is      697.2 secs

     total energy              =    -625.63683459 Ry
     Harris-Foulkes estimate   =    -625.67982866 Ry
     estimated scf accuracy    <       0.12456471 Ry

     iteration #  3     ecut=    70.00 Ry     beta= 0.70
     Davidson diagonalization with overlap
     c_bands:  2 eigenvalues not converged
     c_bands:  3 eigenvalues not converged
     ethr =  6.17E-05,  avg # of iterations = 19.0

     negative rho (up, down):  1.136E-03 0.000E+00

     total cpu time spent up to now is      999.2 secs

     total energy              =    -625.62847323 Ry
     Harris-Foulkes estimate   =    -625.67417255 Ry
     estimated scf accuracy    <       0.07921225 Ry

     iteration #  4     ecut=    70.00 Ry     beta= 0.70
     Davidson diagonalization with overlap
     ethr =  3.92E-05,  avg # of iterations =  7.2

     negative rho (up, down):  1.341E-03 0.000E+00

     total cpu time spent up to now is     1262.2 secs

     total energy              =    -625.64821406 Ry
     Harris-Foulkes estimate   =    -625.67274961 Ry
     estimated scf accuracy    <       0.06774579 Ry

     iteration #  5     ecut=    70.00 Ry     beta= 0.70
     Davidson diagonalization with overlap
     ethr =  3.35E-05,  avg # of iterations =  3.2

     negative rho (up, down):  1.541E-03 0.000E+00

     total cpu time spent up to now is     1483.5 secs

     total energy              =    -625.65932273 Ry
     Harris-Foulkes estimate   =    -625.65977246 Ry
     estimated scf accuracy    <       0.00077365 Ry

     iteration #  6     ecut=    70.00 Ry     beta= 0.70
     Davidson diagonalization with overlap
     ethr =  3.83E-07,  avg # of iterations = 11.5

     negative rho (up, down):  1.741E-03 0.000E+00

     total cpu time spent up to now is     1773.7 secs

     total energy              =    -625.65958696 Ry
     Harris-Foulkes estimate   =    -625.65968194 Ry
     estimated scf accuracy    <       0.00014992 Ry

     iteration #  7     ecut=    70.00 Ry     beta= 0.70
     Davidson diagonalization with overlap
     ethr =  7.42E-08,  avg # of iterations =  3.2

     negative rho (up, down):  1.760E-03 0.000E+00

     total cpu time spent up to now is     2011.4 secs

     total energy              =    -625.65961653 Ry
     Harris-Foulkes estimate   =    -625.65962671 Ry
     estimated scf accuracy    <       0.00001644 Ry

     iteration #  8     ecut=    70.00 Ry     beta= 0.70
     Davidson diagonalization with overlap
     ethr =  8.14E-09,  avg # of iterations =  3.0

     negative rho (up, down):  1.768E-03 0.000E+00

     total cpu time spent up to now is     2244.5 secs

     End of self-consistent calculation

          k = 0.0000 0.0000 0.0000 (131685 PWs)   bands (ev):

   -21.1895 -20.2546 -20.2530 -20.2527 -20.2523 -20.2521 -20.2520 -18.4180
   -18.4176 -18.4176 -18.4171 -18.4171 -18.4169 -17.5252 -17.5250 -17.5248
   -17.5247 -17.5245 -17.5244 -15.3808 -15.3805 -15.3802 -15.3802 -15.3796
   -15.3794 -14.3724 -14.3723 -14.3723 -14.3718 -14.3718 -14.3718 -13.0315
   -13.0315 -13.0314 -13.0312 -13.0312 -13.0311 -10.6711 -10.6710 -10.6708
   -10.6708 -10.6706 -10.6705 -10.5491 -10.5489 -10.5483 -10.5483 -10.5482
   -10.5480  -9.3225  -9.1760  -9.1759  -9.1757  -9.1757  -9.1756  -9.1756
    -8.2106  -8.2044  -8.2041  -8.2034  -8.2032  -8.2031  -7.9290  -7.9288
    -7.9287  -7.9279  -7.9279  -7.9277  -7.8894  -7.8766  -7.8765  -7.8763
    -7.8760  -7.8759  -7.8756  -6.2820  -6.2819  -6.2816  -6.2815  -6.2813
    -6.2810  -6.0738  -6.0733  -6.0731  -6.0725  -6.0724  -6.0722  -5.1757
    -5.1754  -5.1749  -5.1747  -5.1742  -5.1742  -4.8100  -4.8100  -3.1904
    -3.1900  -3.1895  -3.1894  -3.1888  -3.1886  -0.3950  -0.3949  -0.3945
    -0.3942  -0.3939  -0.3936   1.3119   1.4609   1.4611   1.4611   1.4622
     1.4623   1.4624   2.2357   2.3891   2.5101   2.5108   2.5960   2.5974
     2.6686

          k = 0.0000-0.5774 0.0000 (131762 PWs)   bands (ev):

   -20.9548 -20.9539 -20.4863 -20.4857 -19.5582 -19.5578 -19.5576 -19.5573
   -19.0980 -19.0979 -18.1920 -18.1919 -18.1910 -18.1910 -16.8747 -16.8743
   -16.8741 -16.8739 -16.4690 -16.4689 -16.4685 -16.4684 -15.9844 -15.2576
   -15.2575 -14.9172 -14.0528 -14.0527 -14.0522 -14.0521 -13.5813 -13.5812
   -12.6477 -12.6474 -12.6471 -12.6469 -11.8507 -11.8507 -11.6916 -11.6916
   -11.6912 -11.6911 -10.4721 -10.4721 -10.2439 -10.2434 -10.2429 -10.2428
    -9.2002  -9.2002  -9.2001  -9.2001  -9.0411  -9.0392  -8.8284  -8.8282
    -8.8274  -8.8272  -8.4817  -8.4801  -8.3532  -8.3532  -8.3526  -8.3526
    -8.1603  -7.8932  -7.4405  -7.4405  -7.4403  -7.4403  -7.3870  -7.3867
    -7.3867  -7.3863  -7.2633  -7.2630  -7.0561  -7.0558  -6.8613  -6.8612
    -6.2092  -6.2088  -5.8411  -5.8410  -5.8397  -5.8397  -5.7169  -5.7162
    -5.2770  -5.2762  -4.4000  -4.3990  -4.3988  -4.3985  -4.1959  -4.1957
    -4.1947  -4.1945  -4.0487  -2.7135  -2.7135  -0.6771  -0.6770  -0.0244
     0.3606   0.3607   0.3620   0.3622   1.0088   1.0097   1.0098   1.0102
     1.6212   1.6261   2.2331   2.2458   2.5107   2.5321   2.6275   2.6285
     2.6286

          k = 0.5000-0.2887 0.0000 (131762 PWs)   bands (ev):

   -20.9548 -20.9539 -20.4863 -20.4857 -19.5582 -19.5578 -19.5576 -19.5573
   -19.0980 -19.0979 -18.1920 -18.1919 -18.1910 -18.1910 -16.8747 -16.8743
   -16.8741 -16.8739 -16.4690 -16.4689 -16.4685 -16.4684 -15.9844 -15.2576
   -15.2575 -14.9172 -14.0528 -14.0527 -14.0522 -14.0521 -13.5813 -13.5812
   -12.6477 -12.6473 -12.6471 -12.6469 -11.8507 -11.8507 -11.6916 -11.6916
   -11.6911 -11.6911 -10.4721 -10.4721 -10.2439 -10.2434 -10.2429 -10.2428
    -9.2002  -9.2002  -9.2001  -9.2001  -9.0411  -9.0392  -8.8284  -8.8282
    -8.8274  -8.8272  -8.4817  -8.4801  -8.3532  -8.3532  -8.3526  -8.3526
    -8.1603  -7.8932  -7.4405  -7.4405  -7.4403  -7.4403  -7.3870  -7.3867
    -7.3867  -7.3863  -7.2633  -7.2630  -7.0561  -7.0558  -6.8613  -6.8612
    -6.2092  -6.2088  -5.8411  -5.8410  -5.8397  -5.8397  -5.7169  -5.7162
    -5.2770  -5.2762  -4.4000  -4.3990  -4.3988  -4.3984  -4.1959  -4.1957
    -4.1947  -4.1945  -4.0487  -2.7135  -2.7135  -0.6771  -0.6770  -0.0244
     0.3606   0.3607   0.3620   0.3622   1.0088   1.0097   1.0098   1.0102
     1.6212   1.6261   2.2332   2.2458   2.5107   2.5320   2.6275   2.6285
     2.6286

          k =-0.5000-0.2887 0.0000 (131762 PWs)   bands (ev):

   -20.9551 -20.9537 -20.4863 -20.4857 -19.5582 -19.5579 -19.5577 -19.5573
   -19.0979 -19.0979 -18.1923 -18.1921 -18.1909 -18.1907 -16.8747 -16.8743
   -16.8742 -16.8738 -16.4690 -16.4689 -16.4685 -16.4685 -15.9844 -15.2576
   -15.2575 -14.9172 -14.0528 -14.0526 -14.0524 -14.0522 -13.5813 -13.5812
   -12.6477 -12.6472 -12.6472 -12.6468 -11.8507 -11.8507 -11.6917 -11.6916
   -11.6911 -11.6910 -10.4722 -10.4721 -10.2441 -10.2437 -10.2426 -10.2425
    -9.2002  -9.2002  -9.2001  -9.2001  -9.0413  -9.0390  -8.8282  -8.8281
    -8.8275  -8.8274  -8.4817  -8.4801  -8.3534  -8.3529  -8.3528  -8.3524
    -8.1604  -7.8932  -7.4405  -7.4405  -7.4403  -7.4403  -7.3870  -7.3867
    -7.3867  -7.3863  -7.2632  -7.2630  -7.0561  -7.0558  -6.8613  -6.8612
    -6.2092  -6.2088  -5.8415  -5.8410  -5.8396  -5.8394  -5.7171  -5.7160
    -5.2772  -5.2760  -4.4000  -4.3990  -4.3989  -4.3983  -4.1959  -4.1955
    -4.1947  -4.1947  -4.0487  -2.7136  -2.7134  -0.6771  -0.6770  -0.0245
     0.3606   0.3609   0.3619   0.3620   1.0086   1.0096   1.0099   1.0104
     1.6213   1.6260   2.2330   2.2459   2.5108   2.5323   2.6279   2.6284
     2.6289

     the Fermi energy is    -1.7878 ev

!    total energy              =    -625.65961893 Ry
     Harris-Foulkes estimate   =    -625.65962023 Ry
     estimated scf accuracy    <       0.00000044 Ry

     The total energy is the sum of the following terms:

     one-electron contribution =   -3909.46808559 Ry
     hartree contribution      =    1991.64950972 Ry
     xc contribution           =    -235.29622189 Ry
     ewald contribution        =    1527.45517883 Ry
     smearing contrib. (-TS)   =       0.00000000 Ry

     convergence has been achieved in   8 iterations

     Writing output data file gr-12.save/

     init_run     :    156.18s CPU    158.13s WALL (       1 calls)
     electrons    :   2068.07s CPU   2086.07s WALL (       1 calls)

     Called by init_run:
     wfcinit      :    115.79s CPU    116.52s WALL (       1 calls)
     potinit      :     20.04s CPU     20.94s WALL (       1 calls)
     hinit0       :     15.04s CPU     15.08s WALL (       1 calls)

     Called by electrons:
     c_bands      :   1728.02s CPU   1736.93s WALL (       8 calls)
     sum_band     :    224.64s CPU    227.70s WALL (       8 calls)
     v_of_rho     :     85.65s CPU     90.47s WALL (       9 calls)
     newd         :     40.42s CPU     42.54s WALL (       9 calls)
     mix_rho      :      1.85s CPU      1.91s WALL (       8 calls)

     Called by c_bands:
     init_us_2    :      4.22s CPU      4.26s WALL (      68 calls)
     cegterg      :   1717.36s CPU   1726.24s WALL (      32 calls)

     Called by sum_band:
     sum_band:bec :      0.02s CPU      0.02s WALL (      32 calls)
     addusdens    :     52.35s CPU     54.54s WALL (       8 calls)

     Called by *egterg:
     h_psi        :    943.94s CPU    950.79s WALL (     264 calls)
     s_psi        :    294.70s CPU    294.81s WALL (     264 calls)
     g_psi        :      1.26s CPU      1.26s WALL (     228 calls)
     cdiaghg      :     24.29s CPU     24.30s WALL (     260 calls)

     Called by h_psi:
     h_psi:pot    :    942.83s CPU    948.58s WALL (     264 calls)
     h_psi:calbec :    295.28s CPU    295.39s WALL (     264 calls)
     vloc_psi     :    353.61s CPU    359.22s WALL (     264 calls)
     add_vuspsi   :    293.93s CPU    293.98s WALL (     264 calls)

     General routines
     calbec       :    394.52s CPU    394.68s WALL (     296 calls)
     fft          :     48.08s CPU     49.80s WALL (     565 calls)
     ffts         :      0.46s CPU      0.47s WALL (      17 calls)
     fftw         :    361.50s CPU    367.00s WALL (   26808 calls)
     interpolate  :      1.14s CPU      1.17s WALL (       9 calls)

     Parallel routines
     fft_scatt_xy :     89.10s CPU     89.50s WALL (   27390 calls)
     fft_scatt_yz :    121.09s CPU    126.27s WALL (   27390 calls)

     PWSCF        :  37m 5.09s CPU  37m25.85s WALL


   This run was terminated on:  22:23:12  18Jun2022            

=------------------------------------------------------------------------------=
   JOB DONE.
=------------------------------------------------------------------------------=
