
     Program PWSCF v.6.4.1 starts on 18Jun2022 at 23:42:42 

     This program is part of the open-source Quantum ESPRESSO suite
     for quantum simulation of materials; please cite
         "P. Giannozzi et al., J. Phys.:Condens. Matter 21 395502 (2009);
         "P. Giannozzi et al., J. Phys.:Condens. Matter 29 465901 (2017);
          URL http://www.quantum-espresso.org", 
     in publications or presentations arising from this work. More details at
     http://www.quantum-espresso.org/quote

     Parallel version (MPI), running on     5 processors

     MPI processes distributed on     1 nodes
     R & G space division:  proc/nbgrp/npool/nimage =       5
     Reading input from distance-2.8.in

     Current dimensions of program PWSCF are:
     Max number of different atomic species (ntypx) = 10
     Max number of k-points (npk) =  40000
     Max angular momentum in pseudopotentials (lmaxx) =  3

     IMPORTANT: XC functional enforced from input :
     Exchange-correlation      = RVV10 ( 1  4 13  4 3 0)
     Any further DFT definition will be discarded
     Please, verify this is what you really want

               file H.pbe-rrkjus.UPF: wavefunction(s)  1S renormalized
               file H.pbe-rrkjus.UPF: wavefunction(s)  1S renormalized

     Subspace diagonalization in iterative solution of the eigenvalue problem:
     a serial algorithm will be used


     Parallelization info
     --------------------
     sticks:   dense  smooth     PW     G-vecs:    dense   smooth      PW
     Min        3662    2095    542               487826   210779   27834
     Max        3663    2096    543               487829   210784   27841
     Sum       18313   10477   2713              2439139  1053907  139193



     bravais-lattice index     =            4
     lattice parameter (alat)  =      23.2937  a.u.
     unit-cell volume          =   13319.7822 (a.u.)^3
     number of atoms/cell      =           52
     number of atomic types    =            3
     number of electrons       =       202.00
     number of Kohn-Sham states=          121
     kinetic-energy cutoff     =      70.0000  Ry
     charge density cutoff     =     490.0000  Ry
     convergence threshold     =      1.0E-06
     mixing beta               =       0.7000
     number of iterations used =            8  plain     mixing
     Exchange-correlation      = RVV10 ( 1  4 13  4 3 0)

     celldm(1)=  23.293684  celldm(2)=   0.000000  celldm(3)=   1.216892
     celldm(4)=   0.000000  celldm(5)=   0.000000  celldm(6)=   0.000000

     crystal axes: (cart. coord. in units of alat)
               a(1) = (   1.000000   0.000000   0.000000 )  
               a(2) = (  -0.500000   0.866025   0.000000 )  
               a(3) = (   0.000000   0.000000   1.216892 )  

     reciprocal axes: (cart. coord. in units 2 pi/alat)
               b(1) = (  1.000000  0.577350 -0.000000 )  
               b(2) = (  0.000000  1.154701  0.000000 )  
               b(3) = (  0.000000 -0.000000  0.821766 )  


     PseudoPot. # 1 for H  read from file:
     /home/cristian/Escritorio/Proyecto_Grafeno/pseudopotenciales/H.pbe-rrkjus.UPF
     MD5 check sum: 7cc9d459525c9a0585f487a71c3c9563
     Pseudo is Ultrasoft, Zval =  1.0
     Generated by new atomic code, or converted to UPF format
     Using radial grid of 1061 points,  2 beta functions with: 
                l(1) =   0
                l(2) =   0
     Q(r) pseudized with 0 coefficients 


     PseudoPot. # 2 for H  read from file:
     /home/cristian/Escritorio/Proyecto_Grafeno/pseudopotenciales/H.pbe-rrkjus.UPF
     MD5 check sum: 7cc9d459525c9a0585f487a71c3c9563
     Pseudo is Ultrasoft, Zval =  1.0
     Generated by new atomic code, or converted to UPF format
     Using radial grid of 1061 points,  2 beta functions with: 
                l(1) =   0
                l(2) =   0
     Q(r) pseudized with 0 coefficients 


     PseudoPot. # 3 for C  read from file:
     /home/cristian/Escritorio/Proyecto_Grafeno/pseudopotenciales/C.pbe-n-rrkjus_psl.1.0.0.UPF
     MD5 check sum: 1fdd950c42eb37d8afe3dd2f8d12311e
     Pseudo is Ultrasoft + core correction, Zval =  4.0
     Generated using "atomic" code by A. Dal Corso v.6.3MaX
     Using radial grid of 1073 points,  4 beta functions with: 
                l(1) =   0
                l(2) =   0
                l(3) =   1
                l(4) =   1
     Q(r) pseudized with 0 coefficients 


     vdW kernel table read from file rVV10_kernel_table
     MD5 check sum: b8e2538accc0c0b3206b45ba4daaba6c

     atomic species   valence    mass     pseudopotential
        H1             1.00     1.00794     H ( 1.00)
        H2             1.00     1.00794     H ( 1.00)
        C              4.00    12.01070     C ( 1.00)

     No symmetry found



   Cartesian axes

     site n.     atom                  positions (alat units)
         1           H1  tau(   1) = (   0.2500000   0.4907477   0.2271531  )
         2           H2  tau(   2) = (   0.2500000   0.4907477   0.2881658  )
         3           C   tau(   3) = (   0.0000000   0.0000000   0.0000000  )
         4           C   tau(   4) = (   0.0000000   0.1154701   0.0000000  )
         5           C   tau(   5) = (  -0.1000000   0.1732051   0.0000000  )
         6           C   tau(   6) = (  -0.1000000   0.2886751   0.0000000  )
         7           C   tau(   7) = (  -0.2000000   0.3464102   0.0000000  )
         8           C   tau(   8) = (  -0.2000000   0.4618802   0.0000000  )
         9           C   tau(   9) = (  -0.3000000   0.5196152   0.0000000  )
        10           C   tau(  10) = (  -0.3000000   0.6350853   0.0000000  )
        11           C   tau(  11) = (  -0.4000000   0.6928203   0.0000000  )
        12           C   tau(  12) = (  -0.4000000   0.8082904   0.0000000  )
        13           C   tau(  13) = (   0.2000000   0.0000000   0.0000000  )
        14           C   tau(  14) = (   0.2000000   0.1154701   0.0000000  )
        15           C   tau(  15) = (   0.1000000   0.1732051   0.0000000  )
        16           C   tau(  16) = (   0.1000000   0.2886751   0.0000000  )
        17           C   tau(  17) = (   0.0000000   0.3464102   0.0000000  )
        18           C   tau(  18) = (   0.0000000   0.4618802   0.0000000  )
        19           C   tau(  19) = (  -0.1000000   0.5196152   0.0000000  )
        20           C   tau(  20) = (  -0.1000000   0.6350853   0.0000000  )
        21           C   tau(  21) = (  -0.2000000   0.6928203   0.0000000  )
        22           C   tau(  22) = (  -0.2000000   0.8082904   0.0000000  )
        23           C   tau(  23) = (   0.4000000   0.0000000   0.0000000  )
        24           C   tau(  24) = (   0.4000000   0.1154701   0.0000000  )
        25           C   tau(  25) = (   0.3000000   0.1732051   0.0000000  )
        26           C   tau(  26) = (   0.3000000   0.2886751   0.0000000  )
        27           C   tau(  27) = (   0.2000000   0.3464102   0.0000000  )
        28           C   tau(  28) = (   0.2000000   0.4618802   0.0000000  )
        29           C   tau(  29) = (   0.1000000   0.5196152   0.0000000  )
        30           C   tau(  30) = (   0.1000000   0.6350853   0.0000000  )
        31           C   tau(  31) = (   0.0000000   0.6928203   0.0000000  )
        32           C   tau(  32) = (   0.0000000   0.8082904   0.0000000  )
        33           C   tau(  33) = (   0.6000000   0.0000000   0.0000000  )
        34           C   tau(  34) = (   0.6000000   0.1154701   0.0000000  )
        35           C   tau(  35) = (   0.5000000   0.1732051   0.0000000  )
        36           C   tau(  36) = (   0.5000000   0.2886751   0.0000000  )
        37           C   tau(  37) = (   0.4000000   0.3464102   0.0000000  )
        38           C   tau(  38) = (   0.4000000   0.4618802   0.0000000  )
        39           C   tau(  39) = (   0.3000000   0.5196152   0.0000000  )
        40           C   tau(  40) = (   0.3000000   0.6350853   0.0000000  )
        41           C   tau(  41) = (   0.2000000   0.6928203   0.0000000  )
        42           C   tau(  42) = (   0.2000000   0.8082904   0.0000000  )
        43           C   tau(  43) = (   0.8000000   0.0000000   0.0000000  )
        44           C   tau(  44) = (   0.8000000   0.1154701   0.0000000  )
        45           C   tau(  45) = (   0.7000000   0.1732051   0.0000000  )
        46           C   tau(  46) = (   0.7000000   0.2886751   0.0000000  )
        47           C   tau(  47) = (   0.6000000   0.3464102   0.0000000  )
        48           C   tau(  48) = (   0.6000000   0.4618802   0.0000000  )
        49           C   tau(  49) = (   0.5000000   0.5196152   0.0000000  )
        50           C   tau(  50) = (   0.5000000   0.6350853   0.0000000  )
        51           C   tau(  51) = (   0.4000000   0.6928203   0.0000000  )
        52           C   tau(  52) = (   0.4000000   0.8082904   0.0000000  )

     number of k points=     4  Marzari-Vanderbilt smearing, width (Ry)=  0.0010
                       cart. coord. in units 2pi/alat
        k(    1) = (   0.0000000   0.0000000   0.0000000), wk =   0.5000000
        k(    2) = (   0.0000000  -0.5773503   0.0000000), wk =   0.5000000
        k(    3) = (   0.5000000  -0.2886751   0.0000000), wk =   0.5000000
        k(    4) = (  -0.5000000  -0.2886751   0.0000000), wk =   0.5000000

     Dense  grid:  2439139 G-vectors     FFT dimensions: ( 180, 180, 200)

     Smooth grid:  1053907 G-vectors     FFT dimensions: ( 125, 125, 160)

     Estimated max dynamical RAM per process >       1.39 GB

     Estimated total dynamical RAM >       6.95 GB

     Check: negative core charge=   -0.000001

     Initial potential from superposition of free atoms

     starting charge  201.80551, renormalised to  202.00000

     negative rho (up, down):  9.964E-04 0.000E+00


---------------------------------------------------------------------------------
Carrying out rVV10 run using the following parameters:
Nqs =      20    Nr_points =    1024   r_max =   100.000
b_value =  6.30000    beta =  0.00901
     q_mesh =  0.00010000  0.00030000  0.00058939  0.00100810
               0.00161396  0.00249058  0.00375900  0.00559430
               0.00824984  0.01209221  0.01765183  0.02569619
               0.03733578  0.05417739  0.07854596  0.11380545
               0.16482331  0.23864234  0.34545298  0.50000000

Gradients computed in Reciprocal space

---------------------------------------------------------------------------------


     Starting wfcs are  202 randomized atomic wfcs

     total cpu time spent up to now is      158.9 secs

     Self-consistent Calculation

     iteration #  1     ecut=    70.00 Ry     beta= 0.70
     Davidson diagonalization with overlap
     ethr =  1.00E-02,  avg # of iterations =  2.0

     negative rho (up, down):  1.082E-03 0.000E+00

     total cpu time spent up to now is      440.3 secs

     total energy              =    -624.73910873 Ry
     Harris-Foulkes estimate   =    -628.26806368 Ry
     estimated scf accuracy    <       5.86767355 Ry

     iteration #  2     ecut=    70.00 Ry     beta= 0.70
     Davidson diagonalization with overlap
     ethr =  2.90E-03,  avg # of iterations =  8.0

     negative rho (up, down):  1.278E-03 0.000E+00

     total cpu time spent up to now is      701.0 secs

     total energy              =    -625.53279186 Ry
     Harris-Foulkes estimate   =    -625.72155363 Ry
     estimated scf accuracy    <       0.29883143 Ry

     iteration #  3     ecut=    70.00 Ry     beta= 0.70
     Davidson diagonalization with overlap
     c_bands:  2 eigenvalues not converged
     ethr =  1.48E-04,  avg # of iterations = 12.8

     negative rho (up, down):  1.328E-03 0.000E+00

     total cpu time spent up to now is     1020.0 secs

     total energy              =    -625.50190587 Ry
     Harris-Foulkes estimate   =    -625.81289401 Ry
     estimated scf accuracy    <       0.76626640 Ry

     iteration #  4     ecut=    70.00 Ry     beta= 0.70
     Davidson diagonalization with overlap
     ethr =  1.48E-04,  avg # of iterations =  6.0

     negative rho (up, down):  1.460E-03 0.000E+00

     total cpu time spent up to now is     1276.0 secs

     total energy              =    -625.65653363 Ry
     Harris-Foulkes estimate   =    -625.66684164 Ry
     estimated scf accuracy    <       0.02784586 Ry

     iteration #  5     ecut=    70.00 Ry     beta= 0.70
     Davidson diagonalization with overlap
     ethr =  1.38E-05,  avg # of iterations =  7.5

     negative rho (up, down):  1.638E-03 0.000E+00

     total cpu time spent up to now is     1542.1 secs

     total energy              =    -625.66103905 Ry
     Harris-Foulkes estimate   =    -625.66403571 Ry
     estimated scf accuracy    <       0.00617852 Ry

     iteration #  6     ecut=    70.00 Ry     beta= 0.70
     Davidson diagonalization with overlap
     ethr =  3.06E-06,  avg # of iterations =  6.5

     negative rho (up, down):  1.799E-03 0.000E+00

     total cpu time spent up to now is     1798.5 secs

     total energy              =    -625.66236095 Ry
     Harris-Foulkes estimate   =    -625.66248860 Ry
     estimated scf accuracy    <       0.00020868 Ry

     iteration #  7     ecut=    70.00 Ry     beta= 0.70
     Davidson diagonalization with overlap
     ethr =  1.03E-07,  avg # of iterations =  6.2

     negative rho (up, down):  1.864E-03 0.000E+00

     total cpu time spent up to now is     2053.7 secs

     total energy              =    -625.66241193 Ry
     Harris-Foulkes estimate   =    -625.66244151 Ry
     estimated scf accuracy    <       0.00004357 Ry

     iteration #  8     ecut=    70.00 Ry     beta= 0.70
     Davidson diagonalization with overlap
     ethr =  2.16E-08,  avg # of iterations =  2.0

     negative rho (up, down):  1.872E-03 0.000E+00

     total cpu time spent up to now is     2289.3 secs

     total energy              =    -625.66242156 Ry
     Harris-Foulkes estimate   =    -625.66242340 Ry
     estimated scf accuracy    <       0.00000196 Ry

     iteration #  9     ecut=    70.00 Ry     beta= 0.70
     Davidson diagonalization with overlap
     ethr =  9.71E-10,  avg # of iterations =  3.0

     negative rho (up, down):  1.874E-03 0.000E+00

     total cpu time spent up to now is     2537.5 secs

     End of self-consistent calculation

          k = 0.0000 0.0000 0.0000 (131685 PWs)   bands (ev):

   -21.1929 -20.2597 -20.2560 -20.2558 -20.2553 -20.2552 -20.2549 -18.4225
   -18.4210 -18.4208 -18.4202 -18.4201 -18.4199 -17.5297 -17.5285 -17.5281
   -17.5277 -17.5275 -17.5272 -15.3849 -15.3841 -15.3836 -15.3832 -15.3825
   -15.3825 -14.3761 -14.3759 -14.3757 -14.3750 -14.3749 -14.3749 -13.0352
   -13.0349 -13.0349 -13.0344 -13.0343 -13.0343 -10.6748 -10.6746 -10.6741
   -10.6741 -10.6736 -10.6735 -10.5526 -10.5526 -10.5516 -10.5514 -10.5514
   -10.5513  -9.3340  -9.1797  -9.1796  -9.1789  -9.1789  -9.1788  -9.1788
    -8.3301  -8.2073  -8.2069  -8.2061  -8.2060  -8.2059  -7.9328  -7.9323
    -7.9323  -7.9310  -7.9310  -7.9309  -7.8807  -7.8800  -7.8796  -7.8792
    -7.8790  -7.8790  -7.7882  -6.2857  -6.2855  -6.2849  -6.2846  -6.2845
    -6.2842  -6.0777  -6.0766  -6.0751  -6.0750  -6.0747  -6.0675  -5.1800
    -5.1782  -5.1775  -5.1774  -5.1765  -5.1764  -4.8134  -4.8134  -3.1958
    -3.1951  -3.1928  -3.1920  -3.1913  -3.1913  -0.4016  -0.4005  -0.3991
    -0.3971  -0.3966  -0.3964   1.3517   1.4527   1.4545   1.4551   1.4593
     1.4595   1.4597   2.2472   2.4916   2.4924   2.5466   2.5952   2.5989
     2.7663

          k = 0.0000-0.5774 0.0000 (131762 PWs)   bands (ev):

   -20.9587 -20.9568 -20.4900 -20.4888 -19.5625 -19.5608 -19.5608 -19.5603
   -19.1015 -19.1010 -18.1961 -18.1955 -18.1939 -18.1939 -16.8787 -16.8776
   -16.8772 -16.8770 -16.4726 -16.4724 -16.4716 -16.4716 -15.9878 -15.2609
   -15.2608 -14.9206 -14.0566 -14.0563 -14.0553 -14.0553 -13.5848 -13.5845
   -12.6513 -12.6507 -12.6503 -12.6500 -11.8541 -11.8540 -11.6953 -11.6951
   -11.6943 -11.6943 -10.4755 -10.4754 -10.2479 -10.2470 -10.2458 -10.2457
    -9.2038  -9.2035  -9.2034  -9.2034  -9.0642  -9.0418  -8.8318  -8.8317
    -8.8306  -8.8305  -8.5140  -8.4829  -8.3567  -8.3567  -8.3558  -8.3557
    -8.1637  -7.9136  -7.4439  -7.4439  -7.4436  -7.4435  -7.3901  -7.3898
    -7.3887  -7.3468  -7.2668  -7.2661  -7.0595  -7.0591  -6.8644  -6.8546
    -6.2125  -6.2121  -5.8456  -5.8424  -5.8423  -5.8395  -5.7205  -5.7192
    -5.2807  -5.2793  -4.4035  -4.4027  -4.4018  -4.4012  -4.2003  -4.1992
    -4.1977  -4.1973  -4.0520  -2.7174  -2.7170  -0.6817  -0.6805  -0.0290
     0.3535   0.3548   0.3592   0.3593   1.0027   1.0059   1.0067   1.0074
     1.6173   1.6994   2.2225   2.3098   2.5351   2.5854   2.6221   2.6256
     2.6266

          k = 0.5000-0.2887 0.0000 (131762 PWs)   bands (ev):

   -20.9587 -20.9568 -20.4900 -20.4888 -19.5625 -19.5609 -19.5608 -19.5603
   -19.1015 -19.1010 -18.1960 -18.1955 -18.1939 -18.1939 -16.8787 -16.8776
   -16.8772 -16.8770 -16.4726 -16.4724 -16.4716 -16.4716 -15.9878 -15.2609
   -15.2608 -14.9206 -14.0566 -14.0563 -14.0553 -14.0552 -13.5848 -13.5845
   -12.6513 -12.6507 -12.6503 -12.6500 -11.8541 -11.8540 -11.6953 -11.6951
   -11.6943 -11.6943 -10.4755 -10.4754 -10.2479 -10.2470 -10.2459 -10.2458
    -9.2038  -9.2035  -9.2034  -9.2034  -9.0641  -9.0418  -8.8318  -8.8317
    -8.8306  -8.8304  -8.5140  -8.4829  -8.3567  -8.3567  -8.3558  -8.3557
    -8.1637  -7.9136  -7.4439  -7.4439  -7.4436  -7.4435  -7.3901  -7.3898
    -7.3887  -7.3468  -7.2668  -7.2661  -7.0595  -7.0591  -6.8644  -6.8546
    -6.2125  -6.2121  -5.8456  -5.8424  -5.8424  -5.8394  -5.7205  -5.7192
    -5.2806  -5.2793  -4.4035  -4.4027  -4.4017  -4.4013  -4.2003  -4.1992
    -4.1977  -4.1973  -4.0520  -2.7174  -2.7170  -0.6817  -0.6805  -0.0290
     0.3535   0.3548   0.3592   0.3593   1.0028   1.0059   1.0067   1.0074
     1.6173   1.6994   2.2225   2.3098   2.5351   2.5854   2.6221   2.6255
     2.6266

          k =-0.5000-0.2887 0.0000 (131762 PWs)   bands (ev):

   -20.9586 -20.9569 -20.4900 -20.4888 -19.5626 -19.5609 -19.5608 -19.5602
   -19.1015 -19.1011 -18.1961 -18.1952 -18.1941 -18.1940 -16.8783 -16.8781
   -16.8771 -16.8770 -16.4730 -16.4721 -16.4716 -16.4716 -15.9877 -15.2611
   -15.2607 -14.9207 -14.0566 -14.0558 -14.0558 -14.0551 -13.5846 -13.5845
   -12.6516 -12.6507 -12.6502 -12.6500 -11.8542 -11.8541 -11.6949 -11.6949
   -11.6945 -11.6945 -10.4756 -10.4753 -10.2477 -10.2467 -10.2460 -10.2459
    -9.2038  -9.2036  -9.2034  -9.2033  -9.0640  -9.0420  -8.8321  -8.8316
    -8.8305  -8.8304  -8.5144  -8.4828  -8.3571  -8.3562  -8.3561  -8.3557
    -8.1637  -7.9129  -7.4441  -7.4438  -7.4436  -7.4435  -7.3902  -7.3897
    -7.3887  -7.3467  -7.2668  -7.2661  -7.0595  -7.0590  -6.8649  -6.8551
    -6.2127  -6.2120  -5.8445  -5.8425  -5.8424  -5.8395  -5.7204  -5.7193
    -5.2804  -5.2794  -4.4054  -4.4017  -4.4014  -4.4013  -4.2000  -4.1985
    -4.1978  -4.1974  -4.0525  -2.7181  -2.7164  -0.6814  -0.6801  -0.0295
     0.3542   0.3554   0.3586   0.3595   0.9999   1.0060   1.0071   1.0074
     1.6173   1.6994   2.2222   2.3100   2.5352   2.6100   2.6223   2.6249
     2.6277

     the Fermi energy is    -1.7091 ev

!    total energy              =    -625.66242167 Ry
     Harris-Foulkes estimate   =    -625.66242222 Ry
     estimated scf accuracy    <       0.00000027 Ry

     The total energy is the sum of the following terms:

     one-electron contribution =   -3933.50856107 Ry
     hartree contribution      =    2003.64669784 Ry
     xc contribution           =    -235.30116597 Ry
     ewald contribution        =    1539.50060752 Ry
     smearing contrib. (-TS)   =       0.00000000 Ry

     convergence has been achieved in   9 iterations

     Writing output data file gr-12.save/

     init_run     :    156.46s CPU    158.30s WALL (       1 calls)
     electrons    :   2360.01s CPU   2378.77s WALL (       1 calls)

     Called by init_run:
     wfcinit      :    115.65s CPU    116.39s WALL (       1 calls)
     potinit      :     20.49s CPU     21.32s WALL (       1 calls)
     hinit0       :     15.05s CPU     15.08s WALL (       1 calls)

     Called by electrons:
     c_bands      :   1976.76s CPU   1986.65s WALL (       9 calls)
     sum_band     :    253.11s CPU    255.88s WALL (       9 calls)
     v_of_rho     :     94.89s CPU     99.66s WALL (      10 calls)
     newd         :     45.11s CPU     47.28s WALL (      10 calls)
     mix_rho      :      2.22s CPU      2.25s WALL (       9 calls)

     Called by c_bands:
     init_us_2    :      4.83s CPU      4.89s WALL (      76 calls)
     cegterg      :   1964.22s CPU   1974.04s WALL (      36 calls)

     Called by sum_band:
     sum_band:bec :      0.02s CPU      0.02s WALL (      36 calls)
     addusdens    :     60.95s CPU     62.75s WALL (       9 calls)

     Called by *egterg:
     h_psi        :   1064.17s CPU   1071.91s WALL (     256 calls)
     s_psi        :    329.45s CPU    329.57s WALL (     256 calls)
     g_psi        :      1.48s CPU      1.48s WALL (     216 calls)
     cdiaghg      :     22.80s CPU     22.81s WALL (     252 calls)

     Called by h_psi:
     h_psi:pot    :   1062.99s CPU   1069.41s WALL (     256 calls)
     h_psi:calbec :    333.35s CPU    333.50s WALL (     256 calls)
     vloc_psi     :    400.19s CPU    406.37s WALL (     256 calls)
     add_vuspsi   :    329.44s CPU    329.54s WALL (     256 calls)

     General routines
     calbec       :    444.52s CPU    444.77s WALL (     292 calls)
     fft          :     52.20s CPU     54.02s WALL (     628 calls)
     ffts         :      0.58s CPU      0.59s WALL (      19 calls)
     fftw         :    406.96s CPU    412.99s WALL (   30392 calls)
     interpolate  :      1.31s CPU      1.34s WALL (      10 calls)

     Parallel routines
     fft_scatt_xy :    101.18s CPU    101.79s WALL (   31039 calls)
     fft_scatt_yz :    133.48s CPU    138.83s WALL (   31039 calls)

     PWSCF        :  41m57.36s CPU  42m18.84s WALL


   This run was terminated on:   0:25: 1  19Jun2022            

=------------------------------------------------------------------------------=
   JOB DONE.
=------------------------------------------------------------------------------=
