
     Program PWSCF v.6.4.1 starts on 18Jun2022 at 22:23:12 

     This program is part of the open-source Quantum ESPRESSO suite
     for quantum simulation of materials; please cite
         "P. Giannozzi et al., J. Phys.:Condens. Matter 21 395502 (2009);
         "P. Giannozzi et al., J. Phys.:Condens. Matter 29 465901 (2017);
          URL http://www.quantum-espresso.org", 
     in publications or presentations arising from this work. More details at
     http://www.quantum-espresso.org/quote

     Parallel version (MPI), running on     5 processors

     MPI processes distributed on     1 nodes
     R & G space division:  proc/nbgrp/npool/nimage =       5
     Reading input from distance-3.5.in

     Current dimensions of program PWSCF are:
     Max number of different atomic species (ntypx) = 10
     Max number of k-points (npk) =  40000
     Max angular momentum in pseudopotentials (lmaxx) =  3

     IMPORTANT: XC functional enforced from input :
     Exchange-correlation      = RVV10 ( 1  4 13  4 3 0)
     Any further DFT definition will be discarded
     Please, verify this is what you really want

               file H.pbe-rrkjus.UPF: wavefunction(s)  1S renormalized
               file H.pbe-rrkjus.UPF: wavefunction(s)  1S renormalized

     Subspace diagonalization in iterative solution of the eigenvalue problem:
     a serial algorithm will be used


     Parallelization info
     --------------------
     sticks:   dense  smooth     PW     G-vecs:    dense   smooth      PW
     Min        3662    2095    542               487826   210779   27834
     Max        3663    2096    543               487829   210784   27841
     Sum       18313   10477   2713              2439139  1053907  139193



     bravais-lattice index     =            4
     lattice parameter (alat)  =      23.2937  a.u.
     unit-cell volume          =   13319.7822 (a.u.)^3
     number of atoms/cell      =           52
     number of atomic types    =            3
     number of electrons       =       202.00
     number of Kohn-Sham states=          121
     kinetic-energy cutoff     =      70.0000  Ry
     charge density cutoff     =     490.0000  Ry
     convergence threshold     =      1.0E-06
     mixing beta               =       0.7000
     number of iterations used =            8  plain     mixing
     Exchange-correlation      = RVV10 ( 1  4 13  4 3 0)

     celldm(1)=  23.293684  celldm(2)=   0.000000  celldm(3)=   1.216892
     celldm(4)=   0.000000  celldm(5)=   0.000000  celldm(6)=   0.000000

     crystal axes: (cart. coord. in units of alat)
               a(1) = (   1.000000   0.000000   0.000000 )  
               a(2) = (  -0.500000   0.866025   0.000000 )  
               a(3) = (   0.000000   0.000000   1.216892 )  

     reciprocal axes: (cart. coord. in units 2 pi/alat)
               b(1) = (  1.000000  0.577350 -0.000000 )  
               b(2) = (  0.000000  1.154701  0.000000 )  
               b(3) = (  0.000000 -0.000000  0.821766 )  


     PseudoPot. # 1 for H  read from file:
     /home/cristian/Escritorio/Proyecto_Grafeno/pseudopotenciales/H.pbe-rrkjus.UPF
     MD5 check sum: 7cc9d459525c9a0585f487a71c3c9563
     Pseudo is Ultrasoft, Zval =  1.0
     Generated by new atomic code, or converted to UPF format
     Using radial grid of 1061 points,  2 beta functions with: 
                l(1) =   0
                l(2) =   0
     Q(r) pseudized with 0 coefficients 


     PseudoPot. # 2 for H  read from file:
     /home/cristian/Escritorio/Proyecto_Grafeno/pseudopotenciales/H.pbe-rrkjus.UPF
     MD5 check sum: 7cc9d459525c9a0585f487a71c3c9563
     Pseudo is Ultrasoft, Zval =  1.0
     Generated by new atomic code, or converted to UPF format
     Using radial grid of 1061 points,  2 beta functions with: 
                l(1) =   0
                l(2) =   0
     Q(r) pseudized with 0 coefficients 


     PseudoPot. # 3 for C  read from file:
     /home/cristian/Escritorio/Proyecto_Grafeno/pseudopotenciales/C.pbe-n-rrkjus_psl.1.0.0.UPF
     MD5 check sum: 1fdd950c42eb37d8afe3dd2f8d12311e
     Pseudo is Ultrasoft + core correction, Zval =  4.0
     Generated using "atomic" code by A. Dal Corso v.6.3MaX
     Using radial grid of 1073 points,  4 beta functions with: 
                l(1) =   0
                l(2) =   0
                l(3) =   1
                l(4) =   1
     Q(r) pseudized with 0 coefficients 


     vdW kernel table read from file rVV10_kernel_table
     MD5 check sum: b8e2538accc0c0b3206b45ba4daaba6c

     atomic species   valence    mass     pseudopotential
        H1             1.00     1.00794     H ( 1.00)
        H2             1.00     1.00794     H ( 1.00)
        C              4.00    12.01070     C ( 1.00)

     No symmetry found



   Cartesian axes

     site n.     atom                  positions (alat units)
         1           H1  tau(   1) = (   0.2500000   0.4907477   0.2839414  )
         2           H2  tau(   2) = (   0.2500000   0.4907477   0.3449541  )
         3           C   tau(   3) = (   0.0000000   0.0000000   0.0000000  )
         4           C   tau(   4) = (   0.0000000   0.1154701   0.0000000  )
         5           C   tau(   5) = (  -0.1000000   0.1732051   0.0000000  )
         6           C   tau(   6) = (  -0.1000000   0.2886751   0.0000000  )
         7           C   tau(   7) = (  -0.2000000   0.3464102   0.0000000  )
         8           C   tau(   8) = (  -0.2000000   0.4618802   0.0000000  )
         9           C   tau(   9) = (  -0.3000000   0.5196152   0.0000000  )
        10           C   tau(  10) = (  -0.3000000   0.6350853   0.0000000  )
        11           C   tau(  11) = (  -0.4000000   0.6928203   0.0000000  )
        12           C   tau(  12) = (  -0.4000000   0.8082904   0.0000000  )
        13           C   tau(  13) = (   0.2000000   0.0000000   0.0000000  )
        14           C   tau(  14) = (   0.2000000   0.1154701   0.0000000  )
        15           C   tau(  15) = (   0.1000000   0.1732051   0.0000000  )
        16           C   tau(  16) = (   0.1000000   0.2886751   0.0000000  )
        17           C   tau(  17) = (   0.0000000   0.3464102   0.0000000  )
        18           C   tau(  18) = (   0.0000000   0.4618802   0.0000000  )
        19           C   tau(  19) = (  -0.1000000   0.5196152   0.0000000  )
        20           C   tau(  20) = (  -0.1000000   0.6350853   0.0000000  )
        21           C   tau(  21) = (  -0.2000000   0.6928203   0.0000000  )
        22           C   tau(  22) = (  -0.2000000   0.8082904   0.0000000  )
        23           C   tau(  23) = (   0.4000000   0.0000000   0.0000000  )
        24           C   tau(  24) = (   0.4000000   0.1154701   0.0000000  )
        25           C   tau(  25) = (   0.3000000   0.1732051   0.0000000  )
        26           C   tau(  26) = (   0.3000000   0.2886751   0.0000000  )
        27           C   tau(  27) = (   0.2000000   0.3464102   0.0000000  )
        28           C   tau(  28) = (   0.2000000   0.4618802   0.0000000  )
        29           C   tau(  29) = (   0.1000000   0.5196152   0.0000000  )
        30           C   tau(  30) = (   0.1000000   0.6350853   0.0000000  )
        31           C   tau(  31) = (   0.0000000   0.6928203   0.0000000  )
        32           C   tau(  32) = (   0.0000000   0.8082904   0.0000000  )
        33           C   tau(  33) = (   0.6000000   0.0000000   0.0000000  )
        34           C   tau(  34) = (   0.6000000   0.1154701   0.0000000  )
        35           C   tau(  35) = (   0.5000000   0.1732051   0.0000000  )
        36           C   tau(  36) = (   0.5000000   0.2886751   0.0000000  )
        37           C   tau(  37) = (   0.4000000   0.3464102   0.0000000  )
        38           C   tau(  38) = (   0.4000000   0.4618802   0.0000000  )
        39           C   tau(  39) = (   0.3000000   0.5196152   0.0000000  )
        40           C   tau(  40) = (   0.3000000   0.6350853   0.0000000  )
        41           C   tau(  41) = (   0.2000000   0.6928203   0.0000000  )
        42           C   tau(  42) = (   0.2000000   0.8082904   0.0000000  )
        43           C   tau(  43) = (   0.8000000   0.0000000   0.0000000  )
        44           C   tau(  44) = (   0.8000000   0.1154701   0.0000000  )
        45           C   tau(  45) = (   0.7000000   0.1732051   0.0000000  )
        46           C   tau(  46) = (   0.7000000   0.2886751   0.0000000  )
        47           C   tau(  47) = (   0.6000000   0.3464102   0.0000000  )
        48           C   tau(  48) = (   0.6000000   0.4618802   0.0000000  )
        49           C   tau(  49) = (   0.5000000   0.5196152   0.0000000  )
        50           C   tau(  50) = (   0.5000000   0.6350853   0.0000000  )
        51           C   tau(  51) = (   0.4000000   0.6928203   0.0000000  )
        52           C   tau(  52) = (   0.4000000   0.8082904   0.0000000  )

     number of k points=     4  Marzari-Vanderbilt smearing, width (Ry)=  0.0010
                       cart. coord. in units 2pi/alat
        k(    1) = (   0.0000000   0.0000000   0.0000000), wk =   0.5000000
        k(    2) = (   0.0000000  -0.5773503   0.0000000), wk =   0.5000000
        k(    3) = (   0.5000000  -0.2886751   0.0000000), wk =   0.5000000
        k(    4) = (  -0.5000000  -0.2886751   0.0000000), wk =   0.5000000

     Dense  grid:  2439139 G-vectors     FFT dimensions: ( 180, 180, 200)

     Smooth grid:  1053907 G-vectors     FFT dimensions: ( 125, 125, 160)

     Estimated max dynamical RAM per process >       1.39 GB

     Estimated total dynamical RAM >       6.95 GB

     Check: negative core charge=   -0.000001

     Initial potential from superposition of free atoms

     starting charge  201.80551, renormalised to  202.00000

     negative rho (up, down):  9.284E-04 0.000E+00


---------------------------------------------------------------------------------
Carrying out rVV10 run using the following parameters:
Nqs =      20    Nr_points =    1024   r_max =   100.000
b_value =  6.30000    beta =  0.00901
     q_mesh =  0.00010000  0.00030000  0.00058939  0.00100810
               0.00161396  0.00249058  0.00375900  0.00559430
               0.00824984  0.01209221  0.01765183  0.02569619
               0.03733578  0.05417739  0.07854596  0.11380545
               0.16482331  0.23864234  0.34545298  0.50000000

Gradients computed in Reciprocal space

---------------------------------------------------------------------------------


     Starting wfcs are  202 randomized atomic wfcs

     total cpu time spent up to now is      159.2 secs

     Self-consistent Calculation

     iteration #  1     ecut=    70.00 Ry     beta= 0.70
     Davidson diagonalization with overlap
     ethr =  1.00E-02,  avg # of iterations =  2.0

     negative rho (up, down):  9.779E-04 0.000E+00

     total cpu time spent up to now is      441.7 secs

     total energy              =    -624.76091593 Ry
     Harris-Foulkes estimate   =    -628.27315777 Ry
     estimated scf accuracy    <       5.85158235 Ry

     iteration #  2     ecut=    70.00 Ry     beta= 0.70
     Davidson diagonalization with overlap
     ethr =  2.90E-03,  avg # of iterations =  7.8

     negative rho (up, down):  1.166E-03 0.000E+00

     total cpu time spent up to now is      698.4 secs

     total energy              =    -625.62053857 Ry
     Harris-Foulkes estimate   =    -625.68754929 Ry
     estimated scf accuracy    <       0.15264159 Ry

     iteration #  3     ecut=    70.00 Ry     beta= 0.70
     Davidson diagonalization with overlap
     c_bands:  1 eigenvalues not converged
     c_bands:  1 eigenvalues not converged
     c_bands:  2 eigenvalues not converged
     ethr =  7.56E-05,  avg # of iterations = 18.5

     negative rho (up, down):  1.214E-03 0.000E+00

     total cpu time spent up to now is     1005.4 secs

     total energy              =    -625.60324364 Ry
     Harris-Foulkes estimate   =    -625.69849437 Ry
     estimated scf accuracy    <       0.19436801 Ry

     iteration #  4     ecut=    70.00 Ry     beta= 0.70
     Davidson diagonalization with overlap
     ethr =  7.56E-05,  avg # of iterations =  5.5

     negative rho (up, down):  1.401E-03 0.000E+00

     total cpu time spent up to now is     1251.3 secs

     total energy              =    -625.65260931 Ry
     Harris-Foulkes estimate   =    -625.66926959 Ry
     estimated scf accuracy    <       0.04689169 Ry

     iteration #  5     ecut=    70.00 Ry     beta= 0.70
     Davidson diagonalization with overlap
     ethr =  2.32E-05,  avg # of iterations =  7.2

     negative rho (up, down):  1.574E-03 0.000E+00

     total cpu time spent up to now is     1485.1 secs

     total energy              =    -625.66016289 Ry
     Harris-Foulkes estimate   =    -625.66109423 Ry
     estimated scf accuracy    <       0.00171932 Ry

     iteration #  6     ecut=    70.00 Ry     beta= 0.70
     Davidson diagonalization with overlap
     ethr =  8.51E-07,  avg # of iterations = 11.0

     negative rho (up, down):  1.767E-03 0.000E+00

     total cpu time spent up to now is     1762.3 secs

     total energy              =    -625.66061674 Ry
     Harris-Foulkes estimate   =    -625.66071207 Ry
     estimated scf accuracy    <       0.00014975 Ry

     iteration #  7     ecut=    70.00 Ry     beta= 0.70
     Davidson diagonalization with overlap
     ethr =  7.41E-08,  avg # of iterations =  7.8

     negative rho (up, down):  1.806E-03 0.000E+00

     total cpu time spent up to now is     2016.5 secs

     total energy              =    -625.66064651 Ry
     Harris-Foulkes estimate   =    -625.66066760 Ry
     estimated scf accuracy    <       0.00003329 Ry

     iteration #  8     ecut=    70.00 Ry     beta= 0.70
     Davidson diagonalization with overlap
     ethr =  1.65E-08,  avg # of iterations =  2.0

     negative rho (up, down):  1.814E-03 0.000E+00

     total cpu time spent up to now is     2251.2 secs

     End of self-consistent calculation

          k = 0.0000 0.0000 0.0000 (131685 PWs)   bands (ev):

   -21.1899 -20.2556 -20.2536 -20.2530 -20.2526 -20.2524 -20.2520 -18.4189
   -18.4182 -18.4181 -18.4174 -18.4172 -18.4169 -17.5257 -17.5255 -17.5252
   -17.5251 -17.5248 -17.5248 -15.3816 -15.3810 -15.3805 -15.3805 -15.3800
   -15.3796 -14.3730 -14.3729 -14.3729 -14.3721 -14.3720 -14.3720 -13.0320
   -13.0319 -13.0318 -13.0316 -13.0316 -13.0315 -10.6716 -10.6715 -10.6713
   -10.6711 -10.6708 -10.6708 -10.5497 -10.5494 -10.5488 -10.5488 -10.5486
   -10.5482  -9.3237  -9.1765  -9.1763  -9.1761  -9.1761  -9.1760  -9.1760
    -8.2264  -8.2048  -8.2042  -8.2037  -8.2036  -8.2031  -7.9297  -7.9292
    -7.9291  -7.9284  -7.9283  -7.9278  -7.8835  -7.8771  -7.8768  -7.8767
    -7.8764  -7.8762  -7.8758  -6.2826  -6.2823  -6.2821  -6.2817  -6.2817
    -6.2812  -6.0742  -6.0740  -6.0737  -6.0727  -6.0724  -6.0721  -5.1763
    -5.1762  -5.1752  -5.1751  -5.1745  -5.1743  -4.8105  -4.8104  -3.1915
    -3.1907  -3.1898  -3.1896  -3.1891  -3.1887  -0.3960  -0.3958  -0.3951
    -0.3945  -0.3941  -0.3937   1.3260   1.4595   1.4601   1.4604   1.4618
     1.4619   1.4622   2.2662   2.4014   2.4981   2.4989   2.5959   2.5977
     2.6945

          k = 0.0000-0.5774 0.0000 (131762 PWs)   bands (ev):

   -20.9552 -20.9544 -20.4869 -20.4859 -19.5589 -19.5584 -19.5578 -19.5575
   -19.0984 -19.0983 -18.1924 -18.1922 -18.1915 -18.1915 -16.8754 -16.8749
   -16.8743 -16.8741 -16.4696 -16.4693 -16.4689 -16.4687 -15.9848 -15.2580
   -15.2579 -14.9177 -14.0534 -14.0532 -14.0527 -14.0524 -13.5817 -13.5816
   -12.6482 -12.6480 -12.6473 -12.6472 -11.8512 -11.8511 -11.6920 -11.6920
   -11.6916 -11.6916 -10.4725 -10.4725 -10.2444 -10.2437 -10.2435 -10.2431
    -9.2007  -9.2006  -9.2005  -9.2005  -9.0435  -9.0396  -8.8290  -8.8285
    -8.8279  -8.8274  -8.4854  -8.4802  -8.3537  -8.3537  -8.3530  -8.3529
    -8.1608  -7.9018  -7.4410  -7.4410  -7.4406  -7.4406  -7.3875  -7.3869
    -7.3863  -7.3834  -7.2637  -7.2634  -7.0567  -7.0561  -6.8616  -6.8610
    -6.2097  -6.2091  -5.8415  -5.8412  -5.8401  -5.8400  -5.7172  -5.7167
    -5.2774  -5.2767  -4.4008  -4.3997  -4.3989  -4.3986  -4.1966  -4.1962
    -4.1951  -4.1946  -4.0492  -2.7140  -2.7139  -0.6777  -0.6774  -0.0251
     0.3595   0.3597   0.3616   0.3620   1.0079   1.0092   1.0096   1.0100
     1.6191   1.6518   2.2267   2.2660   2.5309   2.5821   2.6251   2.6279
     2.6280

          k = 0.5000-0.2887 0.0000 (131762 PWs)   bands (ev):

   -20.9552 -20.9543 -20.4869 -20.4859 -19.5589 -19.5584 -19.5578 -19.5575
   -19.0984 -19.0983 -18.1924 -18.1923 -18.1915 -18.1914 -16.8754 -16.8749
   -16.8743 -16.8741 -16.4696 -16.4693 -16.4689 -16.4687 -15.9848 -15.2580
   -15.2579 -14.9177 -14.0534 -14.0531 -14.0527 -14.0524 -13.5817 -13.5816
   -12.6482 -12.6480 -12.6473 -12.6471 -11.8512 -11.8511 -11.6920 -11.6920
   -11.6916 -11.6915 -10.4725 -10.4725 -10.2444 -10.2437 -10.2434 -10.2431
    -9.2007  -9.2006  -9.2005  -9.2005  -9.0435  -9.0395  -8.8291  -8.8285
    -8.8279  -8.8274  -8.4854  -8.4802  -8.3537  -8.3537  -8.3529  -8.3529
    -8.1608  -7.9018  -7.4410  -7.4410  -7.4406  -7.4406  -7.3875  -7.3869
    -7.3864  -7.3834  -7.2637  -7.2634  -7.0567  -7.0561  -6.8616  -6.8610
    -6.2097  -6.2090  -5.8416  -5.8413  -5.8401  -5.8400  -5.7172  -5.7166
    -5.2774  -5.2767  -4.4008  -4.3997  -4.3990  -4.3986  -4.1966  -4.1962
    -4.1951  -4.1946  -4.0492  -2.7140  -2.7139  -0.6777  -0.6774  -0.0251
     0.3595   0.3597   0.3616   0.3620   1.0079   1.0092   1.0095   1.0100
     1.6191   1.6518   2.2267   2.2660   2.5309   2.5821   2.6251   2.6280
     2.6280

          k =-0.5000-0.2887 0.0000 (131762 PWs)   bands (ev):

   -20.9558 -20.9538 -20.4869 -20.4860 -19.5588 -19.5584 -19.5579 -19.5575
   -19.0984 -19.0983 -18.1931 -18.1927 -18.1910 -18.1908 -16.8754 -16.8748
   -16.8745 -16.8740 -16.4694 -16.4692 -16.4689 -16.4689 -15.9848 -15.2580
   -15.2579 -14.9177 -14.0532 -14.0529 -14.0529 -14.0526 -13.5817 -13.5816
   -12.6484 -12.6477 -12.6475 -12.6470 -11.8512 -11.8511 -11.6923 -11.6921
   -11.6914 -11.6913 -10.4726 -10.4725 -10.2449 -10.2443 -10.2429 -10.2426
    -9.2007  -9.2006  -9.2005  -9.2005  -9.0440  -9.0390  -8.8286  -8.8285
    -8.8279  -8.8278  -8.4854  -8.4802  -8.3542  -8.3533  -8.3533  -8.3525
    -8.1608  -7.9017  -7.4410  -7.4410  -7.4407  -7.4406  -7.3875  -7.3869
    -7.3864  -7.3834  -7.2637  -7.2634  -7.0566  -7.0561  -6.8618  -6.8608
    -6.2097  -6.2091  -5.8421  -5.8416  -5.8398  -5.8394  -5.7177  -5.7161
    -5.2779  -5.2761  -4.4010  -4.3994  -4.3993  -4.3984  -4.1966  -4.1957
    -4.1951  -4.1951  -4.0492  -2.7142  -2.7137  -0.6776  -0.6774  -0.0252
     0.3597   0.3602   0.3615   0.3617   1.0071   1.0093   1.0095   1.0103
     1.6194   1.6515   2.2264   2.2662   2.5311   2.5842   2.6264   2.6274
     2.6283

     the Fermi energy is    -1.7668 ev

!    total energy              =    -625.66065252 Ry
     Harris-Foulkes estimate   =    -625.66065424 Ry
     estimated scf accuracy    <       0.00000087 Ry

     The total energy is the sum of the following terms:

     one-electron contribution =   -3918.55757458 Ry
     hartree contribution      =    1996.19117238 Ry
     xc contribution           =    -235.29638076 Ry
     ewald contribution        =    1532.00213044 Ry
     smearing contrib. (-TS)   =       0.00000000 Ry

     convergence has been achieved in   8 iterations

     Writing output data file gr-12.save/

     init_run     :    157.03s CPU    158.62s WALL (       1 calls)
     electrons    :   2073.72s CPU   2092.13s WALL (       1 calls)

     Called by init_run:
     wfcinit      :    115.16s CPU    115.92s WALL (       1 calls)
     potinit      :     21.51s CPU     22.04s WALL (       1 calls)
     hinit0       :     15.01s CPU     15.05s WALL (       1 calls)

     Called by electrons:
     c_bands      :   1733.60s CPU   1743.02s WALL (       8 calls)
     sum_band     :    224.42s CPU    227.56s WALL (       8 calls)
     v_of_rho     :     86.20s CPU     90.63s WALL (       9 calls)
     newd         :     40.33s CPU     42.36s WALL (       9 calls)
     mix_rho      :      1.91s CPU      1.95s WALL (       8 calls)

     Called by c_bands:
     init_us_2    :      4.29s CPU      4.32s WALL (      68 calls)
     cegterg      :   1722.44s CPU   1731.79s WALL (      32 calls)

     Called by sum_band:
     sum_band:bec :      0.02s CPU      0.02s WALL (      32 calls)
     addusdens    :     53.53s CPU     55.62s WALL (       8 calls)

     Called by *egterg:
     h_psi        :    945.33s CPU    952.40s WALL (     283 calls)
     s_psi        :    293.36s CPU    293.60s WALL (     283 calls)
     g_psi        :      1.29s CPU      1.29s WALL (     247 calls)
     cdiaghg      :     26.03s CPU     26.03s WALL (     279 calls)

     Called by h_psi:
     h_psi:pot    :    944.16s CPU    950.21s WALL (     283 calls)
     h_psi:calbec :    295.42s CPU    295.55s WALL (     283 calls)
     vloc_psi     :    354.97s CPU    360.81s WALL (     283 calls)
     add_vuspsi   :    293.76s CPU    293.85s WALL (     283 calls)

     General routines
     calbec       :    394.78s CPU    394.98s WALL (     315 calls)
     fft          :     46.49s CPU     48.14s WALL (     565 calls)
     ffts         :      0.50s CPU      0.52s WALL (      17 calls)
     fftw         :    361.95s CPU    367.82s WALL (   26862 calls)
     interpolate  :      1.10s CPU      1.12s WALL (       9 calls)

     Parallel routines
     fft_scatt_xy :     90.19s CPU     90.72s WALL (   27444 calls)
     fft_scatt_yz :    119.73s CPU    124.92s WALL (   27444 calls)

     PWSCF        :  37m11.70s CPU  37m32.48s WALL


   This run was terminated on:  23: 0:45  18Jun2022            

=------------------------------------------------------------------------------=
   JOB DONE.
=------------------------------------------------------------------------------=
