
     Program PWSCF v.6.4.1 starts on 18Jun2022 at 23: 0:45 

     This program is part of the open-source Quantum ESPRESSO suite
     for quantum simulation of materials; please cite
         "P. Giannozzi et al., J. Phys.:Condens. Matter 21 395502 (2009);
         "P. Giannozzi et al., J. Phys.:Condens. Matter 29 465901 (2017);
          URL http://www.quantum-espresso.org", 
     in publications or presentations arising from this work. More details at
     http://www.quantum-espresso.org/quote

     Parallel version (MPI), running on     5 processors

     MPI processes distributed on     1 nodes
     R & G space division:  proc/nbgrp/npool/nimage =       5
     Reading input from distance-3.0.in

     Current dimensions of program PWSCF are:
     Max number of different atomic species (ntypx) = 10
     Max number of k-points (npk) =  40000
     Max angular momentum in pseudopotentials (lmaxx) =  3

     IMPORTANT: XC functional enforced from input :
     Exchange-correlation      = RVV10 ( 1  4 13  4 3 0)
     Any further DFT definition will be discarded
     Please, verify this is what you really want

               file H.pbe-rrkjus.UPF: wavefunction(s)  1S renormalized
               file H.pbe-rrkjus.UPF: wavefunction(s)  1S renormalized

     Subspace diagonalization in iterative solution of the eigenvalue problem:
     a serial algorithm will be used


     Parallelization info
     --------------------
     sticks:   dense  smooth     PW     G-vecs:    dense   smooth      PW
     Min        3662    2095    542               487826   210779   27834
     Max        3663    2096    543               487829   210784   27841
     Sum       18313   10477   2713              2439139  1053907  139193



     bravais-lattice index     =            4
     lattice parameter (alat)  =      23.2937  a.u.
     unit-cell volume          =   13319.7822 (a.u.)^3
     number of atoms/cell      =           52
     number of atomic types    =            3
     number of electrons       =       202.00
     number of Kohn-Sham states=          121
     kinetic-energy cutoff     =      70.0000  Ry
     charge density cutoff     =     490.0000  Ry
     convergence threshold     =      1.0E-06
     mixing beta               =       0.7000
     number of iterations used =            8  plain     mixing
     Exchange-correlation      = RVV10 ( 1  4 13  4 3 0)

     celldm(1)=  23.293684  celldm(2)=   0.000000  celldm(3)=   1.216892
     celldm(4)=   0.000000  celldm(5)=   0.000000  celldm(6)=   0.000000

     crystal axes: (cart. coord. in units of alat)
               a(1) = (   1.000000   0.000000   0.000000 )  
               a(2) = (  -0.500000   0.866025   0.000000 )  
               a(3) = (   0.000000   0.000000   1.216892 )  

     reciprocal axes: (cart. coord. in units 2 pi/alat)
               b(1) = (  1.000000  0.577350 -0.000000 )  
               b(2) = (  0.000000  1.154701  0.000000 )  
               b(3) = (  0.000000 -0.000000  0.821766 )  


     PseudoPot. # 1 for H  read from file:
     /home/cristian/Escritorio/Proyecto_Grafeno/pseudopotenciales/H.pbe-rrkjus.UPF
     MD5 check sum: 7cc9d459525c9a0585f487a71c3c9563
     Pseudo is Ultrasoft, Zval =  1.0
     Generated by new atomic code, or converted to UPF format
     Using radial grid of 1061 points,  2 beta functions with: 
                l(1) =   0
                l(2) =   0
     Q(r) pseudized with 0 coefficients 


     PseudoPot. # 2 for H  read from file:
     /home/cristian/Escritorio/Proyecto_Grafeno/pseudopotenciales/H.pbe-rrkjus.UPF
     MD5 check sum: 7cc9d459525c9a0585f487a71c3c9563
     Pseudo is Ultrasoft, Zval =  1.0
     Generated by new atomic code, or converted to UPF format
     Using radial grid of 1061 points,  2 beta functions with: 
                l(1) =   0
                l(2) =   0
     Q(r) pseudized with 0 coefficients 


     PseudoPot. # 3 for C  read from file:
     /home/cristian/Escritorio/Proyecto_Grafeno/pseudopotenciales/C.pbe-n-rrkjus_psl.1.0.0.UPF
     MD5 check sum: 1fdd950c42eb37d8afe3dd2f8d12311e
     Pseudo is Ultrasoft + core correction, Zval =  4.0
     Generated using "atomic" code by A. Dal Corso v.6.3MaX
     Using radial grid of 1073 points,  4 beta functions with: 
                l(1) =   0
                l(2) =   0
                l(3) =   1
                l(4) =   1
     Q(r) pseudized with 0 coefficients 


     vdW kernel table read from file rVV10_kernel_table
     MD5 check sum: b8e2538accc0c0b3206b45ba4daaba6c

     atomic species   valence    mass     pseudopotential
        H1             1.00     1.00794     H ( 1.00)
        H2             1.00     1.00794     H ( 1.00)
        C              4.00    12.01070     C ( 1.00)

     No symmetry found



   Cartesian axes

     site n.     atom                  positions (alat units)
         1           H1  tau(   1) = (   0.2500000   0.4907477   0.2433783  )
         2           H2  tau(   2) = (   0.2500000   0.4907477   0.3043910  )
         3           C   tau(   3) = (   0.0000000   0.0000000   0.0000000  )
         4           C   tau(   4) = (   0.0000000   0.1154701   0.0000000  )
         5           C   tau(   5) = (  -0.1000000   0.1732051   0.0000000  )
         6           C   tau(   6) = (  -0.1000000   0.2886751   0.0000000  )
         7           C   tau(   7) = (  -0.2000000   0.3464102   0.0000000  )
         8           C   tau(   8) = (  -0.2000000   0.4618802   0.0000000  )
         9           C   tau(   9) = (  -0.3000000   0.5196152   0.0000000  )
        10           C   tau(  10) = (  -0.3000000   0.6350853   0.0000000  )
        11           C   tau(  11) = (  -0.4000000   0.6928203   0.0000000  )
        12           C   tau(  12) = (  -0.4000000   0.8082904   0.0000000  )
        13           C   tau(  13) = (   0.2000000   0.0000000   0.0000000  )
        14           C   tau(  14) = (   0.2000000   0.1154701   0.0000000  )
        15           C   tau(  15) = (   0.1000000   0.1732051   0.0000000  )
        16           C   tau(  16) = (   0.1000000   0.2886751   0.0000000  )
        17           C   tau(  17) = (   0.0000000   0.3464102   0.0000000  )
        18           C   tau(  18) = (   0.0000000   0.4618802   0.0000000  )
        19           C   tau(  19) = (  -0.1000000   0.5196152   0.0000000  )
        20           C   tau(  20) = (  -0.1000000   0.6350853   0.0000000  )
        21           C   tau(  21) = (  -0.2000000   0.6928203   0.0000000  )
        22           C   tau(  22) = (  -0.2000000   0.8082904   0.0000000  )
        23           C   tau(  23) = (   0.4000000   0.0000000   0.0000000  )
        24           C   tau(  24) = (   0.4000000   0.1154701   0.0000000  )
        25           C   tau(  25) = (   0.3000000   0.1732051   0.0000000  )
        26           C   tau(  26) = (   0.3000000   0.2886751   0.0000000  )
        27           C   tau(  27) = (   0.2000000   0.3464102   0.0000000  )
        28           C   tau(  28) = (   0.2000000   0.4618802   0.0000000  )
        29           C   tau(  29) = (   0.1000000   0.5196152   0.0000000  )
        30           C   tau(  30) = (   0.1000000   0.6350853   0.0000000  )
        31           C   tau(  31) = (   0.0000000   0.6928203   0.0000000  )
        32           C   tau(  32) = (   0.0000000   0.8082904   0.0000000  )
        33           C   tau(  33) = (   0.6000000   0.0000000   0.0000000  )
        34           C   tau(  34) = (   0.6000000   0.1154701   0.0000000  )
        35           C   tau(  35) = (   0.5000000   0.1732051   0.0000000  )
        36           C   tau(  36) = (   0.5000000   0.2886751   0.0000000  )
        37           C   tau(  37) = (   0.4000000   0.3464102   0.0000000  )
        38           C   tau(  38) = (   0.4000000   0.4618802   0.0000000  )
        39           C   tau(  39) = (   0.3000000   0.5196152   0.0000000  )
        40           C   tau(  40) = (   0.3000000   0.6350853   0.0000000  )
        41           C   tau(  41) = (   0.2000000   0.6928203   0.0000000  )
        42           C   tau(  42) = (   0.2000000   0.8082904   0.0000000  )
        43           C   tau(  43) = (   0.8000000   0.0000000   0.0000000  )
        44           C   tau(  44) = (   0.8000000   0.1154701   0.0000000  )
        45           C   tau(  45) = (   0.7000000   0.1732051   0.0000000  )
        46           C   tau(  46) = (   0.7000000   0.2886751   0.0000000  )
        47           C   tau(  47) = (   0.6000000   0.3464102   0.0000000  )
        48           C   tau(  48) = (   0.6000000   0.4618802   0.0000000  )
        49           C   tau(  49) = (   0.5000000   0.5196152   0.0000000  )
        50           C   tau(  50) = (   0.5000000   0.6350853   0.0000000  )
        51           C   tau(  51) = (   0.4000000   0.6928203   0.0000000  )
        52           C   tau(  52) = (   0.4000000   0.8082904   0.0000000  )

     number of k points=     4  Marzari-Vanderbilt smearing, width (Ry)=  0.0010
                       cart. coord. in units 2pi/alat
        k(    1) = (   0.0000000   0.0000000   0.0000000), wk =   0.5000000
        k(    2) = (   0.0000000  -0.5773503   0.0000000), wk =   0.5000000
        k(    3) = (   0.5000000  -0.2886751   0.0000000), wk =   0.5000000
        k(    4) = (  -0.5000000  -0.2886751   0.0000000), wk =   0.5000000

     Dense  grid:  2439139 G-vectors     FFT dimensions: ( 180, 180, 200)

     Smooth grid:  1053907 G-vectors     FFT dimensions: ( 125, 125, 160)

     Estimated max dynamical RAM per process >       1.39 GB

     Estimated total dynamical RAM >       6.95 GB

     Check: negative core charge=   -0.000001

     Initial potential from superposition of free atoms

     starting charge  201.80551, renormalised to  202.00000

     negative rho (up, down):  9.785E-04 0.000E+00


---------------------------------------------------------------------------------
Carrying out rVV10 run using the following parameters:
Nqs =      20    Nr_points =    1024   r_max =   100.000
b_value =  6.30000    beta =  0.00901
     q_mesh =  0.00010000  0.00030000  0.00058939  0.00100810
               0.00161396  0.00249058  0.00375900  0.00559430
               0.00824984  0.01209221  0.01765183  0.02569619
               0.03733578  0.05417739  0.07854596  0.11380545
               0.16482331  0.23864234  0.34545298  0.50000000

Gradients computed in Reciprocal space

---------------------------------------------------------------------------------


     Starting wfcs are  202 randomized atomic wfcs

     total cpu time spent up to now is      162.8 secs

     Self-consistent Calculation

     iteration #  1     ecut=    70.00 Ry     beta= 0.70
     Davidson diagonalization with overlap
     ethr =  1.00E-02,  avg # of iterations =  2.0

     negative rho (up, down):  1.052E-03 0.000E+00

     total cpu time spent up to now is      444.6 secs

     total energy              =    -624.75039910 Ry
     Harris-Foulkes estimate   =    -628.26744101 Ry
     estimated scf accuracy    <       5.85495997 Ry

     iteration #  2     ecut=    70.00 Ry     beta= 0.70
     Davidson diagonalization with overlap
     ethr =  2.90E-03,  avg # of iterations =  7.2

     negative rho (up, down):  1.247E-03 0.000E+00

     total cpu time spent up to now is      701.8 secs

     total energy              =    -625.57347371 Ry
     Harris-Foulkes estimate   =    -625.70634321 Ry
     estimated scf accuracy    <       0.23111342 Ry

     iteration #  3     ecut=    70.00 Ry     beta= 0.70
     Davidson diagonalization with overlap
     c_bands:  3 eigenvalues not converged
     ethr =  1.14E-04,  avg # of iterations = 13.0

     negative rho (up, down):  1.295E-03 0.000E+00

     total cpu time spent up to now is     1013.4 secs

     total energy              =    -625.54693196 Ry
     Harris-Foulkes estimate   =    -625.76170162 Ry
     estimated scf accuracy    <       0.50498946 Ry

     iteration #  4     ecut=    70.00 Ry     beta= 0.70
     Davidson diagonalization with overlap
     ethr =  1.14E-04,  avg # of iterations =  5.8

     negative rho (up, down):  1.445E-03 0.000E+00

     total cpu time spent up to now is     1265.3 secs

     total energy              =    -625.65603667 Ry
     Harris-Foulkes estimate   =    -625.66732999 Ry
     estimated scf accuracy    <       0.03155575 Ry

     iteration #  5     ecut=    70.00 Ry     beta= 0.70
     Davidson diagonalization with overlap
     ethr =  1.56E-05,  avg # of iterations =  8.0

     negative rho (up, down):  1.619E-03 0.000E+00

     total cpu time spent up to now is     1513.6 secs

     total energy              =    -625.66105990 Ry
     Harris-Foulkes estimate   =    -625.66320813 Ry
     estimated scf accuracy    <       0.00429743 Ry

     iteration #  6     ecut=    70.00 Ry     beta= 0.70
     Davidson diagonalization with overlap
     ethr =  2.13E-06,  avg # of iterations =  7.0

     negative rho (up, down):  1.787E-03 0.000E+00

     total cpu time spent up to now is     1774.3 secs

     total energy              =    -625.66201489 Ry
     Harris-Foulkes estimate   =    -625.66212712 Ry
     estimated scf accuracy    <       0.00017997 Ry

     iteration #  7     ecut=    70.00 Ry     beta= 0.70
     Davidson diagonalization with overlap
     ethr =  8.91E-08,  avg # of iterations =  8.5

     negative rho (up, down):  1.848E-03 0.000E+00

     total cpu time spent up to now is     2031.1 secs

     total energy              =    -625.66205497 Ry
     Harris-Foulkes estimate   =    -625.66208393 Ry
     estimated scf accuracy    <       0.00004366 Ry

     iteration #  8     ecut=    70.00 Ry     beta= 0.70
     Davidson diagonalization with overlap
     ethr =  2.16E-08,  avg # of iterations =  2.5

     negative rho (up, down):  1.855E-03 0.000E+00

     total cpu time spent up to now is     2264.5 secs

     total energy              =    -625.66206429 Ry
     Harris-Foulkes estimate   =    -625.66206590 Ry
     estimated scf accuracy    <       0.00000159 Ry

     iteration #  9     ecut=    70.00 Ry     beta= 0.70
     Davidson diagonalization with overlap
     ethr =  7.87E-10,  avg # of iterations =  3.0

     negative rho (up, down):  1.857E-03 0.000E+00

     total cpu time spent up to now is     2514.9 secs

     End of self-consistent calculation

          k = 0.0000 0.0000 0.0000 (131685 PWs)   bands (ev):

   -21.1913 -20.2576 -20.2549 -20.2541 -20.2541 -20.2535 -20.2535 -18.4205
   -18.4195 -18.4193 -18.4187 -18.4187 -18.4185 -17.5278 -17.5269 -17.5266
   -17.5263 -17.5261 -17.5257 -15.3829 -15.3827 -15.3823 -15.3816 -15.3811
   -15.3810 -14.3745 -14.3743 -14.3742 -14.3735 -14.3734 -14.3734 -13.0334
   -13.0334 -13.0334 -13.0329 -13.0329 -13.0328 -10.6731 -10.6731 -10.6726
   -10.6726 -10.6722 -10.6721 -10.5510 -10.5510 -10.5503 -10.5500 -10.5498
   -10.5498  -9.3287  -9.1781  -9.1780  -9.1774  -9.1773  -9.1773  -9.1773
    -8.2836  -8.2061  -8.2053  -8.2049  -8.2045  -8.2044  -7.9312  -7.9309
    -7.9305  -7.9298  -7.9294  -7.9293  -7.8791  -7.8784  -7.8781  -7.8778
    -7.8774  -7.8774  -7.8337  -6.2841  -6.2840  -6.2834  -6.2832  -6.2829
    -6.2827  -6.0758  -6.0750  -6.0738  -6.0736  -6.0734  -6.0714  -5.1779
    -5.1773  -5.1765  -5.1763  -5.1757  -5.1752  -4.8119  -4.8118  -3.1936
    -3.1930  -3.1915  -3.1905  -3.1900  -3.1899  -0.3989  -0.3980  -0.3972
    -0.3955  -0.3952  -0.3951   1.3447   1.4561   1.4570   1.4576   1.4607
     1.4608   1.4611   2.2554   2.4920   2.4924   2.4998   2.5957   2.5995
     2.7388

          k = 0.0000-0.5774 0.0000 (131762 PWs)   bands (ev):

   -20.9571 -20.9552 -20.4883 -20.4874 -19.5607 -19.5594 -19.5594 -19.5589
   -19.0999 -19.0996 -18.1944 -18.1941 -18.1924 -18.1924 -16.8770 -16.8761
   -16.8758 -16.8755 -16.4709 -16.4708 -16.4703 -16.4701 -15.9862 -15.2594
   -15.2593 -14.9190 -14.0549 -14.0546 -14.0539 -14.0537 -13.5831 -13.5830
   -12.6497 -12.6491 -12.6489 -12.6485 -11.8526 -11.8525 -11.6936 -11.6936
   -11.6928 -11.6927 -10.4740 -10.4739 -10.2463 -10.2455 -10.2443 -10.2442
    -9.2022  -9.2019  -9.2019  -9.2019  -9.0539  -9.0404  -8.8304  -8.8299
    -8.8293  -8.8289  -8.4999  -8.4815  -8.3552  -8.3552  -8.3543  -8.3542
    -8.1622  -7.9105  -7.4424  -7.4424  -7.4421  -7.4420  -7.3886  -7.3884
    -7.3874  -7.3655  -7.2653  -7.2646  -7.0580  -7.0576  -6.8629  -6.8582
    -6.2110  -6.2106  -5.8438  -5.8411  -5.8409  -5.8406  -5.7190  -5.7176
    -5.2792  -5.2777  -4.4024  -4.4010  -4.4004  -4.3998  -4.1984  -4.1977
    -4.1964  -4.1959  -4.0506  -2.7156  -2.7154  -0.6796  -0.6789  -0.0270
     0.3563   0.3574   0.3604   0.3608   1.0052   1.0077   1.0082   1.0088
     1.6178   1.6861   2.2230   2.2966   2.5333   2.6002   2.6244   2.6268
     2.6271

          k = 0.5000-0.2887 0.0000 (131762 PWs)   bands (ev):

   -20.9571 -20.9552 -20.4883 -20.4874 -19.5607 -19.5594 -19.5594 -19.5589
   -19.0999 -19.0996 -18.1944 -18.1941 -18.1924 -18.1924 -16.8770 -16.8761
   -16.8758 -16.8755 -16.4709 -16.4708 -16.4703 -16.4701 -15.9862 -15.2594
   -15.2593 -14.9190 -14.0549 -14.0546 -14.0539 -14.0537 -13.5831 -13.5830
   -12.6497 -12.6491 -12.6489 -12.6485 -11.8526 -11.8525 -11.6937 -11.6936
   -11.6928 -11.6927 -10.4740 -10.4739 -10.2463 -10.2455 -10.2443 -10.2442
    -9.2022  -9.2019  -9.2019  -9.2019  -9.0539  -9.0403  -8.8303  -8.8299
    -8.8293  -8.8289  -8.4999  -8.4815  -8.3552  -8.3552  -8.3543  -8.3542
    -8.1622  -7.9105  -7.4424  -7.4424  -7.4421  -7.4420  -7.3886  -7.3884
    -7.3874  -7.3655  -7.2653  -7.2646  -7.0580  -7.0576  -6.8629  -6.8582
    -6.2110  -6.2106  -5.8438  -5.8411  -5.8409  -5.8406  -5.7191  -5.7176
    -5.2792  -5.2777  -4.4024  -4.4009  -4.4004  -4.3998  -4.1984  -4.1977
    -4.1964  -4.1959  -4.0506  -2.7156  -2.7154  -0.6796  -0.6789  -0.0270
     0.3563   0.3574   0.3604   0.3608   1.0052   1.0077   1.0082   1.0089
     1.6178   1.6861   2.2230   2.2966   2.5333   2.6002   2.6243   2.6268
     2.6271

          k =-0.5000-0.2887 0.0000 (131762 PWs)   bands (ev):

   -20.9567 -20.9557 -20.4883 -20.4873 -19.5607 -19.5595 -19.5593 -19.5588
   -19.0998 -19.0996 -18.1941 -18.1934 -18.1929 -18.1928 -16.8767 -16.8765
   -16.8756 -16.8756 -16.4713 -16.4707 -16.4701 -16.4700 -15.9862 -15.2595
   -15.2592 -14.9191 -14.0550 -14.0544 -14.0542 -14.0536 -13.5831 -13.5830
   -12.6498 -12.6493 -12.6486 -12.6486 -11.8526 -11.8525 -11.6933 -11.6932
   -11.6931 -11.6930 -10.4741 -10.4738 -10.2459 -10.2449 -10.2447 -10.2447
    -9.2021  -9.2020  -9.2020  -9.2019  -9.0534  -9.0408  -8.8305  -8.8302
    -8.8289  -8.8288  -8.5001  -8.4814  -8.3553  -8.3548  -8.3545  -8.3543
    -8.1622  -7.9102  -7.4425  -7.4423  -7.4421  -7.4420  -7.3887  -7.3882
    -7.3874  -7.3655  -7.2652  -7.2646  -7.0580  -7.0575  -6.8633  -6.8582
    -6.2111  -6.2105  -5.8426  -5.8414  -5.8413  -5.8408  -5.7187  -5.7180
    -5.2787  -5.2782  -4.4030  -4.4008  -4.4000  -4.3999  -4.1987  -4.1972
    -4.1962  -4.1959  -4.0507  -2.7162  -2.7149  -0.6795  -0.6786  -0.0274
     0.3567   0.3576   0.3603   0.3610   1.0036   1.0076   1.0086   1.0087
     1.6178   1.6862   2.2227   2.2968   2.5334   2.6217   2.6248   2.6266
     2.6345

     the Fermi energy is    -1.7311 ev

!    total energy              =    -625.66206410 Ry
     Harris-Foulkes estimate   =    -625.66206494 Ry
     estimated scf accuracy    <       0.00000051 Ry

     The total energy is the sum of the following terms:

     one-electron contribution =   -3928.97667193 Ry
     hartree contribution      =    2001.38998649 Ry
     xc contribution           =    -235.29860570 Ry
     ewald contribution        =    1537.22322704 Ry
     smearing contrib. (-TS)   =       0.00000000 Ry

     convergence has been achieved in   9 iterations

     Writing output data file gr-12.save/

     init_run     :    160.75s CPU    162.29s WALL (       1 calls)
     electrons    :   2333.39s CPU   2352.21s WALL (       1 calls)

     Called by init_run:
     wfcinit      :    116.13s CPU    116.82s WALL (       1 calls)
     potinit      :     21.76s CPU     22.28s WALL (       1 calls)
     hinit0       :     17.55s CPU     17.59s WALL (       1 calls)

     Called by electrons:
     c_bands      :   1951.90s CPU   1961.51s WALL (       9 calls)
     sum_band     :    252.39s CPU    255.37s WALL (       9 calls)
     v_of_rho     :     94.07s CPU     98.63s WALL (      10 calls)
     newd         :     45.24s CPU     47.52s WALL (      10 calls)
     mix_rho      :      2.20s CPU      2.25s WALL (       9 calls)

     Called by c_bands:
     init_us_2    :      4.71s CPU      4.75s WALL (      76 calls)
     cegterg      :   1939.96s CPU   1949.54s WALL (      36 calls)

     Called by sum_band:
     sum_band:bec :      0.02s CPU      0.02s WALL (      36 calls)
     addusdens    :     60.41s CPU     62.52s WALL (       9 calls)

     Called by *egterg:
     h_psi        :   1054.51s CPU   1061.85s WALL (     268 calls)
     s_psi        :    328.58s CPU    328.56s WALL (     268 calls)
     g_psi        :      1.42s CPU      1.42s WALL (     228 calls)
     cdiaghg      :     22.95s CPU     22.95s WALL (     264 calls)

     Called by h_psi:
     h_psi:pot    :   1053.23s CPU   1059.30s WALL (     268 calls)
     h_psi:calbec :    330.90s CPU    330.88s WALL (     268 calls)
     vloc_psi     :    393.44s CPU    399.60s WALL (     268 calls)
     add_vuspsi   :    328.89s CPU    328.82s WALL (     268 calls)

     General routines
     calbec       :    442.37s CPU    442.33s WALL (     304 calls)
     fft          :     52.76s CPU     54.52s WALL (     628 calls)
     ffts         :      0.59s CPU      0.61s WALL (      19 calls)
     fftw         :    399.71s CPU    405.74s WALL (   30240 calls)
     interpolate  :      1.30s CPU      1.32s WALL (      10 calls)

     Parallel routines
     fft_scatt_xy :     99.13s CPU     99.49s WALL (   30887 calls)
     fft_scatt_yz :    132.03s CPU    137.81s WALL (   30887 calls)

     PWSCF        :  41m35.12s CPU  41m56.16s WALL


   This run was terminated on:  23:42:41  18Jun2022            

=------------------------------------------------------------------------------=
   JOB DONE.
=------------------------------------------------------------------------------=
