
     Program PWSCF v.6.4.1 starts on 18Jun2022 at 20:29:51 

     This program is part of the open-source Quantum ESPRESSO suite
     for quantum simulation of materials; please cite
         "P. Giannozzi et al., J. Phys.:Condens. Matter 21 395502 (2009);
         "P. Giannozzi et al., J. Phys.:Condens. Matter 29 465901 (2017);
          URL http://www.quantum-espresso.org", 
     in publications or presentations arising from this work. More details at
     http://www.quantum-espresso.org/quote

     Parallel version (MPI), running on     5 processors

     MPI processes distributed on     1 nodes
     R & G space division:  proc/nbgrp/npool/nimage =       5
     Reading input from distance-5.0.in

     Current dimensions of program PWSCF are:
     Max number of different atomic species (ntypx) = 10
     Max number of k-points (npk) =  40000
     Max angular momentum in pseudopotentials (lmaxx) =  3

     IMPORTANT: XC functional enforced from input :
     Exchange-correlation      = RVV10 ( 1  4 13  4 3 0)
     Any further DFT definition will be discarded
     Please, verify this is what you really want

               file H.pbe-rrkjus.UPF: wavefunction(s)  1S renormalized
               file H.pbe-rrkjus.UPF: wavefunction(s)  1S renormalized

     Subspace diagonalization in iterative solution of the eigenvalue problem:
     a serial algorithm will be used


     Parallelization info
     --------------------
     sticks:   dense  smooth     PW     G-vecs:    dense   smooth      PW
     Min        3662    2095    542               487826   210779   27834
     Max        3663    2096    543               487829   210784   27841
     Sum       18313   10477   2713              2439139  1053907  139193



     bravais-lattice index     =            4
     lattice parameter (alat)  =      23.2937  a.u.
     unit-cell volume          =   13319.7822 (a.u.)^3
     number of atoms/cell      =           52
     number of atomic types    =            3
     number of electrons       =       202.00
     number of Kohn-Sham states=          121
     kinetic-energy cutoff     =      70.0000  Ry
     charge density cutoff     =     490.0000  Ry
     convergence threshold     =      1.0E-06
     mixing beta               =       0.7000
     number of iterations used =            8  plain     mixing
     Exchange-correlation      = RVV10 ( 1  4 13  4 3 0)

     celldm(1)=  23.293684  celldm(2)=   0.000000  celldm(3)=   1.216892
     celldm(4)=   0.000000  celldm(5)=   0.000000  celldm(6)=   0.000000

     crystal axes: (cart. coord. in units of alat)
               a(1) = (   1.000000   0.000000   0.000000 )  
               a(2) = (  -0.500000   0.866025   0.000000 )  
               a(3) = (   0.000000   0.000000   1.216892 )  

     reciprocal axes: (cart. coord. in units 2 pi/alat)
               b(1) = (  1.000000  0.577350 -0.000000 )  
               b(2) = (  0.000000  1.154701  0.000000 )  
               b(3) = (  0.000000 -0.000000  0.821766 )  


     PseudoPot. # 1 for H  read from file:
     /home/cristian/Escritorio/Proyecto_Grafeno/pseudopotenciales/H.pbe-rrkjus.UPF
     MD5 check sum: 7cc9d459525c9a0585f487a71c3c9563
     Pseudo is Ultrasoft, Zval =  1.0
     Generated by new atomic code, or converted to UPF format
     Using radial grid of 1061 points,  2 beta functions with: 
                l(1) =   0
                l(2) =   0
     Q(r) pseudized with 0 coefficients 


     PseudoPot. # 2 for H  read from file:
     /home/cristian/Escritorio/Proyecto_Grafeno/pseudopotenciales/H.pbe-rrkjus.UPF
     MD5 check sum: 7cc9d459525c9a0585f487a71c3c9563
     Pseudo is Ultrasoft, Zval =  1.0
     Generated by new atomic code, or converted to UPF format
     Using radial grid of 1061 points,  2 beta functions with: 
                l(1) =   0
                l(2) =   0
     Q(r) pseudized with 0 coefficients 


     PseudoPot. # 3 for C  read from file:
     /home/cristian/Escritorio/Proyecto_Grafeno/pseudopotenciales/C.pbe-n-rrkjus_psl.1.0.0.UPF
     MD5 check sum: 1fdd950c42eb37d8afe3dd2f8d12311e
     Pseudo is Ultrasoft + core correction, Zval =  4.0
     Generated using "atomic" code by A. Dal Corso v.6.3MaX
     Using radial grid of 1073 points,  4 beta functions with: 
                l(1) =   0
                l(2) =   0
                l(3) =   1
                l(4) =   1
     Q(r) pseudized with 0 coefficients 


     vdW kernel table read from file rVV10_kernel_table
     MD5 check sum: b8e2538accc0c0b3206b45ba4daaba6c

     atomic species   valence    mass     pseudopotential
        H1             1.00     1.00794     H ( 1.00)
        H2             1.00     1.00794     H ( 1.00)
        C              4.00    12.01070     C ( 1.00)

     No symmetry found



   Cartesian axes

     site n.     atom                  positions (alat units)
         1           H1  tau(   1) = (   0.2500000   0.4907477   0.4056306  )
         2           H2  tau(   2) = (   0.2500000   0.4907477   0.4666433  )
         3           C   tau(   3) = (   0.0000000   0.0000000   0.0000000  )
         4           C   tau(   4) = (   0.0000000   0.1154701   0.0000000  )
         5           C   tau(   5) = (  -0.1000000   0.1732051   0.0000000  )
         6           C   tau(   6) = (  -0.1000000   0.2886751   0.0000000  )
         7           C   tau(   7) = (  -0.2000000   0.3464102   0.0000000  )
         8           C   tau(   8) = (  -0.2000000   0.4618802   0.0000000  )
         9           C   tau(   9) = (  -0.3000000   0.5196152   0.0000000  )
        10           C   tau(  10) = (  -0.3000000   0.6350853   0.0000000  )
        11           C   tau(  11) = (  -0.4000000   0.6928203   0.0000000  )
        12           C   tau(  12) = (  -0.4000000   0.8082904   0.0000000  )
        13           C   tau(  13) = (   0.2000000   0.0000000   0.0000000  )
        14           C   tau(  14) = (   0.2000000   0.1154701   0.0000000  )
        15           C   tau(  15) = (   0.1000000   0.1732051   0.0000000  )
        16           C   tau(  16) = (   0.1000000   0.2886751   0.0000000  )
        17           C   tau(  17) = (   0.0000000   0.3464102   0.0000000  )
        18           C   tau(  18) = (   0.0000000   0.4618802   0.0000000  )
        19           C   tau(  19) = (  -0.1000000   0.5196152   0.0000000  )
        20           C   tau(  20) = (  -0.1000000   0.6350853   0.0000000  )
        21           C   tau(  21) = (  -0.2000000   0.6928203   0.0000000  )
        22           C   tau(  22) = (  -0.2000000   0.8082904   0.0000000  )
        23           C   tau(  23) = (   0.4000000   0.0000000   0.0000000  )
        24           C   tau(  24) = (   0.4000000   0.1154701   0.0000000  )
        25           C   tau(  25) = (   0.3000000   0.1732051   0.0000000  )
        26           C   tau(  26) = (   0.3000000   0.2886751   0.0000000  )
        27           C   tau(  27) = (   0.2000000   0.3464102   0.0000000  )
        28           C   tau(  28) = (   0.2000000   0.4618802   0.0000000  )
        29           C   tau(  29) = (   0.1000000   0.5196152   0.0000000  )
        30           C   tau(  30) = (   0.1000000   0.6350853   0.0000000  )
        31           C   tau(  31) = (   0.0000000   0.6928203   0.0000000  )
        32           C   tau(  32) = (   0.0000000   0.8082904   0.0000000  )
        33           C   tau(  33) = (   0.6000000   0.0000000   0.0000000  )
        34           C   tau(  34) = (   0.6000000   0.1154701   0.0000000  )
        35           C   tau(  35) = (   0.5000000   0.1732051   0.0000000  )
        36           C   tau(  36) = (   0.5000000   0.2886751   0.0000000  )
        37           C   tau(  37) = (   0.4000000   0.3464102   0.0000000  )
        38           C   tau(  38) = (   0.4000000   0.4618802   0.0000000  )
        39           C   tau(  39) = (   0.3000000   0.5196152   0.0000000  )
        40           C   tau(  40) = (   0.3000000   0.6350853   0.0000000  )
        41           C   tau(  41) = (   0.2000000   0.6928203   0.0000000  )
        42           C   tau(  42) = (   0.2000000   0.8082904   0.0000000  )
        43           C   tau(  43) = (   0.8000000   0.0000000   0.0000000  )
        44           C   tau(  44) = (   0.8000000   0.1154701   0.0000000  )
        45           C   tau(  45) = (   0.7000000   0.1732051   0.0000000  )
        46           C   tau(  46) = (   0.7000000   0.2886751   0.0000000  )
        47           C   tau(  47) = (   0.6000000   0.3464102   0.0000000  )
        48           C   tau(  48) = (   0.6000000   0.4618802   0.0000000  )
        49           C   tau(  49) = (   0.5000000   0.5196152   0.0000000  )
        50           C   tau(  50) = (   0.5000000   0.6350853   0.0000000  )
        51           C   tau(  51) = (   0.4000000   0.6928203   0.0000000  )
        52           C   tau(  52) = (   0.4000000   0.8082904   0.0000000  )

     number of k points=     4  Marzari-Vanderbilt smearing, width (Ry)=  0.0010
                       cart. coord. in units 2pi/alat
        k(    1) = (   0.0000000   0.0000000   0.0000000), wk =   0.5000000
        k(    2) = (   0.0000000  -0.5773503   0.0000000), wk =   0.5000000
        k(    3) = (   0.5000000  -0.2886751   0.0000000), wk =   0.5000000
        k(    4) = (  -0.5000000  -0.2886751   0.0000000), wk =   0.5000000

     Dense  grid:  2439139 G-vectors     FFT dimensions: ( 180, 180, 200)

     Smooth grid:  1053907 G-vectors     FFT dimensions: ( 125, 125, 160)

     Estimated max dynamical RAM per process >       1.39 GB

     Estimated total dynamical RAM >       6.95 GB

     Check: negative core charge=   -0.000001

     Initial potential from superposition of free atoms

     starting charge  201.80551, renormalised to  202.00000

     negative rho (up, down):  7.617E-04 0.000E+00


---------------------------------------------------------------------------------
Carrying out rVV10 run using the following parameters:
Nqs =      20    Nr_points =    1024   r_max =   100.000
b_value =  6.30000    beta =  0.00901
     q_mesh =  0.00010000  0.00030000  0.00058939  0.00100810
               0.00161396  0.00249058  0.00375900  0.00559430
               0.00824984  0.01209221  0.01765183  0.02569619
               0.03733578  0.05417739  0.07854596  0.11380545
               0.16482331  0.23864234  0.34545298  0.50000000

Gradients computed in Reciprocal space

---------------------------------------------------------------------------------


     Starting wfcs are  202 randomized atomic wfcs

     total cpu time spent up to now is      159.7 secs

     Self-consistent Calculation

     iteration #  1     ecut=    70.00 Ry     beta= 0.70
     Davidson diagonalization with overlap
     ethr =  1.00E-02,  avg # of iterations =  2.0

     negative rho (up, down):  7.511E-04 0.000E+00

     total cpu time spent up to now is      440.2 secs

     total energy              =    -624.75712573 Ry
     Harris-Foulkes estimate   =    -628.29679598 Ry
     estimated scf accuracy    <       5.88506266 Ry

     iteration #  2     ecut=    70.00 Ry     beta= 0.70
     Davidson diagonalization with overlap
     ethr =  2.91E-03,  avg # of iterations = 10.2

     negative rho (up, down):  9.005E-04 0.000E+00

     total cpu time spent up to now is      699.0 secs

     total energy              =    -625.64505608 Ry
     Harris-Foulkes estimate   =    -625.67581261 Ry
     estimated scf accuracy    <       0.11060720 Ry

     iteration #  3     ecut=    70.00 Ry     beta= 0.70
     Davidson diagonalization with overlap
     c_bands:  3 eigenvalues not converged
     ethr =  5.48E-05,  avg # of iterations = 15.5

     negative rho (up, down):  1.001E-03 0.000E+00

     total cpu time spent up to now is      964.0 secs

     total energy              =    -625.64955696 Ry
     Harris-Foulkes estimate   =    -625.66122675 Ry
     estimated scf accuracy    <       0.02061874 Ry

     iteration #  4     ecut=    70.00 Ry     beta= 0.70
     Davidson diagonalization with overlap
     c_bands:  2 eigenvalues not converged
     ethr =  1.02E-05,  avg # of iterations = 13.5

     negative rho (up, down):  1.203E-03 0.000E+00

     total cpu time spent up to now is     1274.9 secs

     total energy              =    -625.64821574 Ry
     Harris-Foulkes estimate   =    -625.67054905 Ry
     estimated scf accuracy    <       0.05933791 Ry

     iteration #  5     ecut=    70.00 Ry     beta= 0.70
     Davidson diagonalization with overlap
     ethr =  1.02E-05,  avg # of iterations =  8.2

     negative rho (up, down):  1.522E-03 0.000E+00

     total cpu time spent up to now is     1536.7 secs

     total energy              =    -625.65858251 Ry
     Harris-Foulkes estimate   =    -625.65880578 Ry
     estimated scf accuracy    <       0.00041351 Ry

     iteration #  6     ecut=    70.00 Ry     beta= 0.70
     Davidson diagonalization with overlap
     ethr =  2.05E-07,  avg # of iterations =  5.5

     negative rho (up, down):  1.666E-03 0.000E+00

     total cpu time spent up to now is     1792.8 secs

     total energy              =    -625.65867594 Ry
     Harris-Foulkes estimate   =    -625.65874860 Ry
     estimated scf accuracy    <       0.00011094 Ry

     iteration #  7     ecut=    70.00 Ry     beta= 0.70
     Davidson diagonalization with overlap
     ethr =  5.49E-08,  avg # of iterations =  2.0

     negative rho (up, down):  1.676E-03 0.000E+00

     total cpu time spent up to now is     2024.8 secs

     total energy              =    -625.65869819 Ry
     Harris-Foulkes estimate   =    -625.65870006 Ry
     estimated scf accuracy    <       0.00000122 Ry

     iteration #  8     ecut=    70.00 Ry     beta= 0.70
     Davidson diagonalization with overlap
     ethr =  6.04E-10,  avg # of iterations =  3.0

     negative rho (up, down):  1.685E-03 0.000E+00

     total cpu time spent up to now is     2291.4 secs

     End of self-consistent calculation

          k = 0.0000 0.0000 0.0000 (131685 PWs)   bands (ev):

   -21.1893 -20.2535 -20.2525 -20.2525 -20.2524 -20.2523 -20.2523 -18.4176
   -18.4174 -18.4173 -18.4170 -18.4169 -18.4168 -17.5248 -17.5247 -17.5246
   -17.5245 -17.5244 -17.5243 -15.3802 -15.3802 -15.3800 -15.3799 -15.3797
   -15.3796 -14.3721 -14.3720 -14.3720 -14.3717 -14.3717 -14.3717 -13.0312
   -13.0312 -13.0311 -13.0311 -13.0310 -13.0310 -10.6708 -10.6707 -10.6706
   -10.6706 -10.6704 -10.6704 -10.5485 -10.5485 -10.5483 -10.5482 -10.5481
   -10.5481  -9.3220  -9.1758  -9.1757  -9.1755  -9.1755  -9.1754  -9.1754
    -8.2054  -8.2040  -8.2039  -8.2036  -8.2035  -8.2035  -7.9284  -7.9283
    -7.9283  -7.9280  -7.9280  -7.9279  -7.8830  -7.8762  -7.8761  -7.8759
    -7.8759  -7.8759  -7.8758  -6.2816  -6.2816  -6.2813  -6.2812  -6.2812
    -6.2811  -6.0732  -6.0729  -6.0728  -6.0725  -6.0724  -6.0723  -5.1750
    -5.1749  -5.1746  -5.1746  -5.1744  -5.1743  -4.8098  -4.8098  -3.1897
    -3.1895  -3.1894  -3.1892  -3.1889  -3.1887  -0.3944  -0.3943  -0.3942
    -0.3940  -0.3938  -0.3937   1.3024   1.4617   1.4618   1.4619   1.4622
     1.4623   1.4623   2.1733   2.4709   2.5382   2.5391   2.5964   2.5998
     2.6389

          k = 0.0000-0.5774 0.0000 (131762 PWs)   bands (ev):

   -20.9544 -20.9540 -20.4860 -20.4856 -19.5579 -19.5576 -19.5575 -19.5572
   -19.0978 -19.0977 -18.1915 -18.1915 -18.1911 -18.1911 -16.8743 -16.8742
   -16.8739 -16.8739 -16.4686 -16.4686 -16.4684 -16.4684 -15.9842 -15.2573
   -15.2573 -14.9170 -14.0524 -14.0524 -14.0522 -14.0521 -13.5810 -13.5810
   -12.6473 -12.6471 -12.6469 -12.6468 -11.8505 -11.8505 -11.6912 -11.6912
   -11.6911 -11.6911 -10.4719 -10.4719 -10.2434 -10.2430 -10.2429 -10.2428
    -9.2000  -9.2000  -9.1999  -9.1999  -9.0400  -9.0393  -8.8278  -8.8277
    -8.8275  -8.8274  -8.4805  -8.4800  -8.3529  -8.3528  -8.3525  -8.3525
    -8.1601  -7.8831  -7.4403  -7.4403  -7.4401  -7.4401  -7.3870  -7.3867
    -7.3866  -7.3863  -7.2630  -7.2628  -7.0559  -7.0556  -6.8612  -6.8610
    -6.2089  -6.2086  -5.8405  -5.8405  -5.8398  -5.8398  -5.7165  -5.7162
    -5.2765  -5.2763  -4.3992  -4.3989  -4.3987  -4.3986  -4.1953  -4.1952
    -4.1947  -4.1947  -4.0485  -2.7133  -2.7133  -0.6769  -0.6768  -0.0241
     0.3613   0.3614   0.3619   0.3620   1.0095   1.0099   1.0100   1.0101
     1.6110   1.6257   2.2390   2.2476   2.4319   2.5424   2.6283   2.6287
     2.6287

          k = 0.5000-0.2887 0.0000 (131762 PWs)   bands (ev):

   -20.9544 -20.9540 -20.4860 -20.4856 -19.5579 -19.5576 -19.5575 -19.5573
   -19.0978 -19.0977 -18.1915 -18.1915 -18.1911 -18.1911 -16.8743 -16.8742
   -16.8739 -16.8739 -16.4686 -16.4686 -16.4684 -16.4684 -15.9842 -15.2573
   -15.2573 -14.9170 -14.0524 -14.0524 -14.0522 -14.0521 -13.5810 -13.5810
   -12.6473 -12.6471 -12.6469 -12.6468 -11.8505 -11.8505 -11.6912 -11.6912
   -11.6911 -11.6911 -10.4719 -10.4719 -10.2434 -10.2430 -10.2429 -10.2429
    -9.2000  -9.2000  -9.1999  -9.1999  -9.0400  -9.0393  -8.8278  -8.8277
    -8.8274  -8.8274  -8.4805  -8.4800  -8.3529  -8.3529  -8.3525  -8.3525
    -8.1601  -7.8831  -7.4403  -7.4403  -7.4401  -7.4401  -7.3870  -7.3867
    -7.3866  -7.3863  -7.2630  -7.2628  -7.0559  -7.0556  -6.8612  -6.8610
    -6.2089  -6.2086  -5.8405  -5.8405  -5.8398  -5.8398  -5.7164  -5.7162
    -5.2765  -5.2763  -4.3992  -4.3988  -4.3987  -4.3986  -4.1953  -4.1952
    -4.1947  -4.1947  -4.0485  -2.7133  -2.7133  -0.6769  -0.6768  -0.0241
     0.3613   0.3614   0.3619   0.3620   1.0095   1.0099   1.0100   1.0101
     1.6110   1.6257   2.2390   2.2476   2.4319   2.5424   2.6283   2.6287
     2.6287

          k =-0.5000-0.2887 0.0000 (131762 PWs)   bands (ev):

   -20.9544 -20.9539 -20.4860 -20.4856 -19.5578 -19.5576 -19.5575 -19.5573
   -19.0977 -19.0977 -18.1916 -18.1915 -18.1911 -18.1910 -16.8743 -16.8742
   -16.8739 -16.8739 -16.4686 -16.4686 -16.4684 -16.4684 -15.9842 -15.2573
   -15.2573 -14.9170 -14.0525 -14.0523 -14.0523 -14.0521 -13.5811 -13.5810
   -12.6473 -12.6471 -12.6469 -12.6468 -11.8505 -11.8505 -11.6913 -11.6912
   -11.6911 -11.6910 -10.4719 -10.4719 -10.2434 -10.2431 -10.2429 -10.2428
    -9.2000  -9.2000  -9.1999  -9.1999  -9.0401  -9.0393  -8.8278  -8.8277
    -8.8275  -8.8274  -8.4805  -8.4800  -8.3530  -8.3527  -8.3526  -8.3524
    -8.1601  -7.8831  -7.4403  -7.4403  -7.4401  -7.4401  -7.3870  -7.3867
    -7.3866  -7.3863  -7.2630  -7.2628  -7.0559  -7.0556  -6.8611  -6.8611
    -6.2089  -6.2086  -5.8407  -5.8404  -5.8399  -5.8397  -5.7165  -5.7161
    -5.2766  -5.2762  -4.3993  -4.3988  -4.3987  -4.3985  -4.1953  -4.1952
    -4.1947  -4.1947  -4.0485  -2.7133  -2.7132  -0.6769  -0.6769  -0.0241
     0.3613   0.3614   0.3619   0.3620   1.0094   1.0099   1.0099   1.0102
     1.6108   1.6259   2.2392   2.2474   2.4318   2.5427   2.6282   2.6286
     2.6289

     the Fermi energy is    -1.8119 ev

!    total energy              =    -625.65869753 Ry
     Harris-Foulkes estimate   =    -625.65869877 Ry
     estimated scf accuracy    <       0.00000034 Ry

     The total energy is the sum of the following terms:

     one-electron contribution =   -3895.32371327 Ry
     hartree contribution      =    1984.57859846 Ry
     xc contribution           =    -235.29647179 Ry
     ewald contribution        =    1520.38288907 Ry
     smearing contrib. (-TS)   =       0.00000000 Ry

     convergence has been achieved in   8 iterations

     Writing output data file gr-12.save/

     init_run     :    157.71s CPU    159.21s WALL (       1 calls)
     electrons    :   2114.78s CPU   2131.89s WALL (       1 calls)

     Called by init_run:
     wfcinit      :    114.70s CPU    115.32s WALL (       1 calls)
     potinit      :     21.41s CPU     21.96s WALL (       1 calls)
     hinit0       :     16.29s CPU     16.33s WALL (       1 calls)

     Called by electrons:
     c_bands      :   1776.83s CPU   1785.30s WALL (       8 calls)
     sum_band     :    223.74s CPU    226.66s WALL (       8 calls)
     v_of_rho     :     83.72s CPU     88.24s WALL (       9 calls)
     newd         :     40.89s CPU     42.78s WALL (       9 calls)
     mix_rho      :      1.96s CPU      1.99s WALL (       8 calls)

     Called by c_bands:
     init_us_2    :      4.06s CPU      4.10s WALL (      68 calls)
     cegterg      :   1766.48s CPU   1774.93s WALL (      32 calls)

     Called by sum_band:
     sum_band:bec :      0.02s CPU      0.02s WALL (      32 calls)
     addusdens    :     53.80s CPU     55.79s WALL (       8 calls)

     Called by *egterg:
     h_psi        :    958.67s CPU    965.14s WALL (     276 calls)
     s_psi        :    297.72s CPU    297.66s WALL (     276 calls)
     g_psi        :      1.32s CPU      1.33s WALL (     240 calls)
     cdiaghg      :     24.65s CPU     24.64s WALL (     272 calls)

     Called by h_psi:
     h_psi:pot    :    957.51s CPU    962.85s WALL (     276 calls)
     h_psi:calbec :    300.89s CPU    300.84s WALL (     276 calls)
     vloc_psi     :    358.05s CPU    363.53s WALL (     276 calls)
     add_vuspsi   :    298.57s CPU    298.47s WALL (     276 calls)

     General routines
     calbec       :    399.25s CPU    399.20s WALL (     308 calls)
     fft          :     47.63s CPU     49.24s WALL (     565 calls)
     ffts         :      0.51s CPU      0.52s WALL (      17 calls)
     fftw         :    359.51s CPU    365.03s WALL (   27464 calls)
     interpolate  :      1.19s CPU      1.21s WALL (       9 calls)

     Parallel routines
     fft_scatt_xy :     88.12s CPU     88.49s WALL (   28046 calls)
     fft_scatt_yz :    117.55s CPU    122.84s WALL (   28046 calls)

     PWSCF        :  37m53.35s CPU  38m12.71s WALL


   This run was terminated on:  21: 8: 4  18Jun2022            

=------------------------------------------------------------------------------=
   JOB DONE.
=------------------------------------------------------------------------------=
