
     Program PWSCF v.6.4.1 starts on 19Jun2022 at  1:50:27 

     This program is part of the open-source Quantum ESPRESSO suite
     for quantum simulation of materials; please cite
         "P. Giannozzi et al., J. Phys.:Condens. Matter 21 395502 (2009);
         "P. Giannozzi et al., J. Phys.:Condens. Matter 29 465901 (2017);
          URL http://www.quantum-espresso.org", 
     in publications or presentations arising from this work. More details at
     http://www.quantum-espresso.org/quote

     Parallel version (MPI), running on     5 processors

     MPI processes distributed on     1 nodes
     R & G space division:  proc/nbgrp/npool/nimage =       5
     Reading input from distance-2.2.in

     Current dimensions of program PWSCF are:
     Max number of different atomic species (ntypx) = 10
     Max number of k-points (npk) =  40000
     Max angular momentum in pseudopotentials (lmaxx) =  3

     IMPORTANT: XC functional enforced from input :
     Exchange-correlation      = RVV10 ( 1  4 13  4 3 0)
     Any further DFT definition will be discarded
     Please, verify this is what you really want

               file H.pbe-rrkjus.UPF: wavefunction(s)  1S renormalized
               file H.pbe-rrkjus.UPF: wavefunction(s)  1S renormalized

     Subspace diagonalization in iterative solution of the eigenvalue problem:
     a serial algorithm will be used


     Parallelization info
     --------------------
     sticks:   dense  smooth     PW     G-vecs:    dense   smooth      PW
     Min        3662    2095    542               487826   210779   27834
     Max        3663    2096    543               487829   210784   27841
     Sum       18313   10477   2713              2439139  1053907  139193



     bravais-lattice index     =            4
     lattice parameter (alat)  =      23.2937  a.u.
     unit-cell volume          =   13319.7822 (a.u.)^3
     number of atoms/cell      =           52
     number of atomic types    =            3
     number of electrons       =       202.00
     number of Kohn-Sham states=          121
     kinetic-energy cutoff     =      70.0000  Ry
     charge density cutoff     =     490.0000  Ry
     convergence threshold     =      1.0E-06
     mixing beta               =       0.7000
     number of iterations used =            8  plain     mixing
     Exchange-correlation      = RVV10 ( 1  4 13  4 3 0)

     celldm(1)=  23.293684  celldm(2)=   0.000000  celldm(3)=   1.216892
     celldm(4)=   0.000000  celldm(5)=   0.000000  celldm(6)=   0.000000

     crystal axes: (cart. coord. in units of alat)
               a(1) = (   1.000000   0.000000   0.000000 )  
               a(2) = (  -0.500000   0.866025   0.000000 )  
               a(3) = (   0.000000   0.000000   1.216892 )  

     reciprocal axes: (cart. coord. in units 2 pi/alat)
               b(1) = (  1.000000  0.577350 -0.000000 )  
               b(2) = (  0.000000  1.154701  0.000000 )  
               b(3) = (  0.000000 -0.000000  0.821766 )  


     PseudoPot. # 1 for H  read from file:
     /home/cristian/Escritorio/Proyecto_Grafeno/pseudopotenciales/H.pbe-rrkjus.UPF
     MD5 check sum: 7cc9d459525c9a0585f487a71c3c9563
     Pseudo is Ultrasoft, Zval =  1.0
     Generated by new atomic code, or converted to UPF format
     Using radial grid of 1061 points,  2 beta functions with: 
                l(1) =   0
                l(2) =   0
     Q(r) pseudized with 0 coefficients 


     PseudoPot. # 2 for H  read from file:
     /home/cristian/Escritorio/Proyecto_Grafeno/pseudopotenciales/H.pbe-rrkjus.UPF
     MD5 check sum: 7cc9d459525c9a0585f487a71c3c9563
     Pseudo is Ultrasoft, Zval =  1.0
     Generated by new atomic code, or converted to UPF format
     Using radial grid of 1061 points,  2 beta functions with: 
                l(1) =   0
                l(2) =   0
     Q(r) pseudized with 0 coefficients 


     PseudoPot. # 3 for C  read from file:
     /home/cristian/Escritorio/Proyecto_Grafeno/pseudopotenciales/C.pbe-n-rrkjus_psl.1.0.0.UPF
     MD5 check sum: 1fdd950c42eb37d8afe3dd2f8d12311e
     Pseudo is Ultrasoft + core correction, Zval =  4.0
     Generated using "atomic" code by A. Dal Corso v.6.3MaX
     Using radial grid of 1073 points,  4 beta functions with: 
                l(1) =   0
                l(2) =   0
                l(3) =   1
                l(4) =   1
     Q(r) pseudized with 0 coefficients 


     vdW kernel table read from file rVV10_kernel_table
     MD5 check sum: b8e2538accc0c0b3206b45ba4daaba6c

     atomic species   valence    mass     pseudopotential
        H1             1.00     1.00794     H ( 1.00)
        H2             1.00     1.00794     H ( 1.00)
        C              4.00    12.01070     C ( 1.00)

     No symmetry found



   Cartesian axes

     site n.     atom                  positions (alat units)
         1           H1  tau(   1) = (   0.2500000   0.4907477   0.1784775  )
         2           H2  tau(   2) = (   0.2500000   0.4907477   0.2394901  )
         3           C   tau(   3) = (   0.0000000   0.0000000   0.0000000  )
         4           C   tau(   4) = (   0.0000000   0.1154701   0.0000000  )
         5           C   tau(   5) = (  -0.1000000   0.1732051   0.0000000  )
         6           C   tau(   6) = (  -0.1000000   0.2886751   0.0000000  )
         7           C   tau(   7) = (  -0.2000000   0.3464102   0.0000000  )
         8           C   tau(   8) = (  -0.2000000   0.4618802   0.0000000  )
         9           C   tau(   9) = (  -0.3000000   0.5196152   0.0000000  )
        10           C   tau(  10) = (  -0.3000000   0.6350853   0.0000000  )
        11           C   tau(  11) = (  -0.4000000   0.6928203   0.0000000  )
        12           C   tau(  12) = (  -0.4000000   0.8082904   0.0000000  )
        13           C   tau(  13) = (   0.2000000   0.0000000   0.0000000  )
        14           C   tau(  14) = (   0.2000000   0.1154701   0.0000000  )
        15           C   tau(  15) = (   0.1000000   0.1732051   0.0000000  )
        16           C   tau(  16) = (   0.1000000   0.2886751   0.0000000  )
        17           C   tau(  17) = (   0.0000000   0.3464102   0.0000000  )
        18           C   tau(  18) = (   0.0000000   0.4618802   0.0000000  )
        19           C   tau(  19) = (  -0.1000000   0.5196152   0.0000000  )
        20           C   tau(  20) = (  -0.1000000   0.6350853   0.0000000  )
        21           C   tau(  21) = (  -0.2000000   0.6928203   0.0000000  )
        22           C   tau(  22) = (  -0.2000000   0.8082904   0.0000000  )
        23           C   tau(  23) = (   0.4000000   0.0000000   0.0000000  )
        24           C   tau(  24) = (   0.4000000   0.1154701   0.0000000  )
        25           C   tau(  25) = (   0.3000000   0.1732051   0.0000000  )
        26           C   tau(  26) = (   0.3000000   0.2886751   0.0000000  )
        27           C   tau(  27) = (   0.2000000   0.3464102   0.0000000  )
        28           C   tau(  28) = (   0.2000000   0.4618802   0.0000000  )
        29           C   tau(  29) = (   0.1000000   0.5196152   0.0000000  )
        30           C   tau(  30) = (   0.1000000   0.6350853   0.0000000  )
        31           C   tau(  31) = (   0.0000000   0.6928203   0.0000000  )
        32           C   tau(  32) = (   0.0000000   0.8082904   0.0000000  )
        33           C   tau(  33) = (   0.6000000   0.0000000   0.0000000  )
        34           C   tau(  34) = (   0.6000000   0.1154701   0.0000000  )
        35           C   tau(  35) = (   0.5000000   0.1732051   0.0000000  )
        36           C   tau(  36) = (   0.5000000   0.2886751   0.0000000  )
        37           C   tau(  37) = (   0.4000000   0.3464102   0.0000000  )
        38           C   tau(  38) = (   0.4000000   0.4618802   0.0000000  )
        39           C   tau(  39) = (   0.3000000   0.5196152   0.0000000  )
        40           C   tau(  40) = (   0.3000000   0.6350853   0.0000000  )
        41           C   tau(  41) = (   0.2000000   0.6928203   0.0000000  )
        42           C   tau(  42) = (   0.2000000   0.8082904   0.0000000  )
        43           C   tau(  43) = (   0.8000000   0.0000000   0.0000000  )
        44           C   tau(  44) = (   0.8000000   0.1154701   0.0000000  )
        45           C   tau(  45) = (   0.7000000   0.1732051   0.0000000  )
        46           C   tau(  46) = (   0.7000000   0.2886751   0.0000000  )
        47           C   tau(  47) = (   0.6000000   0.3464102   0.0000000  )
        48           C   tau(  48) = (   0.6000000   0.4618802   0.0000000  )
        49           C   tau(  49) = (   0.5000000   0.5196152   0.0000000  )
        50           C   tau(  50) = (   0.5000000   0.6350853   0.0000000  )
        51           C   tau(  51) = (   0.4000000   0.6928203   0.0000000  )
        52           C   tau(  52) = (   0.4000000   0.8082904   0.0000000  )

     number of k points=     4  Marzari-Vanderbilt smearing, width (Ry)=  0.0010
                       cart. coord. in units 2pi/alat
        k(    1) = (   0.0000000   0.0000000   0.0000000), wk =   0.5000000
        k(    2) = (   0.0000000  -0.5773503   0.0000000), wk =   0.5000000
        k(    3) = (   0.5000000  -0.2886751   0.0000000), wk =   0.5000000
        k(    4) = (  -0.5000000  -0.2886751   0.0000000), wk =   0.5000000

     Dense  grid:  2439139 G-vectors     FFT dimensions: ( 180, 180, 200)

     Smooth grid:  1053907 G-vectors     FFT dimensions: ( 125, 125, 160)

     Estimated max dynamical RAM per process >       1.39 GB

     Estimated total dynamical RAM >       6.95 GB

     Check: negative core charge=   -0.000001

     Initial potential from superposition of free atoms

     starting charge  201.80551, renormalised to  202.00000

     negative rho (up, down):  1.060E-03 0.000E+00


---------------------------------------------------------------------------------
Carrying out rVV10 run using the following parameters:
Nqs =      20    Nr_points =    1024   r_max =   100.000
b_value =  6.30000    beta =  0.00901
     q_mesh =  0.00010000  0.00030000  0.00058939  0.00100810
               0.00161396  0.00249058  0.00375900  0.00559430
               0.00824984  0.01209221  0.01765183  0.02569619
               0.03733578  0.05417739  0.07854596  0.11380545
               0.16482331  0.23864234  0.34545298  0.50000000

Gradients computed in Reciprocal space

---------------------------------------------------------------------------------


     Starting wfcs are  202 randomized atomic wfcs

     total cpu time spent up to now is      163.5 secs

     Self-consistent Calculation

     iteration #  1     ecut=    70.00 Ry     beta= 0.70
     Davidson diagonalization with overlap
     ethr =  1.00E-02,  avg # of iterations =  2.0

     negative rho (up, down):  1.169E-03 0.000E+00

     total cpu time spent up to now is      450.7 secs

     total energy              =    -624.63824299 Ry
     Harris-Foulkes estimate   =    -628.29150862 Ry
     estimated scf accuracy    <       6.00929821 Ry

     iteration #  2     ecut=    70.00 Ry     beta= 0.70
     Davidson diagonalization with overlap
     ethr =  2.97E-03,  avg # of iterations =  7.5

     negative rho (up, down):  1.355E-03 0.000E+00

     total cpu time spent up to now is      724.0 secs

     total energy              =    -625.22716058 Ry
     Harris-Foulkes estimate   =    -625.82345748 Ry
     estimated scf accuracy    <       0.82796873 Ry

     iteration #  3     ecut=    70.00 Ry     beta= 0.70
     Davidson diagonalization with overlap
     ethr =  4.10E-04,  avg # of iterations =  9.8

     negative rho (up, down):  1.424E-03 0.000E+00

     total cpu time spent up to now is     1042.3 secs

     total energy              =    -625.22520064 Ry
     Harris-Foulkes estimate   =    -626.09480373 Ry
     estimated scf accuracy    <       2.35640312 Ry

     iteration #  4     ecut=    70.00 Ry     beta= 0.70
     Davidson diagonalization with overlap
     ethr =  4.10E-04,  avg # of iterations =  5.2

     negative rho (up, down):  1.504E-03 0.000E+00

     total cpu time spent up to now is     1294.6 secs

     total energy              =    -625.64565356 Ry
     Harris-Foulkes estimate   =    -625.66209497 Ry
     estimated scf accuracy    <       0.03604544 Ry

     iteration #  5     ecut=    70.00 Ry     beta= 0.70
     Davidson diagonalization with overlap
     ethr =  1.78E-05,  avg # of iterations =  8.5

     negative rho (up, down):  1.685E-03 0.000E+00

     total cpu time spent up to now is     1581.7 secs

     total energy              =    -625.65404478 Ry
     Harris-Foulkes estimate   =    -625.65890499 Ry
     estimated scf accuracy    <       0.01092163 Ry

     iteration #  6     ecut=    70.00 Ry     beta= 0.70
     Davidson diagonalization with overlap
     ethr =  5.41E-06,  avg # of iterations =  5.8

     negative rho (up, down):  1.844E-03 0.000E+00

     total cpu time spent up to now is     1830.9 secs

     total energy              =    -625.65619869 Ry
     Harris-Foulkes estimate   =    -625.65649470 Ry
     estimated scf accuracy    <       0.00052431 Ry

     iteration #  7     ecut=    70.00 Ry     beta= 0.70
     Davidson diagonalization with overlap
     ethr =  2.60E-07,  avg # of iterations =  7.0

     negative rho (up, down):  1.903E-03 0.000E+00

     total cpu time spent up to now is     2090.0 secs

     total energy              =    -625.65633390 Ry
     Harris-Foulkes estimate   =    -625.65636683 Ry
     estimated scf accuracy    <       0.00005031 Ry

     iteration #  8     ecut=    70.00 Ry     beta= 0.70
     Davidson diagonalization with overlap
     ethr =  2.49E-08,  avg # of iterations =  2.0

     negative rho (up, down):  1.913E-03 0.000E+00

     total cpu time spent up to now is     2331.6 secs

     total energy              =    -625.65634578 Ry
     Harris-Foulkes estimate   =    -625.65634936 Ry
     estimated scf accuracy    <       0.00000439 Ry

     iteration #  9     ecut=    70.00 Ry     beta= 0.70
     Davidson diagonalization with overlap
     ethr =  2.17E-09,  avg # of iterations =  2.2

     negative rho (up, down):  1.915E-03 0.000E+00

     total cpu time spent up to now is     2582.0 secs

     End of self-consistent calculation

          k = 0.0000 0.0000 0.0000 (131685 PWs)   bands (ev):

   -21.2065 -20.2792 -20.2695 -20.2681 -20.2678 -20.2670 -20.2669 -18.4407
   -18.4340 -18.4335 -18.4326 -18.4326 -18.4323 -17.5475 -17.5415 -17.5412
   -17.5401 -17.5397 -17.5397 -15.4030 -15.3973 -15.3960 -15.3958 -15.3949
   -15.3947 -14.3915 -14.3896 -14.3888 -14.3876 -14.3875 -14.3873 -13.0510
   -13.0483 -13.0478 -13.0473 -13.0469 -13.0467 -10.6909 -10.6877 -10.6873
   -10.6870 -10.6860 -10.6859 -10.5675 -10.5661 -10.5645 -10.5641 -10.5640
   -10.5638  -9.3875  -9.1943  -9.1930  -9.1920  -9.1915  -9.1915  -9.1914
    -8.5949  -8.2201  -8.2193  -8.2182  -8.2175  -8.2173  -7.9470  -7.9462
    -7.9448  -7.9439  -7.9436  -7.9429  -7.8954  -7.8929  -7.8926  -7.8918
    -7.8917  -7.8916  -7.5185  -6.2992  -6.2982  -6.2980  -6.2977  -6.2969
    -6.2966  -6.0927  -6.0901  -6.0870  -6.0867  -6.0863  -6.0086  -5.1963
    -5.1915  -5.1889  -5.1888  -5.1884  -5.1548  -4.8264  -4.8261  -3.2126
    -3.2081  -3.2049  -3.2041  -3.2033  -3.2030  -0.4227  -0.4205  -0.4140
    -0.4095  -0.4086  -0.4081   1.3606   1.4299   1.4349   1.4363   1.4470
     1.4479   1.4480   2.2271   2.5003   2.5025   2.5906   2.5930   2.6405
     2.8713

          k = 0.0000-0.5774 0.0000 (131762 PWs)   bands (ev):

   -20.9733 -20.9695 -20.5048 -20.5012 -19.5793 -19.5737 -19.5732 -19.5728
   -19.1159 -19.1138 -18.2118 -18.2082 -18.2067 -18.2067 -16.8949 -16.8907
   -16.8895 -16.8895 -16.4883 -16.4854 -16.4843 -16.4839 -16.0016 -15.2746
   -15.2738 -14.9335 -14.0715 -14.0698 -14.0680 -14.0676 -13.5993 -13.5972
   -12.6650 -12.6647 -12.6629 -12.6626 -11.8673 -11.8668 -11.7102 -11.7081
   -11.7071 -11.7071 -10.4889 -10.4885 -10.2625 -10.2598 -10.2587 -10.2586
    -9.2219  -9.2163  -9.2162  -9.2161  -9.1661  -9.0540  -8.8463  -8.8449
    -8.8433  -8.8425  -8.6147  -8.4950  -8.3698  -8.3697  -8.3687  -8.3686
    -8.1770  -7.9396  -7.4571  -7.4569  -7.4563  -7.4561  -7.4031  -7.4023
    -7.4004  -7.2803  -7.2789  -7.2035  -7.0721  -7.0719  -6.8772  -6.7921
    -6.2255  -6.2248  -5.8610  -5.8547  -5.8544  -5.8113  -5.7332  -5.7322
    -5.2936  -5.2922  -4.4171  -4.4139  -4.4133  -4.4041  -4.2164  -4.2103
    -4.2094  -4.2044  -4.0620  -2.7324  -2.7293  -0.6986  -0.6943  -0.0449
     0.3318   0.3352   0.3472   0.3477   0.9826   0.9892   0.9944   0.9951
     1.6144   1.7267   2.2251   2.3425   2.5227   2.5416   2.6037   2.6129
     2.6129

          k = 0.5000-0.2887 0.0000 (131762 PWs)   bands (ev):

   -20.9735 -20.9694 -20.5048 -20.5012 -19.5793 -19.5737 -19.5731 -19.5728
   -19.1159 -19.1138 -18.2120 -18.2084 -18.2066 -18.2065 -16.8950 -16.8907
   -16.8895 -16.8895 -16.4883 -16.4853 -16.4844 -16.4839 -16.0016 -15.2746
   -15.2738 -14.9335 -14.0714 -14.0699 -14.0681 -14.0676 -13.5993 -13.5972
   -12.6649 -12.6647 -12.6629 -12.6625 -11.8673 -11.8668 -11.7103 -11.7082
   -11.7070 -11.7070 -10.4889 -10.4885 -10.2627 -10.2600 -10.2586 -10.2584
    -9.2219  -9.2163  -9.2162  -9.2161  -9.1662  -9.0538  -8.8464  -8.8447
    -8.8434  -8.8425  -8.6148  -8.4950  -8.3698  -8.3698  -8.3687  -8.3686
    -8.1770  -7.9395  -7.4571  -7.4569  -7.4563  -7.4561  -7.4031  -7.4023
    -7.4004  -7.2803  -7.2789  -7.2036  -7.0721  -7.0719  -6.8772  -6.7921
    -6.2255  -6.2248  -5.8611  -5.8546  -5.8543  -5.8115  -5.7333  -5.7320
    -5.2937  -5.2920  -4.4170  -4.4139  -4.4132  -4.4042  -4.2162  -4.2104
    -4.2094  -4.2045  -4.0620  -2.7324  -2.7294  -0.6986  -0.6943  -0.0449
     0.3319   0.3352   0.3470   0.3477   0.9825   0.9892   0.9944   0.9952
     1.6145   1.7266   2.2251   2.3426   2.5230   2.5417   2.6036   2.6130
     2.6151

          k =-0.5000-0.2887 0.0000 (131762 PWs)   bands (ev):

   -20.9742 -20.9686 -20.5045 -20.5015 -19.5792 -19.5739 -19.5731 -19.5726
   -19.1160 -19.1136 -18.2135 -18.2087 -18.2057 -18.2057 -16.8931 -16.8914
   -16.8900 -16.8897 -16.4895 -16.4845 -16.4844 -16.4841 -16.0007 -15.2759
   -15.2733 -14.9347 -14.0702 -14.0701 -14.0683 -14.0675 -13.5977 -13.5972
   -12.6679 -12.6634 -12.6633 -12.6624 -11.8680 -11.8670 -11.7081 -11.7080
   -11.7079 -11.7071 -10.4899 -10.4881 -10.2619 -10.2606 -10.2578 -10.2577
    -9.2237  -9.2169  -9.2160  -9.2158  -9.1652  -9.0532  -8.8466  -8.8441
    -8.8435  -8.8432  -8.6175  -8.4950  -8.3723  -8.3692  -8.3686  -8.3679
    -8.1766  -7.9338  -7.4572  -7.4565  -7.4564  -7.4564  -7.4031  -7.4024
    -7.4004  -7.2800  -7.2786  -7.2008  -7.0722  -7.0719  -6.8785  -6.8018
    -6.2255  -6.2250  -5.8585  -5.8538  -5.8537  -5.8063  -5.7345  -5.7312
    -5.2939  -5.2915  -4.4238  -4.4139  -4.4132  -4.4048  -4.2110  -4.2101
    -4.2098  -4.2023  -4.0668  -2.7317  -2.7288  -0.6979  -0.6925  -0.0462
     0.3362   0.3368   0.3438   0.3476   0.9703   0.9913   0.9945   0.9956
     1.6150   1.7267   2.2242   2.3429   2.5418   2.5737   2.6024   2.6089
     2.6115

     the Fermi energy is    -1.6263 ev

!    total energy              =    -625.65634640 Ry
     Harris-Foulkes estimate   =    -625.65634718 Ry
     estimated scf accuracy    <       0.00000068 Ry

     The total energy is the sum of the following terms:

     one-electron contribution =   -3948.26640708 Ry
     hartree contribution      =    2010.95014481 Ry
     xc contribution           =    -235.32316636 Ry
     ewald contribution        =    1546.98308223 Ry
     smearing contrib. (-TS)   =       0.00000000 Ry

     convergence has been achieved in   9 iterations

     Writing output data file gr-12.save/

     init_run     :    161.47s CPU    163.03s WALL (       1 calls)
     electrons    :   2399.07s CPU   2418.62s WALL (       1 calls)

     Called by init_run:
     wfcinit      :    117.68s CPU    118.42s WALL (       1 calls)
     potinit      :     21.99s CPU     22.50s WALL (       1 calls)
     hinit0       :     16.34s CPU     16.38s WALL (       1 calls)

     Called by electrons:
     c_bands      :   2009.40s CPU   2019.11s WALL (       9 calls)
     sum_band     :    258.63s CPU    261.80s WALL (       9 calls)
     v_of_rho     :     94.68s CPU     99.58s WALL (      10 calls)
     newd         :     46.62s CPU     49.00s WALL (      10 calls)
     mix_rho      :      2.19s CPU      2.25s WALL (       9 calls)

     Called by c_bands:
     init_us_2    :      4.86s CPU      4.89s WALL (      76 calls)
     cegterg      :   1997.20s CPU   2006.88s WALL (      36 calls)

     Called by sum_band:
     sum_band:bec :      0.02s CPU      0.02s WALL (      36 calls)
     addusdens    :     64.45s CPU     66.58s WALL (       9 calls)

     Called by *egterg:
     h_psi        :   1083.93s CPU   1091.33s WALL (     240 calls)
     s_psi        :    337.99s CPU    337.96s WALL (     240 calls)
     g_psi        :      1.48s CPU      1.48s WALL (     200 calls)
     cdiaghg      :     20.61s CPU     20.60s WALL (     236 calls)

     Called by h_psi:
     h_psi:pot    :   1082.66s CPU   1088.76s WALL (     240 calls)
     h_psi:calbec :    340.29s CPU    340.29s WALL (     240 calls)
     vloc_psi     :    404.17s CPU    410.33s WALL (     240 calls)
     add_vuspsi   :    338.20s CPU    338.14s WALL (     240 calls)

     General routines
     calbec       :    453.89s CPU    453.89s WALL (     276 calls)
     fft          :     51.67s CPU     53.43s WALL (     628 calls)
     ffts         :      0.58s CPU      0.59s WALL (      19 calls)
     fftw         :    407.83s CPU    414.02s WALL (   30368 calls)
     interpolate  :      1.30s CPU      1.33s WALL (      10 calls)

     Parallel routines
     fft_scatt_xy :    103.65s CPU    104.05s WALL (   31015 calls)
     fft_scatt_yz :    126.52s CPU    132.41s WALL (   31015 calls)

     PWSCF        :  42m41.43s CPU  43m 3.33s WALL


   This run was terminated on:   2:33:30  19Jun2022            

=------------------------------------------------------------------------------=
   JOB DONE.
=------------------------------------------------------------------------------=
