
     Program PWSCF v.6.4.1 starts on 21Jul2022 at 16:16: 7 

     This program is part of the open-source Quantum ESPRESSO suite
     for quantum simulation of materials; please cite
         "P. Giannozzi et al., J. Phys.:Condens. Matter 21 395502 (2009);
         "P. Giannozzi et al., J. Phys.:Condens. Matter 29 465901 (2017);
          URL http://www.quantum-espresso.org", 
     in publications or presentations arising from this work. More details at
     http://www.quantum-espresso.org/quote

     Parallel version (MPI), running on     6 processors

     MPI processes distributed on     1 nodes
     R & G space division:  proc/nbgrp/npool/nimage =       6
     Reading input from distance-2.0.in

     Current dimensions of program PWSCF are:
     Max number of different atomic species (ntypx) = 10
     Max number of k-points (npk) =  40000
     Max angular momentum in pseudopotentials (lmaxx) =  3

     IMPORTANT: XC functional enforced from input :
     Exchange-correlation      = RVV10 ( 1  4 13  4 3 0)
     Any further DFT definition will be discarded
     Please, verify this is what you really want

               file H.pbe-rrkjus.UPF: wavefunction(s)  1S renormalized
               file Mn.pbe-spn-rrkjus_psl.0.3.1.UPF: wavefunction(s)  3D renormalized

     Subspace diagonalization in iterative solution of the eigenvalue problem:
     a serial algorithm will be used


     Parallelization info
     --------------------
     sticks:   dense  smooth     PW     G-vecs:    dense   smooth      PW
     Min        3051    1746    432               270999   117096   14629
     Max        3053    1747    437               271001   117099   14630
     Sum       18313   10477   2611              1626001   702581   87777



     bravais-lattice index     =            4
     lattice parameter (alat)  =      23.2937  a.u.
     unit-cell volume          =    8879.8548 (a.u.)^3
     number of atoms/cell      =           52
     number of atomic types    =            3
     number of electrons       =       213.00
     number of Kohn-Sham states=          128
     kinetic-energy cutoff     =      70.0000  Ry
     charge density cutoff     =     490.0000  Ry
     convergence threshold     =      1.0E-06
     mixing beta               =       0.7000
     number of iterations used =            8  plain     mixing
     Exchange-correlation      = RVV10 ( 1  4 13  4 3 0)

     celldm(1)=  23.293684  celldm(2)=   0.000000  celldm(3)=   0.811261
     celldm(4)=   0.000000  celldm(5)=   0.000000  celldm(6)=   0.000000

     crystal axes: (cart. coord. in units of alat)
               a(1) = (   1.000000   0.000000   0.000000 )  
               a(2) = (  -0.500000   0.866025   0.000000 )  
               a(3) = (   0.000000   0.000000   0.811261 )  

     reciprocal axes: (cart. coord. in units 2 pi/alat)
               b(1) = (  1.000000  0.577350 -0.000000 )  
               b(2) = (  0.000000  1.154701  0.000000 )  
               b(3) = (  0.000000 -0.000000  1.232649 )  


     PseudoPot. # 1 for H  read from file:
     /home/cristian/Escritorio/Proyecto_Grafeno/pseudopotenciales/H.pbe-rrkjus.UPF
     MD5 check sum: 7cc9d459525c9a0585f487a71c3c9563
     Pseudo is Ultrasoft, Zval =  1.0
     Generated by new atomic code, or converted to UPF format
     Using radial grid of 1061 points,  2 beta functions with: 
                l(1) =   0
                l(2) =   0
     Q(r) pseudized with 0 coefficients 


     PseudoPot. # 2 for C  read from file:
     /home/cristian/Escritorio/Proyecto_Grafeno/pseudopotenciales/C.pbe-n-rrkjus_psl.1.0.0.UPF
     MD5 check sum: 1fdd950c42eb37d8afe3dd2f8d12311e
     Pseudo is Ultrasoft + core correction, Zval =  4.0
     Generated using "atomic" code by A. Dal Corso v.6.3MaX
     Using radial grid of 1073 points,  4 beta functions with: 
                l(1) =   0
                l(2) =   0
                l(3) =   1
                l(4) =   1
     Q(r) pseudized with 0 coefficients 


     PseudoPot. # 3 for Mn read from file:
     /home/cristian/Escritorio/Proyecto_Grafeno/pseudopotenciales/Mn.pbe-spn-rrkjus_psl.0.3.1.UPF
     MD5 check sum: e1cac159bdd2ba70c18e85765a5d4279
     Pseudo is Ultrasoft + core correction, Zval = 15.0
     Generated using "atomic" code by A. Dal Corso v.6.2.2
     Using radial grid of 1187 points,  6 beta functions with: 
                l(1) =   0
                l(2) =   0
                l(3) =   1
                l(4) =   1
                l(5) =   2
                l(6) =   2
     Q(r) pseudized with 0 coefficients 


     vdW kernel table read from file rVV10_kernel_table
     MD5 check sum: b8e2538accc0c0b3206b45ba4daaba6c

     atomic species   valence    mass     pseudopotential
        H              1.00     1.00794     H ( 1.00)
        C              4.00    12.01070     C ( 1.00)
        Mn            15.00    54.93804     Mn( 1.00)

      2 Sym. Ops. (no inversion) found


                                    s                        frac. trans.

      isym =  1     identity                                     

 cryst.   s( 1) = (     1          0          0      )
                  (     0          1          0      )
                  (     0          0          1      )

 cart.    s( 1) = (  1.0000000  0.0000000  0.0000000 )
                  (  0.0000000  1.0000000  0.0000000 )
                  (  0.0000000  0.0000000  1.0000000 )


      isym =  2     inv. 180 deg rotation - cryst. axis [1,1,0]  

 cryst.   s( 2) = (     0         -1          0      )
                  (    -1          0          0      )
                  (     0          0          1      )

 cart.    s( 2) = (  0.5000000 -0.8660254  0.0000000 )
                  ( -0.8660254 -0.5000000  0.0000000 )
                  (  0.0000000  0.0000000  1.0000000 )


     point group C_s (m)    
     there are  2 classes
     the character table:

       E     s    
A'     1.00  1.00
A''    1.00 -1.00

     the symmetry operations in each class and the name of the first element:

     E        1
          identity                                               
     s        2
          inv. 180 deg rotation - cryst. axis [1,1,0]            

   Cartesian axes

     site n.     atom                  positions (alat units)
         1           H   tau(   1) = (   0.2000000   0.4618802   0.1622522  )
         2           H   tau(   2) = (   0.2000000   0.4618802   0.2232649  )
         3           C   tau(   3) = (   0.0000000   0.0000000   0.0000000  )
         4           C   tau(   4) = (   0.0000000   0.1154701   0.0000000  )
         5           C   tau(   5) = (  -0.1000000   0.1732051   0.0000000  )
         6           C   tau(   6) = (  -0.1000000   0.2886751   0.0000000  )
         7           C   tau(   7) = (  -0.2000000   0.3464102   0.0000000  )
         8           C   tau(   8) = (  -0.2000000   0.4618802   0.0000000  )
         9           C   tau(   9) = (  -0.3000000   0.5196152   0.0000000  )
        10           C   tau(  10) = (  -0.3000000   0.6350853   0.0000000  )
        11           C   tau(  11) = (  -0.4000000   0.6928203   0.0000000  )
        12           C   tau(  12) = (  -0.4000000   0.8082904   0.0000000  )
        13           C   tau(  13) = (   0.2000000   0.0000000   0.0000000  )
        14           C   tau(  14) = (   0.2000000   0.1154701   0.0000000  )
        15           C   tau(  15) = (   0.1000000   0.1732051   0.0000000  )
        16           C   tau(  16) = (   0.1000000   0.2886751   0.0000000  )
        17           C   tau(  17) = (   0.0000000   0.3464102   0.0000000  )
        18           C   tau(  18) = (   0.0000000   0.4618802   0.0000000  )
        19           C   tau(  19) = (  -0.1000000   0.5196152   0.0000000  )
        20           C   tau(  20) = (  -0.1000000   0.6350853   0.0000000  )
        21           C   tau(  21) = (  -0.2000000   0.6928203   0.0000000  )
        22           C   tau(  22) = (  -0.2000000   0.8082904   0.0000000  )
        23           C   tau(  23) = (   0.4000000   0.0000000   0.0000000  )
        24           C   tau(  24) = (   0.4000000   0.1154701   0.0000000  )
        25           C   tau(  25) = (   0.3000000   0.1732051   0.0000000  )
        26           C   tau(  26) = (   0.3000000   0.2886751   0.0000000  )
        27           C   tau(  27) = (   0.2000000   0.3464102   0.0000000  )
        28           Mn  tau(  28) = (   0.2000000   0.4618802   0.0000000  )
        29           C   tau(  29) = (   0.1000000   0.5196152   0.0000000  )
        30           C   tau(  30) = (   0.1000000   0.6350853   0.0000000  )
        31           C   tau(  31) = (   0.0000000   0.6928203   0.0000000  )
        32           C   tau(  32) = (   0.0000000   0.8082904   0.0000000  )
        33           C   tau(  33) = (   0.6000000   0.0000000   0.0000000  )
        34           C   tau(  34) = (   0.6000000   0.1154701   0.0000000  )
        35           C   tau(  35) = (   0.5000000   0.1732051   0.0000000  )
        36           C   tau(  36) = (   0.5000000   0.2886751   0.0000000  )
        37           C   tau(  37) = (   0.4000000   0.3464102   0.0000000  )
        38           C   tau(  38) = (   0.4000000   0.4618802   0.0000000  )
        39           C   tau(  39) = (   0.3000000   0.5196152   0.0000000  )
        40           C   tau(  40) = (   0.3000000   0.6350853   0.0000000  )
        41           C   tau(  41) = (   0.2000000   0.6928203   0.0000000  )
        42           C   tau(  42) = (   0.2000000   0.8082904   0.0000000  )
        43           C   tau(  43) = (   0.8000000   0.0000000   0.0000000  )
        44           C   tau(  44) = (   0.8000000   0.1154701   0.0000000  )
        45           C   tau(  45) = (   0.7000000   0.1732051   0.0000000  )
        46           C   tau(  46) = (   0.7000000   0.2886751   0.0000000  )
        47           C   tau(  47) = (   0.6000000   0.3464102   0.0000000  )
        48           C   tau(  48) = (   0.6000000   0.4618802   0.0000000  )
        49           C   tau(  49) = (   0.5000000   0.5196152   0.0000000  )
        50           C   tau(  50) = (   0.5000000   0.6350853   0.0000000  )
        51           C   tau(  51) = (   0.4000000   0.6928203   0.0000000  )
        52           C   tau(  52) = (   0.4000000   0.8082904   0.0000000  )

   Crystallographic axes

     site n.     atom                  positions (cryst. coord.)
         1           H   tau(   1) = (  0.4666667  0.5333333  0.2000000  )
         2           H   tau(   2) = (  0.4666667  0.5333333  0.2752072  )
         3           C   tau(   3) = (  0.0000000  0.0000000  0.0000000  )
         4           C   tau(   4) = (  0.0666667  0.1333333  0.0000000  )
         5           C   tau(   5) = (  0.0000000  0.2000000  0.0000000  )
         6           C   tau(   6) = (  0.0666667  0.3333333  0.0000000  )
         7           C   tau(   7) = (  0.0000000  0.4000000  0.0000000  )
         8           C   tau(   8) = (  0.0666667  0.5333333  0.0000000  )
         9           C   tau(   9) = (  0.0000000  0.6000000  0.0000000  )
        10           C   tau(  10) = (  0.0666667  0.7333333  0.0000000  )
        11           C   tau(  11) = (  0.0000000  0.8000000  0.0000000  )
        12           C   tau(  12) = (  0.0666667  0.9333333  0.0000000  )
        13           C   tau(  13) = (  0.2000000  0.0000000  0.0000000  )
        14           C   tau(  14) = (  0.2666667  0.1333333  0.0000000  )
        15           C   tau(  15) = (  0.2000000  0.2000000  0.0000000  )
        16           C   tau(  16) = (  0.2666667  0.3333333  0.0000000  )
        17           C   tau(  17) = (  0.2000000  0.4000000  0.0000000  )
        18           C   tau(  18) = (  0.2666667  0.5333333  0.0000000  )
        19           C   tau(  19) = (  0.2000000  0.6000000  0.0000000  )
        20           C   tau(  20) = (  0.2666667  0.7333333  0.0000000  )
        21           C   tau(  21) = (  0.2000000  0.8000000  0.0000000  )
        22           C   tau(  22) = (  0.2666667  0.9333333  0.0000000  )
        23           C   tau(  23) = (  0.4000000  0.0000000  0.0000000  )
        24           C   tau(  24) = (  0.4666667  0.1333333  0.0000000  )
        25           C   tau(  25) = (  0.4000000  0.2000000  0.0000000  )
        26           C   tau(  26) = (  0.4666667  0.3333333  0.0000000  )
        27           C   tau(  27) = (  0.4000000  0.4000000  0.0000000  )
        28           Mn  tau(  28) = (  0.4666667  0.5333333  0.0000000  )
        29           C   tau(  29) = (  0.4000000  0.6000000  0.0000000  )
        30           C   tau(  30) = (  0.4666667  0.7333333  0.0000000  )
        31           C   tau(  31) = (  0.4000000  0.8000000  0.0000000  )
        32           C   tau(  32) = (  0.4666667  0.9333333  0.0000000  )
        33           C   tau(  33) = (  0.6000000  0.0000000  0.0000000  )
        34           C   tau(  34) = (  0.6666667  0.1333333  0.0000000  )
        35           C   tau(  35) = (  0.6000000  0.2000000  0.0000000  )
        36           C   tau(  36) = (  0.6666667  0.3333333  0.0000000  )
        37           C   tau(  37) = (  0.6000000  0.4000000  0.0000000  )
        38           C   tau(  38) = (  0.6666667  0.5333333  0.0000000  )
        39           C   tau(  39) = (  0.6000000  0.6000000  0.0000000  )
        40           C   tau(  40) = (  0.6666667  0.7333333  0.0000000  )
        41           C   tau(  41) = (  0.6000000  0.8000000  0.0000000  )
        42           C   tau(  42) = (  0.6666667  0.9333333  0.0000000  )
        43           C   tau(  43) = (  0.8000000  0.0000000  0.0000000  )
        44           C   tau(  44) = (  0.8666667  0.1333333  0.0000000  )
        45           C   tau(  45) = (  0.8000000  0.2000000  0.0000000  )
        46           C   tau(  46) = (  0.8666667  0.3333333  0.0000000  )
        47           C   tau(  47) = (  0.8000000  0.4000000  0.0000000  )
        48           C   tau(  48) = (  0.8666667  0.5333333  0.0000000  )
        49           C   tau(  49) = (  0.8000000  0.6000000  0.0000000  )
        50           C   tau(  50) = (  0.8666667  0.7333333  0.0000000  )
        51           C   tau(  51) = (  0.8000000  0.8000000  0.0000000  )
        52           C   tau(  52) = (  0.8666667  0.9333333  0.0000000  )

     number of k points=     1  Marzari-Vanderbilt smearing, width (Ry)=  0.0010
                       cart. coord. in units 2pi/alat
        k(    1) = (   0.0000000   0.0000000   0.0000000), wk =   2.0000000

                       cryst. coord.
        k(    1) = (   0.0000000   0.0000000   0.0000000), wk =   2.0000000

     Dense  grid:  1626001 G-vectors     FFT dimensions: ( 180, 180, 135)

     Smooth grid:   702581 G-vectors     FFT dimensions: ( 125, 125, 108)

     Dynamical RAM for                 wfc:      28.59 MB

     Dynamical RAM for     wfc (w. buffer):      28.59 MB

     Dynamical RAM for           str. fact:      12.41 MB

     Dynamical RAM for           local pot:       0.00 MB

     Dynamical RAM for          nlocal pot:      92.46 MB

     Dynamical RAM for                qrad:      19.73 MB

     Dynamical RAM for          rho,v,vnew:      29.46 MB

     Dynamical RAM for               rhoin:       9.82 MB

     Dynamical RAM for            rho*nmix:      66.16 MB

     Dynamical RAM for           G-vectors:      16.40 MB

     Dynamical RAM for          h,s,v(r/c):      12.00 MB

     Dynamical RAM for          <psi|beta>:       0.81 MB

     Dynamical RAM for                 psi:     114.35 MB

     Dynamical RAM for                hpsi:     114.35 MB

     Dynamical RAM for                spsi:     114.35 MB

     Dynamical RAM for      wfcinit/wfcrot:      93.90 MB

     Dynamical RAM for           addusdens:     971.75 MB

     Estimated static dynamical RAM per process >     320.00 MB

     Estimated max dynamical RAM per process >       1.26 GB

     Estimated total dynamical RAM >       7.57 GB

     Check: negative core charge=   -0.000002

     Initial potential from superposition of free atoms

     starting charge  212.80506, renormalised to  213.00000

     negative rho (up, down):  7.779E-05 0.000E+00


---------------------------------------------------------------------------------
Carrying out rVV10 run using the following parameters:
Nqs =      20    Nr_points =    1024   r_max =   100.000
b_value =  6.30000    beta =  0.00901
     q_mesh =  0.00010000  0.00030000  0.00058939  0.00100810
               0.00161396  0.00249058  0.00375900  0.00559430
               0.00824984  0.01209221  0.01765183  0.02569619
               0.03733578  0.05417739  0.07854596  0.11380545
               0.16482331  0.23864234  0.34545298  0.50000000

Gradients computed in Reciprocal space

---------------------------------------------------------------------------------


     Starting wfcs are  208 randomized atomic wfcs

     total cpu time spent up to now is       50.0 secs

     Self-consistent Calculation

     iteration #  1     ecut=    70.00 Ry     beta= 0.70
     Davidson diagonalization with overlap
     ethr =  1.00E-02,  avg # of iterations =  2.0

     negative rho (up, down):  1.516E-04 0.000E+00

     total cpu time spent up to now is      124.1 secs

     total energy              =    -822.05409237 Ry
     Harris-Foulkes estimate   =    -829.03119910 Ry
     estimated scf accuracy    <       9.84913688 Ry

     iteration #  2     ecut=    70.00 Ry     beta= 0.70
     Davidson diagonalization with overlap
     ethr =  4.62E-03,  avg # of iterations =  7.0

     negative rho (up, down):  1.862E-04 0.000E+00

     total cpu time spent up to now is      201.8 secs

     total energy              =    -814.39177958 Ry
     Harris-Foulkes estimate   =    -838.89012854 Ry
     estimated scf accuracy    <      97.35614888 Ry

     iteration #  3     ecut=    70.00 Ry     beta= 0.70
     Davidson diagonalization with overlap
     ethr =  4.62E-03,  avg # of iterations =  5.0

     negative rho (up, down):  2.405E-04 0.000E+00

     total cpu time spent up to now is      301.0 secs

     total energy              =    -824.97760817 Ry
     Harris-Foulkes estimate   =    -826.76161692 Ry
     estimated scf accuracy    <       7.27879392 Ry

     iteration #  4     ecut=    70.00 Ry     beta= 0.70
     Davidson diagonalization with overlap
     ethr =  3.42E-03,  avg # of iterations =  3.0

     negative rho (up, down):  2.838E-04 0.000E+00

     total cpu time spent up to now is      355.0 secs

     total energy              =    -825.61030300 Ry
     Harris-Foulkes estimate   =    -826.13493442 Ry
     estimated scf accuracy    <       1.36962748 Ry

     iteration #  5     ecut=    70.00 Ry     beta= 0.70
     Davidson diagonalization with overlap
     ethr =  6.43E-04,  avg # of iterations =  4.0

     negative rho (up, down):  2.993E-04 0.000E+00

     total cpu time spent up to now is      413.0 secs

     total energy              =    -825.90843962 Ry
     Harris-Foulkes estimate   =    -826.00453171 Ry
     estimated scf accuracy    <       0.83978342 Ry

     iteration #  6     ecut=    70.00 Ry     beta= 0.70
     Davidson diagonalization with overlap
     ethr =  3.94E-04,  avg # of iterations =  1.0

     negative rho (up, down):  3.387E-04 0.000E+00

     total cpu time spent up to now is      465.4 secs

     total energy              =    -825.87687625 Ry
     Harris-Foulkes estimate   =    -825.92615248 Ry
     estimated scf accuracy    <       0.37059513 Ry

     iteration #  7     ecut=    70.00 Ry     beta= 0.70
     Davidson diagonalization with overlap
     ethr =  1.74E-04,  avg # of iterations =  3.0

     negative rho (up, down):  3.730E-04 0.000E+00

     total cpu time spent up to now is      517.0 secs

     total energy              =    -825.87191203 Ry
     Harris-Foulkes estimate   =    -825.91268935 Ry
     estimated scf accuracy    <       0.17298294 Ry

     iteration #  8     ecut=    70.00 Ry     beta= 0.70
     Davidson diagonalization with overlap
     ethr =  8.12E-05,  avg # of iterations = 13.0

     negative rho (up, down):  5.872E-04 0.000E+00

     total cpu time spent up to now is      571.7 secs

     total energy              =    -825.88125503 Ry
     Harris-Foulkes estimate   =    -825.90125199 Ry
     estimated scf accuracy    <       0.07562982 Ry

     iteration #  9     ecut=    70.00 Ry     beta= 0.70
     Davidson diagonalization with overlap
     ethr =  3.55E-05,  avg # of iterations =  3.0

     negative rho (up, down):  5.005E-04 0.000E+00

     total cpu time spent up to now is      629.0 secs

     total energy              =    -825.86929411 Ry
     Harris-Foulkes estimate   =    -825.91222000 Ry
     estimated scf accuracy    <       0.76046901 Ry

     iteration # 10     ecut=    70.00 Ry     beta= 0.70
     Davidson diagonalization with overlap
     ethr =  3.55E-05,  avg # of iterations =  2.0

     negative rho (up, down):  5.658E-04 0.000E+00

     total cpu time spent up to now is      681.1 secs

     total energy              =    -825.88775930 Ry
     Harris-Foulkes estimate   =    -825.89335754 Ry
     estimated scf accuracy    <       0.05862668 Ry

     iteration # 11     ecut=    70.00 Ry     beta= 0.70
     Davidson diagonalization with overlap
     ethr =  2.75E-05,  avg # of iterations =  1.0

     negative rho (up, down):  5.915E-04 0.000E+00

     total cpu time spent up to now is      733.0 secs

     total energy              =    -825.88514395 Ry
     Harris-Foulkes estimate   =    -825.89866688 Ry
     estimated scf accuracy    <       0.36412376 Ry

     iteration # 12     ecut=    70.00 Ry     beta= 0.70
     Davidson diagonalization with overlap
     ethr =  2.75E-05,  avg # of iterations =  1.0

     negative rho (up, down):  6.042E-04 0.000E+00

     total cpu time spent up to now is      784.8 secs

     total energy              =    -825.89022804 Ry
     Harris-Foulkes estimate   =    -825.89285998 Ry
     estimated scf accuracy    <       0.07609605 Ry

     iteration # 13     ecut=    70.00 Ry     beta= 0.70
     Davidson diagonalization with overlap
     ethr =  2.75E-05,  avg # of iterations =  1.0

     negative rho (up, down):  6.410E-04 0.000E+00

     total cpu time spent up to now is      836.8 secs

     total energy              =    -825.89037207 Ry
     Harris-Foulkes estimate   =    -825.89159912 Ry
     estimated scf accuracy    <       0.04183203 Ry

     iteration # 14     ecut=    70.00 Ry     beta= 0.70
     Davidson diagonalization with overlap
     ethr =  1.96E-05,  avg # of iterations =  1.0

     negative rho (up, down):  6.519E-04 0.000E+00

     total cpu time spent up to now is      888.9 secs

     total energy              =    -825.89082552 Ry
     Harris-Foulkes estimate   =    -825.89117115 Ry
     estimated scf accuracy    <       0.01736704 Ry

     iteration # 15     ecut=    70.00 Ry     beta= 0.70
     Davidson diagonalization with overlap
     ethr =  8.15E-06,  avg # of iterations =  1.0

     negative rho (up, down):  6.650E-04 0.000E+00

     total cpu time spent up to now is      940.7 secs

     total energy              =    -825.89088868 Ry
     Harris-Foulkes estimate   =    -825.89095762 Ry
     estimated scf accuracy    <       0.00390211 Ry

     iteration # 16     ecut=    70.00 Ry     beta= 0.70
     Davidson diagonalization with overlap
     ethr =  1.83E-06,  avg # of iterations =  8.0

     negative rho (up, down):  6.700E-04 0.000E+00

     total cpu time spent up to now is      994.0 secs

     total energy              =    -825.89088256 Ry
     Harris-Foulkes estimate   =    -825.89091065 Ry
     estimated scf accuracy    <       0.00398981 Ry

     iteration # 17     ecut=    70.00 Ry     beta= 0.70
     Davidson diagonalization with overlap
     ethr =  1.83E-06,  avg # of iterations =  1.0

     negative rho (up, down):  6.719E-04 0.000E+00

     total cpu time spent up to now is     1046.0 secs

     total energy              =    -825.89080425 Ry
     Harris-Foulkes estimate   =    -825.89089448 Ry
     estimated scf accuracy    <       0.00780543 Ry

     iteration # 18     ecut=    70.00 Ry     beta= 0.70
     Davidson diagonalization with overlap
     ethr =  1.83E-06,  avg # of iterations =  1.0

     negative rho (up, down):  6.969E-04 0.000E+00

     total cpu time spent up to now is     1097.8 secs

     total energy              =    -825.89061458 Ry
     Harris-Foulkes estimate   =    -825.89082579 Ry
     estimated scf accuracy    <       0.00113363 Ry

     iteration # 19     ecut=    70.00 Ry     beta= 0.70
     Davidson diagonalization with overlap
     ethr =  5.32E-07,  avg # of iterations =  2.0

     negative rho (up, down):  6.953E-04 0.000E+00

     total cpu time spent up to now is     1149.8 secs

     total energy              =    -825.89068810 Ry
     Harris-Foulkes estimate   =    -825.89072875 Ry
     estimated scf accuracy    <       0.00222808 Ry

     iteration # 20     ecut=    70.00 Ry     beta= 0.70
     Davidson diagonalization with overlap
     ethr =  5.32E-07,  avg # of iterations =  1.0

     negative rho (up, down):  6.827E-04 0.000E+00

     total cpu time spent up to now is     1200.8 secs

     total energy              =    -825.89069575 Ry
     Harris-Foulkes estimate   =    -825.89071330 Ry
     estimated scf accuracy    <       0.00030068 Ry

     iteration # 21     ecut=    70.00 Ry     beta= 0.70
     Davidson diagonalization with overlap
     ethr =  1.41E-07,  avg # of iterations =  1.0

     negative rho (up, down):  6.824E-04 0.000E+00

     total cpu time spent up to now is     1251.4 secs

     total energy              =    -825.89070055 Ry
     Harris-Foulkes estimate   =    -825.89071225 Ry
     estimated scf accuracy    <       0.00039976 Ry

     iteration # 22     ecut=    70.00 Ry     beta= 0.70
     Davidson diagonalization with overlap
     ethr =  1.41E-07,  avg # of iterations =  1.0

     negative rho (up, down):  6.802E-04 0.000E+00

     total cpu time spent up to now is     1301.9 secs

     total energy              =    -825.89070670 Ry
     Harris-Foulkes estimate   =    -825.89070742 Ry
     estimated scf accuracy    <       0.00003125 Ry

     iteration # 23     ecut=    70.00 Ry     beta= 0.70
     Davidson diagonalization with overlap
     ethr =  1.47E-08,  avg # of iterations =  1.0

     negative rho (up, down):  6.801E-04 0.000E+00

     total cpu time spent up to now is     1352.6 secs

     total energy              =    -825.89070655 Ry
     Harris-Foulkes estimate   =    -825.89070820 Ry
     estimated scf accuracy    <       0.00004856 Ry

     iteration # 24     ecut=    70.00 Ry     beta= 0.70
     Davidson diagonalization with overlap
     ethr =  1.47E-08,  avg # of iterations =  1.0

     negative rho (up, down):  6.798E-04 0.000E+00

     total cpu time spent up to now is     1403.1 secs

     total energy              =    -825.89070742 Ry
     Harris-Foulkes estimate   =    -825.89070750 Ry
     estimated scf accuracy    <       0.00000225 Ry

     iteration # 25     ecut=    70.00 Ry     beta= 0.70
     Davidson diagonalization with overlap
     ethr =  1.05E-09,  avg # of iterations =  2.0

     negative rho (up, down):  6.796E-04 0.000E+00

     total cpu time spent up to now is     1454.3 secs

     total energy              =    -825.89070745 Ry
     Harris-Foulkes estimate   =    -825.89070763 Ry
     estimated scf accuracy    <       0.00000662 Ry

     iteration # 26     ecut=    70.00 Ry     beta= 0.70
     Davidson diagonalization with overlap
     ethr =  1.05E-09,  avg # of iterations =  1.0

     negative rho (up, down):  6.794E-04 0.000E+00

     total cpu time spent up to now is     1505.1 secs

     total energy              =    -825.89070760 Ry
     Harris-Foulkes estimate   =    -825.89070759 Ry
     estimated scf accuracy    <       0.00000159 Ry

     iteration # 27     ecut=    70.00 Ry     beta= 0.70
     Davidson diagonalization with overlap
     ethr =  7.48E-10,  avg # of iterations =  1.0

     negative rho (up, down):  6.791E-04 0.000E+00

     total cpu time spent up to now is     1555.4 secs

     End of self-consistent calculation

          k = 0.0000 0.0000 0.0000 ( 87777 PWs)   bands (ev):

   -80.0724 -49.7036 -49.7036 -48.3416 -19.6806 -18.8301 -18.8300 -18.7654
   -18.7653 -18.7520 -18.4187 -16.9955 -16.9954 -16.9849 -16.9010 -16.9010
   -16.6010 -16.1401 -16.1401 -16.0497 -15.9888 -15.9888 -15.3099 -14.0228
   -14.0228 -13.9645 -13.9118 -13.9117 -13.3005 -12.9839 -12.9839 -12.9540
   -12.6712 -12.6712 -12.2180 -11.7642 -11.7642 -11.5840 -11.3132 -11.3132
   -10.4077  -9.6027  -9.6027  -9.3637  -9.2238  -9.2238  -9.1375  -9.1107
    -9.1107  -9.1021  -8.6230  -8.6230  -8.3497  -8.0990  -8.0990  -7.9559
    -7.7534  -7.7413  -7.3443  -7.3442  -7.1147  -7.0758  -7.0758  -6.8334
    -6.8333  -6.7337  -6.7337  -6.7053  -6.6433  -6.4696  -6.4696  -6.4565
    -6.4514  -6.4514  -6.4070  -6.3089  -5.5266  -5.5266  -5.4424  -5.4424
    -5.2258  -5.2258  -4.8963  -4.8518  -4.8184  -4.6414  -4.6194  -4.6194
    -4.2819  -4.1165  -4.1165  -4.0942  -4.0942  -3.7441  -3.7441  -3.6871
    -3.5928  -3.5928  -3.0411  -2.5924  -2.5923  -1.7552  -1.7204  -1.7204
    -0.8256  -0.7819  -0.7818  -0.7733   1.0299   1.0497   1.0498   1.7026
     1.7026   1.7088   2.5339   2.8918   2.8919   2.9420   3.0748   3.0748
     3.4958   3.5934   3.5934   3.6982   3.6982   3.8083   3.8083   3.8313

     occupation numbers 
     1.0000   1.0000   1.0000   1.0000   1.0000   1.0000   1.0000   1.0000
     1.0000   1.0000   1.0000   1.0000   1.0000   1.0000   1.0000   1.0000
     1.0000   1.0000   1.0000   1.0000   1.0000   1.0000   1.0000   1.0000
     1.0000   1.0000   1.0000   1.0000   1.0000   1.0000   1.0000   1.0000
     1.0000   1.0000   1.0000   1.0000   1.0000   1.0000   1.0000   1.0000
     1.0000   1.0000   1.0000   1.0000   1.0000   1.0000   1.0000   1.0000
     1.0000   1.0000   1.0000   1.0000   1.0000   1.0000   1.0000   1.0000
     1.0000   1.0000   1.0000   1.0000   1.0000   1.0000   1.0000   1.0000
     1.0000   1.0000   1.0000   1.0000   1.0000   1.0000   1.0000   1.0000
     1.0000   1.0000   1.0000   1.0000   1.0000   1.0000   1.0000   1.0000
     1.0000   1.0000   1.0000   1.0000   1.0000   1.0000   1.0000   1.0000
     1.0000   1.0000   1.0000   1.0000   1.0000   1.0000   1.0000   1.0000
     1.0000   1.0000   1.0000   1.0000   1.0000   1.0000   1.0000   1.0000
     1.0001   0.6400   0.6396   0.2204   0.0000   0.0000   0.0000   0.0000
     0.0000   0.0000   0.0000   0.0000   0.0000   0.0000   0.0000   0.0000
     0.0000   0.0000   0.0000   0.0000   0.0000   0.0000   0.0000   0.0000

     the Fermi energy is    -0.7774 ev

!    total energy              =    -825.89070742 Ry
     Harris-Foulkes estimate   =    -825.89070762 Ry
     estimated scf accuracy    <       0.00000029 Ry

     The total energy is the sum of the following terms:

     one-electron contribution =   -2740.27322340 Ry
     hartree contribution      =    1415.33703921 Ry
     xc contribution           =    -259.66915965 Ry
     ewald contribution        =     758.71545243 Ry
     smearing contrib. (-TS)   =      -0.00081601 Ry

     convergence has been achieved in  27 iterations

     Writing output data file gr-12.save/

     init_run     :     47.40s CPU     48.79s WALL (       1 calls)
     electrons    :   1459.52s CPU   1505.58s WALL (       1 calls)

     Called by init_run:
     wfcinit      :     23.84s CPU     24.03s WALL (       1 calls)
     wfcinit:atom :      0.03s CPU      0.05s WALL (       1 calls)
     wfcinit:wfcr :     23.66s CPU     23.77s WALL (       1 calls)
     potinit      :     10.81s CPU     11.33s WALL (       1 calls)
     hinit0       :      7.17s CPU      7.22s WALL (       1 calls)

     Called by electrons:
     c_bands      :    869.80s CPU    874.94s WALL (      27 calls)
     sum_band     :    293.82s CPU    309.46s WALL (      27 calls)
     v_of_rho     :    179.21s CPU    189.90s WALL (      28 calls)
     v_h          :      2.01s CPU      2.10s WALL (      28 calls)
     v_xc         :    177.20s CPU    187.79s WALL (      28 calls)
     newd         :    119.05s CPU    134.49s WALL (      28 calls)
     mix_rho      :      5.89s CPU      6.01s WALL (      27 calls)

     Called by c_bands:
     init_us_2    :      2.45s CPU      2.52s WALL (      55 calls)
     cegterg      :    863.24s CPU    868.34s WALL (      27 calls)

     Called by sum_band:
     sum_band:bec :      0.02s CPU      0.02s WALL (      27 calls)
     addusdens    :    180.63s CPU    195.28s WALL (      27 calls)

     Called by *egterg:
     h_psi        :    462.98s CPU    466.71s WALL (      97 calls)
     s_psi        :    152.06s CPU    152.15s WALL (      97 calls)
     g_psi        :      0.46s CPU      0.46s WALL (      69 calls)
     cdiaghg      :      6.45s CPU      6.46s WALL (      96 calls)
     cegterg:over :    102.76s CPU    102.81s WALL (      69 calls)
     cegterg:upda :     58.65s CPU     59.05s WALL (      69 calls)
     cegterg:last :     51.06s CPU     51.08s WALL (      28 calls)

     Called by h_psi:
     h_psi:pot    :    462.45s CPU    465.58s WALL (      97 calls)
     h_psi:calbec :    153.07s CPU    153.13s WALL (      97 calls)
     vloc_psi     :    157.09s CPU    160.11s WALL (      97 calls)
     add_vuspsi   :    152.29s CPU    152.34s WALL (      97 calls)

     General routines
     calbec       :    220.80s CPU    220.89s WALL (     124 calls)
     fft          :     98.36s CPU    102.46s WALL (    1762 calls)
     ffts         :      1.08s CPU      1.13s WALL (      55 calls)
     fftw         :    168.37s CPU    171.73s WALL (   19026 calls)
     interpolate  :      2.53s CPU      2.59s WALL (      28 calls)

     Parallel routines
     fft_scatt_xy :     47.81s CPU     48.45s WALL (   20843 calls)
     fft_scatt_yz :     88.27s CPU     93.61s WALL (   20843 calls)

     PWSCF        :  25m 8.21s CPU  25m55.96s WALL


   This run was terminated on:  16:42: 3  21Jul2022            

=------------------------------------------------------------------------------=
   JOB DONE.
=------------------------------------------------------------------------------=
