
     Program PWSCF v.6.4.1 starts on  9Sep2022 at 19:26:47 

     This program is part of the open-source Quantum ESPRESSO suite
     for quantum simulation of materials; please cite
         "P. Giannozzi et al., J. Phys.:Condens. Matter 21 395502 (2009);
         "P. Giannozzi et al., J. Phys.:Condens. Matter 29 465901 (2017);
          URL http://www.quantum-espresso.org", 
     in publications or presentations arising from this work. More details at
     http://www.quantum-espresso.org/quote

     Parallel version (MPI), running on     6 processors

     MPI processes distributed on     1 nodes
     R & G space division:  proc/nbgrp/npool/nimage =       6
     Reading input from cu-vcrelax.in

     Current dimensions of program PWSCF are:
     Max number of different atomic species (ntypx) = 10
     Max number of k-points (npk) =  40000
     Max angular momentum in pseudopotentials (lmaxx) =  3
               file H.pbe-rrkjus.UPF: wavefunction(s)  1S renormalized
               file Cu.pbe-dn-rrkjus_psl.1.0.0.UPF: wavefunction(s)  3D renormalized

     Subspace diagonalization in iterative solution of the eigenvalue problem:
     a serial algorithm will be used


     Parallelization info
     --------------------
     sticks:   dense  smooth     PW     G-vecs:    dense   smooth      PW
     Min        3051    1746    432               270999   117096   14629
     Max        3053    1747    437               271001   117099   14630
     Sum       18313   10477   2611              1626001   702581   87777



     bravais-lattice index     =            4
     lattice parameter (alat)  =      23.2937  a.u.
     unit-cell volume          =    8879.8548 (a.u.)^3
     number of atoms/cell      =           52
     number of atomic types    =            3
     number of electrons       =       209.00
     number of Kohn-Sham states=          126
     kinetic-energy cutoff     =      70.0000  Ry
     charge density cutoff     =     490.0000  Ry
     convergence threshold     =      1.0E-10
     mixing beta               =       0.7000
     number of iterations used =            8  plain     mixing
     Exchange-correlation      = PBE ( 1  4  3  4 0 0)
     nstep                     =           50


     celldm(1)=  23.293684  celldm(2)=   0.000000  celldm(3)=   0.811261
     celldm(4)=   0.000000  celldm(5)=   0.000000  celldm(6)=   0.000000

     crystal axes: (cart. coord. in units of alat)
               a(1) = (   1.000000   0.000000   0.000000 )  
               a(2) = (  -0.500000   0.866025   0.000000 )  
               a(3) = (   0.000000   0.000000   0.811261 )  

     reciprocal axes: (cart. coord. in units 2 pi/alat)
               b(1) = (  1.000000  0.577350 -0.000000 )  
               b(2) = (  0.000000  1.154701  0.000000 )  
               b(3) = (  0.000000 -0.000000  1.232649 )  


     PseudoPot. # 1 for H  read from file:
     /home/cristian/Escritorio/Proyecto_Grafeno/pseudopotenciales/H.pbe-rrkjus.UPF
     MD5 check sum: 7cc9d459525c9a0585f487a71c3c9563
     Pseudo is Ultrasoft, Zval =  1.0
     Generated by new atomic code, or converted to UPF format
     Using radial grid of 1061 points,  2 beta functions with: 
                l(1) =   0
                l(2) =   0
     Q(r) pseudized with 0 coefficients 


     PseudoPot. # 2 for C  read from file:
     /home/cristian/Escritorio/Proyecto_Grafeno/pseudopotenciales/C.pbe-n-rrkjus_psl.1.0.0.UPF
     MD5 check sum: 1fdd950c42eb37d8afe3dd2f8d12311e
     Pseudo is Ultrasoft + core correction, Zval =  4.0
     Generated using "atomic" code by A. Dal Corso v.6.3MaX
     Using radial grid of 1073 points,  4 beta functions with: 
                l(1) =   0
                l(2) =   0
                l(3) =   1
                l(4) =   1
     Q(r) pseudized with 0 coefficients 


     PseudoPot. # 3 for Cu read from file:
     /home/cristian/Escritorio/Proyecto_Grafeno/pseudopotenciales/Cu.pbe-dn-rrkjus_psl.1.0.0.UPF
     MD5 check sum: ba3d6c84e19846e79d48cdc68ff7152b
     Pseudo is Ultrasoft + core correction, Zval = 11.0
     Generated using "atomic" code by A. Dal Corso v.6.3
     Using radial grid of 1199 points,  6 beta functions with: 
                l(1) =   0
                l(2) =   0
                l(3) =   1
                l(4) =   1
                l(5) =   2
                l(6) =   2
     Q(r) pseudized with 0 coefficients 


     atomic species   valence    mass     pseudopotential
        H              1.00     1.00794     H ( 1.00)
        C              4.00    12.01070     C ( 1.00)
        Cu            11.00    63.54600     Cu( 1.00)

     Starting magnetic structure 
     atomic species   magnetization
        H            0.500
        C            0.300
        Cu           0.800

      2 Sym. Ops. (no inversion) found


                                    s                        frac. trans.

      isym =  1     identity                                     

 cryst.   s( 1) = (     1          0          0      )
                  (     0          1          0      )
                  (     0          0          1      )

 cart.    s( 1) = (  1.0000000  0.0000000  0.0000000 )
                  (  0.0000000  1.0000000  0.0000000 )
                  (  0.0000000  0.0000000  1.0000000 )


      isym =  2     inv. 180 deg rotation - cryst. axis [1,1,0]  

 cryst.   s( 2) = (     0         -1          0      )
                  (    -1          0          0      )
                  (     0          0          1      )

 cart.    s( 2) = (  0.5000000 -0.8660254  0.0000000 )
                  ( -0.8660254 -0.5000000  0.0000000 )
                  (  0.0000000  0.0000000  1.0000000 )


     point group C_s (m)    
     there are  2 classes
     the character table:

       E     s    
A'     1.00  1.00
A''    1.00 -1.00

     the symmetry operations in each class and the name of the first element:

     E        1
          identity                                               
     s        2
          inv. 180 deg rotation - cryst. axis [1,1,0]            

   Cartesian axes

     site n.     atom                  positions (alat units)
         1           H   tau(   1) = (   0.2999980   0.4041463   0.2272912  )
         2           H   tau(   2) = (   0.3000019   0.4041441   0.2880087  )
         3           C   tau(   3) = (   0.0000000   0.0000000   0.0000000  )
         4           C   tau(   4) = (   0.0000000   0.1154701   0.0000000  )
         5           C   tau(   5) = (  -0.1000000   0.1732051   0.0000000  )
         6           C   tau(   6) = (  -0.1000000   0.2886751   0.0000000  )
         7           C   tau(   7) = (  -0.2000000   0.3464102   0.0000000  )
         8           C   tau(   8) = (  -0.2000000   0.4618802   0.0000000  )
         9           C   tau(   9) = (  -0.3000000   0.5196152   0.0000000  )
        10           C   tau(  10) = (  -0.3000000   0.6350853   0.0000000  )
        11           C   tau(  11) = (  -0.4000000   0.6928203   0.0000000  )
        12           C   tau(  12) = (  -0.4000000   0.8082904   0.0000000  )
        13           C   tau(  13) = (   0.2000000   0.0000000   0.0000000  )
        14           C   tau(  14) = (   0.2000000   0.1154701   0.0000000  )
        15           C   tau(  15) = (   0.1000000   0.1732051   0.0000000  )
        16           C   tau(  16) = (   0.1000000   0.2886751   0.0000000  )
        17           C   tau(  17) = (   0.0000000   0.3464102   0.0000000  )
        18           C   tau(  18) = (   0.0000000   0.4618802   0.0000000  )
        19           C   tau(  19) = (  -0.1000000   0.5196152   0.0000000  )
        20           C   tau(  20) = (  -0.1000000   0.6350853   0.0000000  )
        21           C   tau(  21) = (  -0.2000000   0.6928203   0.0000000  )
        22           C   tau(  22) = (  -0.2000000   0.8082904   0.0000000  )
        23           C   tau(  23) = (   0.4000000   0.0000000   0.0000000  )
        24           C   tau(  24) = (   0.4000000   0.1154701   0.0000000  )
        25           C   tau(  25) = (   0.3000000   0.1732051   0.0000000  )
        26           C   tau(  26) = (   0.3000000   0.2886751   0.0000000  )
        27           C   tau(  27) = (   0.2000000   0.3464102   0.0000000  )
        28           Cu  tau(  28) = (   0.2000000   0.4618802   0.0000000  )
        29           C   tau(  29) = (   0.1000000   0.5196152   0.0000000  )
        30           C   tau(  30) = (   0.1000000   0.6350853   0.0000000  )
        31           C   tau(  31) = (   0.0000000   0.6928203   0.0000000  )
        32           C   tau(  32) = (   0.0000000   0.8082904   0.0000000  )
        33           C   tau(  33) = (   0.6000000   0.0000000   0.0000000  )
        34           C   tau(  34) = (   0.6000000   0.1154701   0.0000000  )
        35           C   tau(  35) = (   0.5000000   0.1732051   0.0000000  )
        36           C   tau(  36) = (   0.5000000   0.2886751   0.0000000  )
        37           C   tau(  37) = (   0.4000000   0.3464102   0.0000000  )
        38           C   tau(  38) = (   0.4000000   0.4618802   0.0000000  )
        39           C   tau(  39) = (   0.3000000   0.5196152   0.0000000  )
        40           C   tau(  40) = (   0.3000000   0.6350853   0.0000000  )
        41           C   tau(  41) = (   0.2000000   0.6928203   0.0000000  )
        42           C   tau(  42) = (   0.2000000   0.8082904   0.0000000  )
        43           C   tau(  43) = (   0.8000000   0.0000000   0.0000000  )
        44           C   tau(  44) = (   0.8000000   0.1154701   0.0000000  )
        45           C   tau(  45) = (   0.7000000   0.1732051   0.0000000  )
        46           C   tau(  46) = (   0.7000000   0.2886751   0.0000000  )
        47           C   tau(  47) = (   0.6000000   0.3464102   0.0000000  )
        48           C   tau(  48) = (   0.6000000   0.4618802   0.0000000  )
        49           C   tau(  49) = (   0.5000000   0.5196152   0.0000000  )
        50           C   tau(  50) = (   0.5000000   0.6350853   0.0000000  )
        51           C   tau(  51) = (   0.4000000   0.6928203   0.0000000  )
        52           C   tau(  52) = (   0.4000000   0.8082904   0.0000000  )

   Crystallographic axes

     site n.     atom                  positions (cryst. coord.)
         1           H   tau(   1) = (  0.5333320  0.4666680  0.2801702  )
         2           H   tau(   2) = (  0.5333346  0.4666654  0.3550135  )
         3           C   tau(   3) = (  0.0000000  0.0000000  0.0000000  )
         4           C   tau(   4) = (  0.0666667  0.1333333  0.0000000  )
         5           C   tau(   5) = (  0.0000000  0.2000000  0.0000000  )
         6           C   tau(   6) = (  0.0666667  0.3333333  0.0000000  )
         7           C   tau(   7) = (  0.0000000  0.4000000  0.0000000  )
         8           C   tau(   8) = (  0.0666667  0.5333333  0.0000000  )
         9           C   tau(   9) = (  0.0000000  0.6000000  0.0000000  )
        10           C   tau(  10) = (  0.0666667  0.7333333  0.0000000  )
        11           C   tau(  11) = (  0.0000000  0.8000000  0.0000000  )
        12           C   tau(  12) = (  0.0666667  0.9333333  0.0000000  )
        13           C   tau(  13) = (  0.2000000  0.0000000  0.0000000  )
        14           C   tau(  14) = (  0.2666667  0.1333333  0.0000000  )
        15           C   tau(  15) = (  0.2000000  0.2000000  0.0000000  )
        16           C   tau(  16) = (  0.2666667  0.3333333  0.0000000  )
        17           C   tau(  17) = (  0.2000000  0.4000000  0.0000000  )
        18           C   tau(  18) = (  0.2666667  0.5333333  0.0000000  )
        19           C   tau(  19) = (  0.2000000  0.6000000  0.0000000  )
        20           C   tau(  20) = (  0.2666667  0.7333333  0.0000000  )
        21           C   tau(  21) = (  0.2000000  0.8000000  0.0000000  )
        22           C   tau(  22) = (  0.2666667  0.9333333  0.0000000  )
        23           C   tau(  23) = (  0.4000000  0.0000000  0.0000000  )
        24           C   tau(  24) = (  0.4666667  0.1333333  0.0000000  )
        25           C   tau(  25) = (  0.4000000  0.2000000  0.0000000  )
        26           C   tau(  26) = (  0.4666667  0.3333333  0.0000000  )
        27           C   tau(  27) = (  0.4000000  0.4000000  0.0000000  )
        28           Cu  tau(  28) = (  0.4666667  0.5333333  0.0000000  )
        29           C   tau(  29) = (  0.4000000  0.6000000  0.0000000  )
        30           C   tau(  30) = (  0.4666667  0.7333333  0.0000000  )
        31           C   tau(  31) = (  0.4000000  0.8000000  0.0000000  )
        32           C   tau(  32) = (  0.4666667  0.9333333  0.0000000  )
        33           C   tau(  33) = (  0.6000000  0.0000000  0.0000000  )
        34           C   tau(  34) = (  0.6666667  0.1333333  0.0000000  )
        35           C   tau(  35) = (  0.6000000  0.2000000  0.0000000  )
        36           C   tau(  36) = (  0.6666667  0.3333333  0.0000000  )
        37           C   tau(  37) = (  0.6000000  0.4000000  0.0000000  )
        38           C   tau(  38) = (  0.6666667  0.5333333  0.0000000  )
        39           C   tau(  39) = (  0.6000000  0.6000000  0.0000000  )
        40           C   tau(  40) = (  0.6666667  0.7333333  0.0000000  )
        41           C   tau(  41) = (  0.6000000  0.8000000  0.0000000  )
        42           C   tau(  42) = (  0.6666667  0.9333333  0.0000000  )
        43           C   tau(  43) = (  0.8000000  0.0000000  0.0000000  )
        44           C   tau(  44) = (  0.8666667  0.1333333  0.0000000  )
        45           C   tau(  45) = (  0.8000000  0.2000000  0.0000000  )
        46           C   tau(  46) = (  0.8666667  0.3333333  0.0000000  )
        47           C   tau(  47) = (  0.8000000  0.4000000  0.0000000  )
        48           C   tau(  48) = (  0.8666667  0.5333333  0.0000000  )
        49           C   tau(  49) = (  0.8000000  0.6000000  0.0000000  )
        50           C   tau(  50) = (  0.8666667  0.7333333  0.0000000  )
        51           C   tau(  51) = (  0.8000000  0.8000000  0.0000000  )
        52           C   tau(  52) = (  0.8666667  0.9333333  0.0000000  )

     number of k points=     1  Marzari-Vanderbilt smearing, width (Ry)=  0.0010
                       cart. coord. in units 2pi/alat
        k(    1) = (   0.0000000   0.0000000   0.0000000), wk =   1.0000000

                       cryst. coord.
        k(    1) = (   0.0000000   0.0000000   0.0000000), wk =   1.0000000

     Dense  grid:  1626001 G-vectors     FFT dimensions: ( 180, 180, 135)

     Smooth grid:   702581 G-vectors     FFT dimensions: ( 125, 125, 108)

     Dynamical RAM for                 wfc:      28.14 MB

     Dynamical RAM for     wfc (w. buffer):      84.42 MB

     Dynamical RAM for           str. fact:      12.41 MB

     Dynamical RAM for           local pot:       0.00 MB

     Dynamical RAM for          nlocal pot:      92.46 MB

     Dynamical RAM for                qrad:      39.46 MB

     Dynamical RAM for          rho,v,vnew:      58.92 MB

     Dynamical RAM for               rhoin:      19.64 MB

     Dynamical RAM for            rho*nmix:     132.32 MB

     Dynamical RAM for           G-vectors:      16.40 MB

     Dynamical RAM for          h,s,v(r/c):      11.63 MB

     Dynamical RAM for          <psi|beta>:       0.80 MB

     Dynamical RAM for                 psi:     112.56 MB

     Dynamical RAM for                hpsi:     112.56 MB

     Dynamical RAM for                spsi:     112.56 MB

     Dynamical RAM for      wfcinit/wfcrot:      93.45 MB

     Dynamical RAM for           addusdens:     975.89 MB

     Dynamical RAM for          addusforce:    1410.48 MB

     Dynamical RAM for         addusstress:     837.36 MB

     Estimated static dynamical RAM per process >     506.70 MB

     Estimated max dynamical RAM per process >       1.87 GB

     Estimated total dynamical RAM >      11.23 GB
     Generating pointlists ...
     new r_m :   0.0250 (alat units)  0.5834 (a.u.) for type    1
     new r_m :   0.0476 (alat units)  1.1095 (a.u.) for type    2
     new r_m :   0.0476 (alat units)  1.1095 (a.u.) for type    3

     Check: negative core charge=   -0.000002

     Initial potential from superposition of free atoms

     starting charge  208.80532, renormalised to  209.00000

     negative rho (up, down):  6.162E-05 1.041E-02
     Starting wfcs are  207 randomized atomic wfcs

     total cpu time spent up to now is      118.7 secs

     Self-consistent Calculation

     iteration #  1     ecut=    70.00 Ry     beta= 0.70
     Davidson diagonalization with overlap
     ethr =  1.00E-02,  avg # of iterations =  2.0

     negative rho (up, down):  1.471E-04 1.111E-02

     total cpu time spent up to now is      253.1 secs

     total energy              =    -725.25078074 Ry
     Harris-Foulkes estimate   =    -732.73531664 Ry
     estimated scf accuracy    <      14.25851897 Ry

     total magnetization       =     7.00 Bohr mag/cell
     absolute magnetization    =     7.43 Bohr mag/cell

     iteration #  2     ecut=    70.00 Ry     beta= 0.70
     Davidson diagonalization with overlap
     ethr =  6.82E-03,  avg # of iterations =  4.0

     negative rho (up, down):  1.622E-04 1.003E-02

     total cpu time spent up to now is      390.6 secs

     total energy              =    -726.14992962 Ry
     Harris-Foulkes estimate   =    -743.14532284 Ry
     estimated scf accuracy    <      44.90499892 Ry

     total magnetization       =     3.00 Bohr mag/cell
     absolute magnetization    =     3.23 Bohr mag/cell

     iteration #  3     ecut=    70.00 Ry     beta= 0.70
     Davidson diagonalization with overlap
     ethr =  6.82E-03,  avg # of iterations =  4.0

     negative rho (up, down):  1.966E-04 8.913E-03

     total cpu time spent up to now is      507.7 secs

     total energy              =    -730.14045711 Ry
     Harris-Foulkes estimate   =    -734.11877291 Ry
     estimated scf accuracy    <      11.16238860 Ry

     total magnetization       =     2.25 Bohr mag/cell
     absolute magnetization    =     2.50 Bohr mag/cell

     iteration #  4     ecut=    70.00 Ry     beta= 0.70
     Davidson diagonalization with overlap
     ethr =  5.34E-03,  avg # of iterations =  3.0

     negative rho (up, down):  2.557E-04 7.398E-03

     total cpu time spent up to now is      613.3 secs

     total energy              =    -731.68001497 Ry
     Harris-Foulkes estimate   =    -732.98385291 Ry
     estimated scf accuracy    <       5.60471161 Ry

     total magnetization       =     3.00 Bohr mag/cell
     absolute magnetization    =     3.14 Bohr mag/cell

     iteration #  5     ecut=    70.00 Ry     beta= 0.70
     Davidson diagonalization with overlap
     ethr =  2.68E-03,  avg # of iterations =  2.5

     negative rho (up, down):  2.947E-04 1.005E-02

     total cpu time spent up to now is      714.8 secs

     total energy              =    -732.28504384 Ry
     Harris-Foulkes estimate   =    -733.10242184 Ry
     estimated scf accuracy    <       3.99330589 Ry

     total magnetization       =     1.00 Bohr mag/cell
     absolute magnetization    =     1.45 Bohr mag/cell

     iteration #  6     ecut=    70.00 Ry     beta= 0.70
     Davidson diagonalization with overlap
     ethr =  1.91E-03,  avg # of iterations =  2.0

     negative rho (up, down):  3.550E-04 1.551E-02

     total cpu time spent up to now is      813.8 secs

     total energy              =    -732.63605806 Ry
     Harris-Foulkes estimate   =    -732.75242341 Ry
     estimated scf accuracy    <       0.32065521 Ry

     total magnetization       =     1.00 Bohr mag/cell
     absolute magnetization    =     1.35 Bohr mag/cell

     iteration #  7     ecut=    70.00 Ry     beta= 0.70
     Davidson diagonalization with overlap
     ethr =  1.53E-04,  avg # of iterations =  6.5

     negative rho (up, down):  4.775E-04 1.311E-02

     total cpu time spent up to now is      932.9 secs

     total energy              =    -732.68895311 Ry
     Harris-Foulkes estimate   =    -732.76202987 Ry
     estimated scf accuracy    <       0.26231822 Ry

     total magnetization       =     1.00 Bohr mag/cell
     absolute magnetization    =     1.26 Bohr mag/cell

     iteration #  8     ecut=    70.00 Ry     beta= 0.70
     Davidson diagonalization with overlap
     ethr =  1.26E-04,  avg # of iterations =  5.5

     negative rho (up, down):  5.667E-04 6.594E-03

     total cpu time spent up to now is     1039.0 secs

     total energy              =    -732.71273749 Ry
     Harris-Foulkes estimate   =    -732.73124329 Ry
     estimated scf accuracy    <       0.06592025 Ry

     total magnetization       =     1.00 Bohr mag/cell
     absolute magnetization    =     1.21 Bohr mag/cell

     iteration #  9     ecut=    70.00 Ry     beta= 0.70
     Davidson diagonalization with overlap
     ethr =  3.15E-05,  avg # of iterations =  8.5

     negative rho (up, down):  6.275E-04 3.090E-03

     total cpu time spent up to now is     1141.8 secs

     total energy              =    -732.72151556 Ry
     Harris-Foulkes estimate   =    -732.72438185 Ry
     estimated scf accuracy    <       0.03741111 Ry

     total magnetization       =     1.00 Bohr mag/cell
     absolute magnetization    =     1.18 Bohr mag/cell

     iteration # 10     ecut=    70.00 Ry     beta= 0.70
     Davidson diagonalization with overlap
     ethr =  1.79E-05,  avg # of iterations =  2.0

     negative rho (up, down):  6.580E-04 2.510E-03

     total cpu time spent up to now is     1234.8 secs

     total energy              =    -732.72240330 Ry
     Harris-Foulkes estimate   =    -732.72317786 Ry
     estimated scf accuracy    <       0.00324725 Ry

     total magnetization       =     1.00 Bohr mag/cell
     absolute magnetization    =     1.13 Bohr mag/cell

     iteration # 11     ecut=    70.00 Ry     beta= 0.70
     Davidson diagonalization with overlap
     ethr =  1.55E-06,  avg # of iterations =  8.5

     negative rho (up, down):  6.605E-04 2.359E-03

     total cpu time spent up to now is     1349.2 secs

     total energy              =    -732.72287562 Ry
     Harris-Foulkes estimate   =    -732.72315292 Ry
     estimated scf accuracy    <       0.00098116 Ry

     total magnetization       =     1.00 Bohr mag/cell
     absolute magnetization    =     1.11 Bohr mag/cell

     iteration # 12     ecut=    70.00 Ry     beta= 0.70
     Davidson diagonalization with overlap
     ethr =  4.69E-07,  avg # of iterations =  2.0

     negative rho (up, down):  6.575E-04 2.061E-03

     total cpu time spent up to now is     1457.5 secs

     total energy              =    -732.72304336 Ry
     Harris-Foulkes estimate   =    -732.72308367 Ry
     estimated scf accuracy    <       0.00032171 Ry

     total magnetization       =     1.00 Bohr mag/cell
     absolute magnetization    =     1.10 Bohr mag/cell

     iteration # 13     ecut=    70.00 Ry     beta= 0.70
     Davidson diagonalization with overlap
     ethr =  1.54E-07,  avg # of iterations =  2.0

     negative rho (up, down):  6.507E-04 1.696E-03

     total cpu time spent up to now is     1554.5 secs

     total energy              =    -732.72309258 Ry
     Harris-Foulkes estimate   =    -732.72308927 Ry
     estimated scf accuracy    <       0.00026575 Ry

     total magnetization       =     1.00 Bohr mag/cell
     absolute magnetization    =     1.09 Bohr mag/cell

     iteration # 14     ecut=    70.00 Ry     beta= 0.70
     Davidson diagonalization with overlap
     ethr =  1.27E-07,  avg # of iterations =  1.0

     negative rho (up, down):  6.471E-04 1.677E-03

     total cpu time spent up to now is     1646.0 secs

     total energy              =    -732.72309341 Ry
     Harris-Foulkes estimate   =    -732.72310004 Ry
     estimated scf accuracy    <       0.00032898 Ry

     total magnetization       =     1.00 Bohr mag/cell
     absolute magnetization    =     1.08 Bohr mag/cell

     iteration # 15     ecut=    70.00 Ry     beta= 0.70
     Davidson diagonalization with overlap
     ethr =  1.27E-07,  avg # of iterations =  1.0

     negative rho (up, down):  6.476E-04 1.680E-03

     total cpu time spent up to now is     1742.5 secs

     total energy              =    -732.72309596 Ry
     Harris-Foulkes estimate   =    -732.72310056 Ry
     estimated scf accuracy    <       0.00004504 Ry

     total magnetization       =     1.00 Bohr mag/cell
     absolute magnetization    =     1.08 Bohr mag/cell

     iteration # 16     ecut=    70.00 Ry     beta= 0.70
     Davidson diagonalization with overlap
     ethr =  2.15E-08,  avg # of iterations =  2.0

     negative rho (up, down):  6.455E-04 1.653E-03

     total cpu time spent up to now is     1844.2 secs

     total energy              =    -732.72309968 Ry
     Harris-Foulkes estimate   =    -732.72309889 Ry
     estimated scf accuracy    <       0.00001260 Ry

     total magnetization       =     1.00 Bohr mag/cell
     absolute magnetization    =     1.08 Bohr mag/cell

     iteration # 17     ecut=    70.00 Ry     beta= 0.70
     Davidson diagonalization with overlap
     ethr =  6.03E-09,  avg # of iterations =  2.5

     negative rho (up, down):  6.452E-04 1.651E-03

     total cpu time spent up to now is     1951.4 secs

     total energy              =    -732.72310111 Ry
     Harris-Foulkes estimate   =    -732.72310090 Ry
     estimated scf accuracy    <       0.00002132 Ry

     total magnetization       =     1.00 Bohr mag/cell
     absolute magnetization    =     1.07 Bohr mag/cell

     iteration # 18     ecut=    70.00 Ry     beta= 0.70
     Davidson diagonalization with overlap
     ethr =  6.03E-09,  avg # of iterations =  1.0

     negative rho (up, down):  6.448E-04 1.652E-03

     total cpu time spent up to now is     2052.4 secs

     total energy              =    -732.72310129 Ry
     Harris-Foulkes estimate   =    -732.72310132 Ry
     estimated scf accuracy    <       0.00001956 Ry

     total magnetization       =     1.00 Bohr mag/cell
     absolute magnetization    =     1.07 Bohr mag/cell

     iteration # 19     ecut=    70.00 Ry     beta= 0.70
     Davidson diagonalization with overlap
     ethr =  6.03E-09,  avg # of iterations =  1.0

     negative rho (up, down):  6.449E-04 1.645E-03

     total cpu time spent up to now is     2150.9 secs

     total energy              =    -732.72310146 Ry
     Harris-Foulkes estimate   =    -732.72310158 Ry
     estimated scf accuracy    <       0.00001057 Ry

     total magnetization       =     1.00 Bohr mag/cell
     absolute magnetization    =     1.07 Bohr mag/cell

     iteration # 20     ecut=    70.00 Ry     beta= 0.70
     Davidson diagonalization with overlap
     ethr =  5.06E-09,  avg # of iterations =  2.0

     negative rho (up, down):  6.450E-04 1.656E-03

     total cpu time spent up to now is     2251.3 secs

     total energy              =    -732.72310171 Ry
     Harris-Foulkes estimate   =    -732.72310183 Ry
     estimated scf accuracy    <       0.00000623 Ry

     total magnetization       =     1.00 Bohr mag/cell
     absolute magnetization    =     1.07 Bohr mag/cell

     iteration # 21     ecut=    70.00 Ry     beta= 0.70
     Davidson diagonalization with overlap
     ethr =  2.98E-09,  avg # of iterations =  1.0

     negative rho (up, down):  6.451E-04 1.655E-03

     total cpu time spent up to now is     2348.5 secs

     total energy              =    -732.72310174 Ry
     Harris-Foulkes estimate   =    -732.72310179 Ry
     estimated scf accuracy    <       0.00000224 Ry

     total magnetization       =     1.00 Bohr mag/cell
     absolute magnetization    =     1.07 Bohr mag/cell

     iteration # 22     ecut=    70.00 Ry     beta= 0.70
     Davidson diagonalization with overlap
     ethr =  1.07E-09,  avg # of iterations =  1.5

     negative rho (up, down):  6.453E-04 1.662E-03

     total cpu time spent up to now is     2452.1 secs

     total energy              =    -732.72310182 Ry
     Harris-Foulkes estimate   =    -732.72310182 Ry
     estimated scf accuracy    <       0.00000079 Ry

     total magnetization       =     1.00 Bohr mag/cell
     absolute magnetization    =     1.07 Bohr mag/cell

     iteration # 23     ecut=    70.00 Ry     beta= 0.70
     Davidson diagonalization with overlap
     ethr =  3.77E-10,  avg # of iterations =  2.0

     negative rho (up, down):  6.453E-04 1.663E-03

     total cpu time spent up to now is     2550.7 secs

     total energy              =    -732.72310185 Ry
     Harris-Foulkes estimate   =    -732.72310186 Ry
     estimated scf accuracy    <       0.00000067 Ry

     total magnetization       =     1.00 Bohr mag/cell
     absolute magnetization    =     1.07 Bohr mag/cell

     iteration # 24     ecut=    70.00 Ry     beta= 0.70
     Davidson diagonalization with overlap
     ethr =  3.20E-10,  avg # of iterations =  1.0

     negative rho (up, down):  6.453E-04 1.660E-03

     total cpu time spent up to now is     2648.4 secs

     total energy              =    -732.72310184 Ry
     Harris-Foulkes estimate   =    -732.72310186 Ry
     estimated scf accuracy    <       0.00000029 Ry

     total magnetization       =     1.00 Bohr mag/cell
     absolute magnetization    =     1.07 Bohr mag/cell

     iteration # 25     ecut=    70.00 Ry     beta= 0.70
     Davidson diagonalization with overlap
     ethr =  1.38E-10,  avg # of iterations =  2.5

     negative rho (up, down):  6.453E-04 1.661E-03

     total cpu time spent up to now is     2750.4 secs

     total energy              =    -732.72310186 Ry
     Harris-Foulkes estimate   =    -732.72310186 Ry
     estimated scf accuracy    <          1.7E-09 Ry

     total magnetization       =     1.00 Bohr mag/cell
     absolute magnetization    =     1.07 Bohr mag/cell

     iteration # 26     ecut=    70.00 Ry     beta= 0.70
     Davidson diagonalization with overlap
     ethr =  8.19E-13,  avg # of iterations =  4.0

     negative rho (up, down):  6.453E-04 1.659E-03

     total cpu time spent up to now is     2893.8 secs

     total energy              =    -732.72310186 Ry
     Harris-Foulkes estimate   =    -732.72310186 Ry
     estimated scf accuracy    <          2.8E-09 Ry

     total magnetization       =     1.00 Bohr mag/cell
     absolute magnetization    =     1.07 Bohr mag/cell

     iteration # 27     ecut=    70.00 Ry     beta= 0.70
     Davidson diagonalization with overlap
     ethr =  8.19E-13,  avg # of iterations =  3.0

     negative rho (up, down):  6.453E-04 1.659E-03

     total cpu time spent up to now is     3002.0 secs

     total energy              =    -732.72310186 Ry
     Harris-Foulkes estimate   =    -732.72310186 Ry
     estimated scf accuracy    <          8.6E-10 Ry

     total magnetization       =     1.00 Bohr mag/cell
     absolute magnetization    =     1.07 Bohr mag/cell

     iteration # 28     ecut=    70.00 Ry     beta= 0.70
     Davidson diagonalization with overlap
     ethr =  4.13E-13,  avg # of iterations =  2.0

     negative rho (up, down):  6.452E-04 1.659E-03

     total cpu time spent up to now is     3110.8 secs

     total energy              =    -732.72310186 Ry
     Harris-Foulkes estimate   =    -732.72310186 Ry
     estimated scf accuracy    <          1.5E-09 Ry

     total magnetization       =     1.00 Bohr mag/cell
     absolute magnetization    =     1.07 Bohr mag/cell

     iteration # 29     ecut=    70.00 Ry     beta= 0.70
     Davidson diagonalization with overlap
     ethr =  4.13E-13,  avg # of iterations =  2.0

     negative rho (up, down):  6.452E-04 1.660E-03

     total cpu time spent up to now is     3206.3 secs

     total energy              =    -732.72310186 Ry
     Harris-Foulkes estimate   =    -732.72310186 Ry
     estimated scf accuracy    <          1.1E-09 Ry

     total magnetization       =     1.00 Bohr mag/cell
     absolute magnetization    =     1.07 Bohr mag/cell

     iteration # 30     ecut=    70.00 Ry     beta= 0.70
     Davidson diagonalization with overlap
     ethr =  4.13E-13,  avg # of iterations =  2.5

     negative rho (up, down):  6.452E-04 1.659E-03

     total cpu time spent up to now is     3309.8 secs

     total energy              =    -732.72310186 Ry
     Harris-Foulkes estimate   =    -732.72310186 Ry
     estimated scf accuracy    <          1.0E-10 Ry

     total magnetization       =     1.00 Bohr mag/cell
     absolute magnetization    =     1.07 Bohr mag/cell

     iteration # 31     ecut=    70.00 Ry     beta= 0.70
     Davidson diagonalization with overlap
     ethr =  1.00E-13,  avg # of iterations =  2.5

     negative rho (up, down):  6.452E-04 1.659E-03

     total cpu time spent up to now is     3407.9 secs

     total energy              =    -732.72310186 Ry
     Harris-Foulkes estimate   =    -732.72310186 Ry
     estimated scf accuracy    <          1.6E-09 Ry

     total magnetization       =     1.00 Bohr mag/cell
     absolute magnetization    =     1.07 Bohr mag/cell

     iteration # 32     ecut=    70.00 Ry     beta= 0.70
     Davidson diagonalization with overlap
     ethr =  1.00E-13,  avg # of iterations =  2.5

     negative rho (up, down):  6.452E-04 1.659E-03

     total cpu time spent up to now is     3512.6 secs

     total energy              =    -732.72310186 Ry
     Harris-Foulkes estimate   =    -732.72310186 Ry
     estimated scf accuracy    <          3.3E-10 Ry

     total magnetization       =     1.00 Bohr mag/cell
     absolute magnetization    =     1.07 Bohr mag/cell

     iteration # 33     ecut=    70.00 Ry     beta= 0.70
     Davidson diagonalization with overlap
     ethr =  1.00E-13,  avg # of iterations =  2.5

     negative rho (up, down):  6.452E-04 1.659E-03

     Magnetic moment per site:
     atom:    1    charge:    0.2086    magn:   -0.0000    constr:    0.0000
     atom:    2    charge:    0.2084    magn:   -0.0000    constr:    0.0000
     atom:    3    charge:    1.7104    magn:    0.0017    constr:    0.0000
     atom:    4    charge:    1.7099    magn:    0.0017    constr:    0.0000
     atom:    5    charge:    1.7116    magn:   -0.0001    constr:    0.0000
     atom:    6    charge:    1.7092    magn:   -0.0001    constr:    0.0000
     atom:    7    charge:    1.7116    magn:   -0.0001    constr:    0.0000
     atom:    8    charge:    1.7099    magn:    0.0018    constr:    0.0000
     atom:    9    charge:    1.7104    magn:    0.0017    constr:    0.0000
     atom:   10    charge:    1.7117    magn:   -0.0011    constr:    0.0000
     atom:   11    charge:    1.7106    magn:    0.0006    constr:    0.0000
     atom:   12    charge:    1.7117    magn:   -0.0011    constr:    0.0000
     atom:   13    charge:    1.7106    magn:    0.0006    constr:    0.0000
     atom:   14    charge:    1.7115    magn:   -0.0011    constr:    0.0000
     atom:   15    charge:    1.7075    magn:    0.0073    constr:    0.0000
     atom:   16    charge:    1.7051    magn:    0.0132    constr:    0.0000
     atom:   17    charge:    1.7160    magn:    0.0030    constr:    0.0000
     atom:   18    charge:    1.7051    magn:    0.0132    constr:    0.0000
     atom:   19    charge:    1.7076    magn:    0.0075    constr:    0.0000
     atom:   20    charge:    1.7115    magn:   -0.0012    constr:    0.0000
     atom:   21    charge:    1.7106    magn:    0.0006    constr:    0.0000
     atom:   22    charge:    1.7117    magn:   -0.0011    constr:    0.0000
     atom:   23    charge:    1.7104    magn:    0.0017    constr:    0.0000
     atom:   24    charge:    1.7099    magn:    0.0018    constr:    0.0000
     atom:   25    charge:    1.7076    magn:    0.0074    constr:    0.0000
     atom:   26    charge:    1.7053    magn:    0.0136    constr:    0.0000
     atom:   27    charge:    1.8121    magn:    0.0788    constr:    0.0000
     atom:   28    charge:    7.0215    magn:    0.1538    constr:    0.0000
     atom:   29    charge:    1.8124    magn:    0.0808    constr:    0.0000
     atom:   30    charge:    1.7051    magn:    0.0132    constr:    0.0000
     atom:   31    charge:    1.7076    magn:    0.0075    constr:    0.0000
     atom:   32    charge:    1.7099    magn:    0.0018    constr:    0.0000
     atom:   33    charge:    1.7116    magn:   -0.0001    constr:    0.0000
     atom:   34    charge:    1.7099    magn:    0.0000    constr:    0.0000
     atom:   35    charge:    1.7116    magn:   -0.0001    constr:    0.0000
     atom:   36    charge:    1.7092    magn:   -0.0001    constr:    0.0000
     atom:   37    charge:    1.7160    magn:    0.0029    constr:    0.0000
     atom:   38    charge:    1.7053    magn:    0.0136    constr:    0.0000
     atom:   39    charge:    1.8121    magn:    0.0788    constr:    0.0000
     atom:   40    charge:    1.7051    magn:    0.0132    constr:    0.0000
     atom:   41    charge:    1.7160    magn:    0.0030    constr:    0.0000
     atom:   42    charge:    1.7092    magn:   -0.0001    constr:    0.0000
     atom:   43    charge:    1.7116    magn:   -0.0001    constr:    0.0000
     atom:   44    charge:    1.7099    magn:    0.0000    constr:    0.0000
     atom:   45    charge:    1.7158    magn:   -0.0008    constr:    0.0000
     atom:   46    charge:    1.7099    magn:    0.0000    constr:    0.0000
     atom:   47    charge:    1.7116    magn:   -0.0001    constr:    0.0000
     atom:   48    charge:    1.7099    magn:    0.0018    constr:    0.0000
     atom:   49    charge:    1.7076    magn:    0.0074    constr:    0.0000
     atom:   50    charge:    1.7115    magn:   -0.0011    constr:    0.0000
     atom:   51    charge:    1.7075    magn:    0.0073    constr:    0.0000
     atom:   52    charge:    1.7099    magn:    0.0017    constr:    0.0000

     total cpu time spent up to now is     3614.3 secs

     End of self-consistent calculation

 ------ SPIN UP ------------


          k = 0.0000 0.0000 0.0000 ( 87777 PWs)   bands (ev):

   -19.8984 -19.0533 -19.0530 -18.9588 -18.9580 -18.8961 -18.8222 -17.2173
   -17.2165 -17.1812 -17.1382 -17.1367 -16.8597 -16.3724 -16.3721 -16.2284
   -16.2278 -16.2056 -15.8182 -14.4562 -14.4560 -14.1530 -14.0574 -14.0570
   -13.6060 -13.2176 -13.2173 -13.1314 -12.9899 -12.9893 -12.6875 -12.3647
   -12.3641 -11.7545 -11.6489 -11.6488 -11.2349 -10.9785 -10.9784  -9.5521
    -9.3834  -9.3829  -9.2766  -9.2653  -9.2651  -9.2575  -9.1502  -9.1486
    -9.1031  -9.1027  -8.9935  -8.7454  -8.7452  -7.9895  -7.9370  -7.8791
    -7.7028  -7.7021  -7.5689  -7.5688  -6.9613  -6.8746  -6.8670  -6.8440
    -6.8337  -6.7976  -6.7399  -6.7390  -6.6311  -6.6304  -6.5877  -6.5804
    -6.5801  -6.5307  -6.4073  -6.4062  -6.3772  -5.6206  -5.6205  -5.0298
    -5.0193  -4.9574  -4.8854  -4.8850  -4.7902  -4.7524  -4.7515  -4.5680
    -4.5651  -4.4942  -3.8817  -3.8811  -3.8116  -3.8074  -3.8072  -3.6695
    -3.6663  -3.4339  -1.9164  -1.8599  -1.8595  -1.7667  -1.7644  -1.2513
    -0.8677  -0.8674   0.8878   0.9227   0.9252   1.0727   1.0729   1.4801
     2.7696   2.7806   2.7865   2.8253   2.9167   2.9186   3.4064   3.8731
     3.8889   4.0231   4.0290   4.0466   4.0980   4.4594

     occupation numbers 
     1.0000   1.0000   1.0000   1.0000   1.0000   1.0000   1.0000   1.0000
     1.0000   1.0000   1.0000   1.0000   1.0000   1.0000   1.0000   1.0000
     1.0000   1.0000   1.0000   1.0000   1.0000   1.0000   1.0000   1.0000
     1.0000   1.0000   1.0000   1.0000   1.0000   1.0000   1.0000   1.0000
     1.0000   1.0000   1.0000   1.0000   1.0000   1.0000   1.0000   1.0000
     1.0000   1.0000   1.0000   1.0000   1.0000   1.0000   1.0000   1.0000
     1.0000   1.0000   1.0000   1.0000   1.0000   1.0000   1.0000   1.0000
     1.0000   1.0000   1.0000   1.0000   1.0000   1.0000   1.0000   1.0000
     1.0000   1.0000   1.0000   1.0000   1.0000   1.0000   1.0000   1.0000
     1.0000   1.0000   1.0000   1.0000   1.0000   1.0000   1.0000   1.0000
     1.0000   1.0000   1.0000   1.0000   1.0000   1.0000   1.0000   1.0000
     1.0000   1.0000   1.0000   1.0000   1.0000   1.0000   1.0000   1.0000
     1.0000   1.0000   1.0000   1.0000   1.0000   1.0000   1.0000   1.0000
     0.5078   0.4922   0.0000   0.0000   0.0000   0.0000   0.0000   0.0000
     0.0000   0.0000   0.0000   0.0000   0.0000   0.0000   0.0000   0.0000
     0.0000   0.0000   0.0000   0.0000   0.0000   0.0000

 ------ SPIN DOWN ----------


          k = 0.0000 0.0000 0.0000 ( 87777 PWs)   bands (ev):

   -19.8720 -19.0195 -19.0188 -18.9515 -18.9505 -18.8928 -18.7436 -17.1771
   -17.1768 -17.1643 -17.1134 -17.1128 -16.8247 -16.3338 -16.3337 -16.2046
   -16.2046 -16.1980 -15.7406 -14.3630 -14.3622 -14.1262 -14.0486 -14.0482
   -13.5644 -13.1917 -13.1914 -13.1173 -12.9505 -12.9505 -12.6211 -12.2514
   -12.2512 -11.7339 -11.6131 -11.6128 -11.1296 -10.8483 -10.8476  -9.5035
    -9.3618  -9.3615  -9.2696  -9.2568  -9.2567  -9.2468  -9.0464  -9.0463
    -8.9656  -8.9655  -8.8662  -8.7022  -8.7019  -7.9768  -7.9107  -7.8554
    -7.6513  -7.6508  -7.5499  -7.5496  -6.9120  -6.8696  -6.8654  -6.8263
    -6.7884  -6.7869  -6.7250  -6.7168  -6.6074  -6.6066  -6.5792  -6.5757
    -6.5754  -6.5238  -6.3702  -6.3626  -6.3613  -5.5919  -5.5916  -5.0086
    -4.9462  -4.8635  -4.8630  -4.8029  -4.7838  -4.7504  -4.7491  -4.5564
    -4.5536  -4.4758  -3.8759  -3.8754  -3.8123  -3.7806  -3.7805  -3.6476
    -3.6441  -3.3908  -1.9103  -1.8571  -1.8567  -1.7403  -1.7376  -1.2103
    -0.4747  -0.4680   0.8932   0.9271   0.9297   1.0997   1.1000   1.4944
     2.7723   2.7841   2.7890   2.8266   2.9481   2.9500   3.4180   3.8748
     3.8927   4.0234   4.0291   4.0463   4.1021   4.4634

     occupation numbers 
     1.0000   1.0000   1.0000   1.0000   1.0000   1.0000   1.0000   1.0000
     1.0000   1.0000   1.0000   1.0000   1.0000   1.0000   1.0000   1.0000
     1.0000   1.0000   1.0000   1.0000   1.0000   1.0000   1.0000   1.0000
     1.0000   1.0000   1.0000   1.0000   1.0000   1.0000   1.0000   1.0000
     1.0000   1.0000   1.0000   1.0000   1.0000   1.0000   1.0000   1.0000
     1.0000   1.0000   1.0000   1.0000   1.0000   1.0000   1.0000   1.0000
     1.0000   1.0000   1.0000   1.0000   1.0000   1.0000   1.0000   1.0000
     1.0000   1.0000   1.0000   1.0000   1.0000   1.0000   1.0000   1.0000
     1.0000   1.0000   1.0000   1.0000   1.0000   1.0000   1.0000   1.0000
     1.0000   1.0000   1.0000   1.0000   1.0000   1.0000   1.0000   1.0000
     1.0000   1.0000   1.0000   1.0000   1.0000   1.0000   1.0000   1.0000
     1.0000   1.0000   1.0000   1.0000   1.0000   1.0000   1.0000   1.0000
     1.0000   1.0000   1.0000   1.0000   1.0000   1.0000   1.0000   1.0000
     0.0000   0.0000   0.0000   0.0000   0.0000   0.0000   0.0000   0.0000
     0.0000   0.0000   0.0000   0.0000   0.0000   0.0000   0.0000   0.0000
     0.0000   0.0000   0.0000   0.0000   0.0000   0.0000

     the Fermi energy is    -0.8657 ev

!    total energy              =    -732.72310186 Ry
     Harris-Foulkes estimate   =    -732.72310186 Ry
     estimated scf accuracy    <          4.5E-11 Ry

     The total energy is the sum of the following terms:

     one-electron contribution =   -2489.94344333 Ry
     hartree contribution      =    1300.90882008 Ry
     xc contribution           =    -273.74771029 Ry
     ewald contribution        =     730.05955977 Ry
     smearing contrib. (-TS)   =      -0.00032810 Ry

     total magnetization       =     1.00 Bohr mag/cell
     absolute magnetization    =     1.07 Bohr mag/cell

     convergence has been achieved in  33 iterations

     negative rho (up, down):  6.452E-04 1.659E-03

     Forces acting on atoms (cartesian axes, Ry/au):

     atom    1 type  1   force =     0.00018869   -0.00010894   -0.00433722
     atom    2 type  1   force =     0.00015164   -0.00008755    0.00608062
     atom    3 type  2   force =     0.00890838   -0.00514325    0.00000898
     atom    4 type  2   force =    -0.00737115    0.00608399    0.00000078
     atom    5 type  2   force =    -0.00069019   -0.00354266    0.00000385
     atom    6 type  2   force =     0.00450905    0.00261602   -0.00000683
     atom    7 type  2   force =    -0.00339912    0.00115742   -0.00000697
     atom    8 type  2   force =     0.00151353   -0.00930336    0.00000192
     atom    9 type  2   force =    -0.00000372    0.01014736    0.00000282
     atom   10 type  2   force =    -0.00002177   -0.00235514    0.00000221
     atom   11 type  2   force =     0.00084639    0.00046555   -0.00000457
     atom   12 type  2   force =    -0.00208916    0.00120618    0.00000324
     atom   13 type  2   force =     0.00002002   -0.00096578   -0.00000457
     atom   14 type  2   force =     0.00005867   -0.00049254   -0.00000517
     atom   15 type  2   force =     0.01130516   -0.01038684   -0.00000010
     atom   16 type  2   force =    -0.02029266    0.00854669    0.00004324
     atom   17 type  2   force =    -0.01611693   -0.00954371    0.00001590
     atom   18 type  2   force =    -0.00289726   -0.02087561    0.00004770
     atom   19 type  2   force =    -0.00343011    0.01481663    0.00002795
     atom   20 type  2   force =    -0.00046513    0.00026855   -0.00000063
     atom   21 type  2   force =    -0.00084591    0.00048838   -0.00000281
     atom   22 type  2   force =     0.00202873    0.00119642    0.00000221
     atom   23 type  2   force =    -0.00878973   -0.00507046    0.00000282
     atom   24 type  2   force =     0.00715826    0.00599084    0.00000515
     atom   25 type  2   force =    -0.01097659   -0.01063799    0.00005798
     atom   26 type  2   force =     0.01935023    0.00782133   -0.00037076
     atom   27 type  2   force =     0.00199991   -0.86339725   -0.00026293
     atom   28 type  3   force =    -0.00141347    0.00081607   -0.00055186
     atom   29 type  2   force =    -0.74874127    0.43228597   -0.00037778
     atom   30 type  2   force =     0.01663018    0.01294691    0.00004770
     atom   31 type  2   force =    -0.01454663   -0.00443776    0.00002795
     atom   32 type  2   force =     0.00881371    0.00334092    0.00000192
     atom   33 type  2   force =    -0.00270191    0.00236501   -0.00000697
     atom   34 type  2   force =     0.00357801    0.00209332   -0.00000256
     atom   35 type  2   force =     0.00075806   -0.00339572   -0.00002964
     atom   36 type  2   force =    -0.00423267    0.00244373    0.00006537
     atom   37 type  2   force =     0.01624149   -0.00937703    0.00005676
     atom   38 type  2   force =     0.00290164   -0.02066845   -0.00037076
     atom   39 type  2   force =     0.74872391    0.42996665   -0.00026293
     atom   40 type  2   force =    -0.01754798    0.01330061    0.00004324
     atom   41 type  2   force =     0.00020663    0.01872953    0.00001590
     atom   42 type  2   force =    -0.00001101   -0.00521296   -0.00000683
     atom   43 type  2   force =     0.00272294    0.00236906    0.00000385
     atom   44 type  2   force =    -0.00359879    0.00207776    0.00000423
     atom   45 type  2   force =     0.00000735   -0.00000424    0.00001116
     atom   46 type  2   force =    -0.00002387   -0.00414530   -0.00000256
     atom   47 type  2   force =     0.00331981    0.00104136   -0.00002964
     atom   48 type  2   force =    -0.00160909   -0.00919465    0.00000515
     atom   49 type  2   force =     0.00372448    0.01482500    0.00005798
     atom   50 type  2   force =     0.00045588    0.00019546   -0.00000517
     atom   51 type  2   force =     0.01464785   -0.00459714   -0.00000010
     atom   52 type  2   force =    -0.00895446    0.00334161    0.00000078
     The non-local contrib.  to forces
     atom    1 type  1   force =    -0.00016255    0.00009385    0.12962583
     atom    2 type  1   force =    -0.00005077    0.00002931   -0.12974364
     atom    3 type  2   force =     0.00009681   -0.00005589   -0.00004741
     atom    4 type  2   force =     0.01267107    0.01014345   -0.00004555
     atom    5 type  2   force =     0.00801004    0.00169880   -0.00006869
     atom    6 type  2   force =     0.00696220    0.00398353   -0.00006238
     atom    7 type  2   force =     0.00549758    0.00601698   -0.00004730
     atom    8 type  2   force =     0.01491595    0.00585450   -0.00002872
     atom    9 type  2   force =    -0.00001850    0.00013359   -0.00004983
     atom   10 type  2   force =    -0.00001607   -0.00116755   -0.00004501
     atom   11 type  2   force =    -0.00659320   -0.00382016   -0.00006769
     atom   12 type  2   force =    -0.00107591    0.00062118   -0.00004684
     atom   13 type  2   force =     0.00001176    0.00761995   -0.00006769
     atom   14 type  2   force =    -0.00004671    0.00740389   -0.00016536
     atom   15 type  2   force =     0.01388247    0.03007933   -0.00010627
     atom   16 type  2   force =     0.05320724    0.05468786   -0.00011634
     atom   17 type  2   force =    -0.00993670   -0.00616016   -0.00004022
     atom   18 type  2   force =     0.07311380    0.01875541   -0.00001261
     atom   19 type  2   force =     0.03234058   -0.00279108   -0.00006062
     atom   20 type  2   force =     0.00628706   -0.00362983   -0.00002274
     atom   21 type  2   force =     0.00652374   -0.00376648   -0.00002969
     atom   22 type  2   force =     0.00100310    0.00059770   -0.00004501
     atom   23 type  2   force =    -0.00012494   -0.00005078   -0.00004983
     atom   24 type  2   force =    -0.01257274    0.01002437   -0.00015217
     atom   25 type  2   force =    -0.01366273    0.02965103   -0.00017461
     atom   26 type  2   force =    -0.05186643    0.05392184    0.00016660
     atom   27 type  2   force =     0.00140570   -0.43563332   -0.00036179
     atom   28 type  3   force =     0.00384688   -0.00222100    0.00058675
     atom   29 type  2   force =    -0.38120236    0.22008728   -0.00004802
     atom   30 type  2   force =     0.02031423   -0.07269611   -0.00001261
     atom   31 type  2   force =     0.01858743   -0.02661223   -0.00006062
     atom   32 type  2   force =     0.00238783   -0.01584484   -0.00002872
     atom   33 type  2   force =    -0.00246206   -0.00776953   -0.00004730
     atom   34 type  2   force =    -0.01223181   -0.00703543   -0.00005058
     atom   35 type  2   force =    -0.00798558    0.00186409   -0.00019493
     atom   36 type  2   force =    -0.00718418    0.00414779   -0.00027120
     atom   37 type  2   force =     0.00965345   -0.00557342    0.00088911
     atom   38 type  2   force =    -0.07263090    0.01795673    0.00016660
     atom   39 type  2   force =     0.37797237    0.21659928   -0.00036179
     atom   40 type  2   force =    -0.02075746   -0.07342275   -0.00011634
     atom   41 type  2   force =     0.00036651    0.01168551   -0.00004022
     atom   42 type  2   force =     0.00003126   -0.00802121   -0.00006238
     atom   43 type  2   force =     0.00253381   -0.00778630   -0.00006869
     atom   44 type  2   force =     0.01224873   -0.00707181   -0.00003334
     atom   45 type  2   force =     0.00002360   -0.00001362   -0.00003537
     atom   46 type  2   force =    -0.00002304    0.01411077   -0.00005058
     atom   47 type  2   force =    -0.00560714    0.00598367   -0.00019493
     atom   48 type  2   force =    -0.01496773    0.00587613   -0.00015217
     atom   49 type  2   force =    -0.03250991   -0.00299324   -0.00017461
     atom   50 type  2   force =    -0.00643531   -0.00366149   -0.00016536
     atom   51 type  2   force =    -0.01910823   -0.02706224   -0.00010627
     atom   52 type  2   force =    -0.00244895   -0.01604519   -0.00004555
     The ionic contribution  to forces
     atom    1 type  1   force =     0.14928377   -0.08618903    1.64777321
     atom    2 type  1   force =     0.08456621   -0.04882432    2.71975158
     atom    3 type  2   force =     0.02975866   -0.01718116   -0.02576687
     atom    4 type  2   force =    -0.22999560   -0.35987859   -0.03222798
     atom    5 type  2   force =    -0.29020749   -0.23428388   -0.02505385
     atom    6 type  2   force =    -0.62643397   -0.35224582   -0.03222800
     atom    7 type  2   force =    -0.31582501   -0.12343886   -0.02576686
     atom    8 type  2   force =    -0.37700614    0.00782976   -0.02576687
     atom    9 type  2   force =     0.04965562    0.06143480   -0.03222791
     atom   10 type  2   force =     0.03217455    0.09619417   -0.02505381
     atom   11 type  2   force =     0.23062417    0.14257687   -0.03222794
     atom   12 type  2   force =     0.07400013   -0.04272399   -0.02576686
     atom   13 type  2   force =    -0.00816310   -0.27101482   -0.03222794
     atom   14 type  2   force =    -0.03592828   -0.77258669   -0.06873037
     atom   15 type  2   force =    -0.37500399   -0.96588625   -0.06873047
     atom   16 type  2   force =    -1.36863750   -2.21995884   -0.12190849
     atom   17 type  2   force =    -1.68149979   -0.92932779   -0.06873061
     atom   18 type  2   force =    -2.58670959    0.02217543   -0.06873066
     atom   19 type  2   force =    -0.96337404    0.19959824   -0.03222802
     atom   20 type  2   force =    -0.60895282    0.35157907   -0.02505387
     atom   21 type  2   force =    -0.18913162    0.10919520   -0.01970191
     atom   22 type  2   force =    -0.06721932   -0.07596107   -0.02505381
     atom   23 type  2   force =    -0.02837628   -0.07372043   -0.03222791
     atom   24 type  2   force =     0.22443143   -0.43307723   -0.06873022
     atom   25 type  2   force =     0.30066693   -1.03207172   -0.12190791
     atom   26 type  2   force =     1.23822250   -2.29896400   -0.26841800
     atom   27 type  2   force =    -0.13362815   -7.76121587   -0.26841936
     atom   28 type  3   force =    -0.36747833    0.21216371   -0.73815511
     atom   29 type  2   force =    -6.78501135    3.91732813   -0.12190878
     atom   30 type  2   force =    -1.31255928    2.22906850   -0.06873066
     atom   31 type  2   force =    -0.65454416    0.73450727   -0.03222802
     atom   32 type  2   force =    -0.19528384    0.32258201   -0.02576687
     atom   33 type  2   force =    -0.05101131    0.33523192   -0.02576686
     atom   34 type  2   force =     0.10871182    0.00542747   -0.03222789
     atom   35 type  2   force =     0.33237006   -0.30011285   -0.06873017
     atom   36 type  2   force =     0.70719346   -0.40829834   -0.12190761
     atom   37 type  2   force =     1.70486242   -0.98430278   -0.26841731
     atom   38 type  2   force =     2.61007247    0.07714985   -0.26841800
     atom   39 type  2   force =     6.65459604    3.99633331   -0.26841936
     atom   40 type  2   force =     1.23822200    2.29525426   -0.12190849
     atom   41 type  2   force =    -0.03592842    1.92088543   -0.06873061
     atom   42 type  2   force =    -0.00816316    0.71863064   -0.03222800
     atom   43 type  2   force =     0.05779205    0.36846901   -0.02505385
     atom   44 type  2   force =    -0.06721936    0.03880912   -0.01970191
     atom   45 type  2   force =     0.03217450   -0.01857595   -0.02505379
     atom   46 type  2   force =     0.04965558   -0.09686093   -0.03222789
     atom   47 type  2   force =     0.42609039   -0.13778449   -0.06873017
     atom   48 type  2   force =     0.48727159    0.02217529   -0.06873022
     atom   49 type  2   force =     1.04413379    0.25565067   -0.12190791
     atom   50 type  2   force =     0.65111556    0.41740815   -0.06873037
     atom   51 type  2   force =     0.64898003    0.80770611   -0.06873047
     atom   52 type  2   force =     0.19666619    0.37912132   -0.03222798
     The local contribution  to forces
     atom    1 type  1   force =    -0.14893221    0.08598605   -1.78173625
     atom    2 type  1   force =    -0.08436346    0.04870726   -2.58392729
     atom    3 type  2   force =    -0.02099924    0.01212392    0.02582221
     atom    4 type  2   force =     0.21022084    0.35596234    0.03227369
     atom    5 type  2   force =     0.28163796    0.22909025    0.02512562
     atom    6 type  2   force =     0.62411854    0.35095729    0.03228301
     atom    7 type  2   force =     0.30703590    0.11866758    0.02580590
     atom    8 type  2   force =     0.36385940   -0.02282960    0.02579692
     atom    9 type  2   force =    -0.04964072   -0.05148082    0.03227994
     atom   10 type  2   force =    -0.03218006   -0.09738710    0.02510088
     atom   11 type  2   force =    -0.22330644   -0.13836265    0.03229008
     atom   12 type  2   force =    -0.07501807    0.04331170    0.02581585
     atom   13 type  2   force =     0.00817235    0.26257038    0.03229008
     atom   14 type  2   force =     0.03603350    0.76480496    0.06888830
     atom   15 type  2   force =     0.37262454    0.92605735    0.06883558
     atom   16 type  2   force =     1.29622713    2.17472639    0.12206722
     atom   17 type  2   force =     1.67512872    0.92582925    0.06878709
     atom   18 type  2   force =     2.51201948   -0.06131851    0.06879114
     atom   19 type  2   force =     0.92824517   -0.18213251    0.03231561
     atom   20 type  2   force =     0.60230051   -0.34773836    0.02507652
     atom   21 type  2   force =     0.18188431   -0.10501095    0.01972874
     atom   22 type  2   force =     0.06824967    0.07656230    0.02510088
     atom   23 type  2   force =     0.01976334    0.06873053    0.03227994
     atom   24 type  2   force =    -0.20496392    0.42918523    0.06888530
     atom   25 type  2   force =    -0.29817535    0.99241291    0.12213831
     atom   26 type  2   force =    -1.16806296    2.25375728    0.26788268
     atom   27 type  2   force =     0.13423482    7.32200316    0.26850929
     atom   28 type  3   force =     0.36297818   -0.20956562    0.73690674
     atom   29 type  2   force =     6.40749713   -3.69937019    0.12158037
     atom   30 type  2   force =     1.30911313   -2.14481344    0.06879114
     atom   31 type  2   force =     0.62185397   -0.71281765    0.03231561
     atom   32 type  2   force =     0.20170071   -0.30369669    0.02579692
     atom   33 type  2   force =     0.05074882   -0.32523468    0.02580590
     atom   34 type  2   force =    -0.09309777    0.00358862    0.03227522
     atom   35 type  2   force =    -0.32375667    0.29490264    0.06889256
     atom   36 type  2   force =    -0.70438363    0.40667608    0.12224072
     atom   37 type  2   force =    -1.69808617    0.98039051    0.26760033
     atom   38 type  2   force =    -2.53584253   -0.11530645    0.26788268
     atom   39 type  2   force =    -6.27392333   -3.77725235    0.26850929
     atom   40 type  2   force =    -1.23525473   -2.20992882    0.12206722
     atom   41 type  2   force =     0.03577271   -1.91361866    0.06878709
     atom   42 type  2   force =     0.00812134   -0.71598115    0.03228301
     atom   43 type  2   force =    -0.05757899   -0.35845075    0.02512562
     atom   44 type  2   force =     0.05156819   -0.02977291    0.01973919
     atom   45 type  2   force =    -0.03219013    0.01858498    0.02509996
     atom   46 type  2   force =    -0.04965673    0.07883072    0.03227522
     atom   47 type  2   force =    -0.41727152    0.13293018    0.06889256
     atom   48 type  2   force =    -0.47416727   -0.03708865    0.06888530
     atom   49 type  2   force =    -1.00854246   -0.23797903    0.12213831
     atom   50 type  2   force =    -0.64432378   -0.41360840    0.06888830
     atom   51 type  2   force =    -0.61567692   -0.78573099    0.06883558
     atom   52 type  2   force =    -0.20316201   -0.36003776    0.03227369
     The core correction contribution to forces
     atom    1 type  1   force =     0.00000000    0.00000000    0.00000000
     atom    2 type  1   force =     0.00000000    0.00000000    0.00000000
     atom    3 type  2   force =     0.00005300   -0.00003060    0.00000112
     atom    4 type  2   force =    -0.00026658   -0.00014363    0.00000069
     atom    5 type  2   force =    -0.00012942   -0.00004753    0.00000084
     atom    6 type  2   force =    -0.00013640   -0.00007779    0.00000062
     atom    7 type  2   force =    -0.00010636   -0.00008721    0.00000136
     atom    8 type  2   force =    -0.00025412   -0.00015727    0.00000065
     atom    9 type  2   force =     0.00000060    0.00005981    0.00000069
     atom   10 type  2   force =     0.00000045    0.00000496    0.00000022
     atom   11 type  2   force =     0.00012241    0.00007093    0.00000105
     atom   12 type  2   force =     0.00000533   -0.00000308    0.00000117
     atom   13 type  2   force =    -0.00000022   -0.00014148    0.00000105
     atom   14 type  2   force =     0.00000097   -0.00011515    0.00000233
     atom   15 type  2   force =    -0.00019708   -0.00063787    0.00000114
     atom   16 type  2   force =    -0.00109037   -0.00090797    0.00000092
     atom   17 type  2   force =     0.00019151    0.00011723   -0.00000028
     atom   18 type  2   force =    -0.00131821   -0.00048547   -0.00000009
     atom   19 type  2   force =    -0.00063915    0.00014200    0.00000106
     atom   20 type  2   force =    -0.00009787    0.00005651   -0.00000046
     atom   21 type  2   force =    -0.00012113    0.00006993    0.00000011
     atom   22 type  2   force =    -0.00000407   -0.00000287    0.00000022
     atom   23 type  2   force =    -0.00005150   -0.00003042    0.00000069
     atom   24 type  2   force =     0.00026322   -0.00014195    0.00000230
     atom   25 type  2   force =     0.00019512   -0.00063007    0.00000226
     atom   26 type  2   force =     0.00105741   -0.00089332   -0.00000196
     atom   27 type  2   force =    -0.00001014    0.01144891    0.00000901
     atom   28 type  3   force =    -0.00078640    0.00045402    0.00010997
     atom   29 type  2   force =     0.00997542   -0.00575931   -0.00000125
     atom   30 type  2   force =    -0.00023868    0.00138434   -0.00000009
     atom   31 type  2   force =    -0.00044255    0.00048252    0.00000106
     atom   32 type  2   force =     0.00000914    0.00029871    0.00000065
     atom   33 type  2   force =     0.00002235    0.00013571    0.00000136
     atom   34 type  2   force =     0.00019549    0.00011196    0.00000076
     atom   35 type  2   force =     0.00012961   -0.00005004    0.00000298
     atom   36 type  2   force =     0.00014115   -0.00008149    0.00000355
     atom   37 type  2   force =    -0.00018906    0.00010915   -0.00001528
     atom   38 type  2   force =     0.00130234   -0.00046908   -0.00000196
     atom   39 type  2   force =    -0.00992012   -0.00571567    0.00000901
     atom   40 type  2   force =     0.00024114    0.00139827    0.00000092
     atom   41 type  2   force =    -0.00000577   -0.00022446   -0.00000028
     atom   42 type  2   force =    -0.00000083    0.00015702    0.00000062
     atom   43 type  2   force =    -0.00002355    0.00013585    0.00000084
     atom   44 type  2   force =    -0.00019568    0.00011298    0.00000035
     atom   45 type  2   force =    -0.00000058    0.00000034    0.00000043
     atom   46 type  2   force =     0.00000078   -0.00022528    0.00000076
     atom   47 type  2   force =     0.00010814   -0.00008722    0.00000298
     atom   48 type  2   force =     0.00025455   -0.00015698    0.00000230
     atom   49 type  2   force =     0.00064322    0.00014605    0.00000226
     atom   50 type  2   force =     0.00010021    0.00005673    0.00000233
     atom   51 type  2   force =     0.00045387    0.00048961    0.00000114
     atom   52 type  2   force =    -0.00000890    0.00030269    0.00000069
     The Hubbard contrib.    to forces
     atom    1 type  1   force =     0.00000000    0.00000000    0.00000000
     atom    2 type  1   force =     0.00000000    0.00000000    0.00000000
     atom    3 type  2   force =     0.00000000    0.00000000    0.00000000
     atom    4 type  2   force =     0.00000000    0.00000000    0.00000000
     atom    5 type  2   force =     0.00000000    0.00000000    0.00000000
     atom    6 type  2   force =     0.00000000    0.00000000    0.00000000
     atom    7 type  2   force =     0.00000000    0.00000000    0.00000000
     atom    8 type  2   force =     0.00000000    0.00000000    0.00000000
     atom    9 type  2   force =     0.00000000    0.00000000    0.00000000
     atom   10 type  2   force =     0.00000000    0.00000000    0.00000000
     atom   11 type  2   force =     0.00000000    0.00000000    0.00000000
     atom   12 type  2   force =     0.00000000    0.00000000    0.00000000
     atom   13 type  2   force =     0.00000000    0.00000000    0.00000000
     atom   14 type  2   force =     0.00000000    0.00000000    0.00000000
     atom   15 type  2   force =     0.00000000    0.00000000    0.00000000
     atom   16 type  2   force =     0.00000000    0.00000000    0.00000000
     atom   17 type  2   force =     0.00000000    0.00000000    0.00000000
     atom   18 type  2   force =     0.00000000    0.00000000    0.00000000
     atom   19 type  2   force =     0.00000000    0.00000000    0.00000000
     atom   20 type  2   force =     0.00000000    0.00000000    0.00000000
     atom   21 type  2   force =     0.00000000    0.00000000    0.00000000
     atom   22 type  2   force =     0.00000000    0.00000000    0.00000000
     atom   23 type  2   force =     0.00000000    0.00000000    0.00000000
     atom   24 type  2   force =     0.00000000    0.00000000    0.00000000
     atom   25 type  2   force =     0.00000000    0.00000000    0.00000000
     atom   26 type  2   force =     0.00000000    0.00000000    0.00000000
     atom   27 type  2   force =     0.00000000    0.00000000    0.00000000
     atom   28 type  3   force =     0.00000000    0.00000000    0.00000000
     atom   29 type  2   force =     0.00000000    0.00000000    0.00000000
     atom   30 type  2   force =     0.00000000    0.00000000    0.00000000
     atom   31 type  2   force =     0.00000000    0.00000000    0.00000000
     atom   32 type  2   force =     0.00000000    0.00000000    0.00000000
     atom   33 type  2   force =     0.00000000    0.00000000    0.00000000
     atom   34 type  2   force =     0.00000000    0.00000000    0.00000000
     atom   35 type  2   force =     0.00000000    0.00000000    0.00000000
     atom   36 type  2   force =     0.00000000    0.00000000    0.00000000
     atom   37 type  2   force =     0.00000000    0.00000000    0.00000000
     atom   38 type  2   force =     0.00000000    0.00000000    0.00000000
     atom   39 type  2   force =     0.00000000    0.00000000    0.00000000
     atom   40 type  2   force =     0.00000000    0.00000000    0.00000000
     atom   41 type  2   force =     0.00000000    0.00000000    0.00000000
     atom   42 type  2   force =     0.00000000    0.00000000    0.00000000
     atom   43 type  2   force =     0.00000000    0.00000000    0.00000000
     atom   44 type  2   force =     0.00000000    0.00000000    0.00000000
     atom   45 type  2   force =     0.00000000    0.00000000    0.00000000
     atom   46 type  2   force =     0.00000000    0.00000000    0.00000000
     atom   47 type  2   force =     0.00000000    0.00000000    0.00000000
     atom   48 type  2   force =     0.00000000    0.00000000    0.00000000
     atom   49 type  2   force =     0.00000000    0.00000000    0.00000000
     atom   50 type  2   force =     0.00000000    0.00000000    0.00000000
     atom   51 type  2   force =     0.00000000    0.00000000    0.00000000
     atom   52 type  2   force =     0.00000000    0.00000000    0.00000000
     The SCF correction term to forces
     atom    1 type  1   force =     0.00000006   -0.00000003    0.00000004
     atom    2 type  1   force =     0.00000005   -0.00000003    0.00000002
     atom    3 type  2   force =    -0.00000046    0.00000027   -0.00000003
     atom    4 type  2   force =    -0.00000049    0.00000019   -0.00000003
     atom    5 type  2   force =    -0.00000089   -0.00000052   -0.00000002
     atom    6 type  2   force =    -0.00000093   -0.00000142   -0.00000003
     atom    7 type  2   force =    -0.00000084   -0.00000128   -0.00000003
     atom    8 type  2   force =    -0.00000117   -0.00000097   -0.00000003
     atom    9 type  2   force =    -0.00000034   -0.00000023   -0.00000003
     atom   10 type  2   force =    -0.00000025    0.00000015   -0.00000002
     atom   11 type  2   force =    -0.00000016    0.00000034   -0.00000003
     atom   12 type  2   force =    -0.00000025    0.00000015   -0.00000003
     atom   13 type  2   force =    -0.00000038   -0.00000003   -0.00000003
     atom   14 type  2   force =    -0.00000043    0.00000023   -0.00000003
     atom   15 type  2   force =    -0.00000039    0.00000037   -0.00000003
     atom   16 type  2   force =     0.00000123   -0.00000097   -0.00000003
     atom   17 type  2   force =    -0.00000029   -0.00000247   -0.00000003
     atom   18 type  2   force =    -0.00000236   -0.00000270   -0.00000004
     atom   19 type  2   force =    -0.00000229   -0.00000024   -0.00000003
     atom   20 type  2   force =    -0.00000162    0.00000094   -0.00000003
     atom   21 type  2   force =    -0.00000082    0.00000047   -0.00000002
     atom   22 type  2   force =    -0.00000025    0.00000014   -0.00000002
     atom   23 type  2   force =     0.00000003    0.00000041   -0.00000003
     atom   24 type  2   force =     0.00000065    0.00000020   -0.00000003
     atom   25 type  2   force =    -0.00000017   -0.00000036   -0.00000003
     atom   26 type  2   force =     0.00000009   -0.00000070   -0.00000004
     atom   27 type  2   force =    -0.00000194   -0.00000036   -0.00000003
     atom   28 type  3   force =     0.00002655   -0.00001533   -0.00000017
     atom   29 type  2   force =     0.00000027   -0.00000016   -0.00000005
     atom   30 type  2   force =     0.00000116    0.00000340   -0.00000004
     atom   31 type  2   force =    -0.00000093    0.00000211   -0.00000003
     atom   32 type  2   force =     0.00000026    0.00000150   -0.00000003
     atom   33 type  2   force =     0.00000069    0.00000137   -0.00000003
     atom   34 type  2   force =     0.00000067    0.00000047   -0.00000002
     atom   35 type  2   force =     0.00000103    0.00000022   -0.00000003
     atom   36 type  2   force =     0.00000092   -0.00000053   -0.00000003
     atom   37 type  2   force =     0.00000122   -0.00000071   -0.00000004
     atom   38 type  2   force =     0.00000065    0.00000027   -0.00000004
     atom   39 type  2   force =    -0.00000066    0.00000186   -0.00000003
     atom   40 type  2   force =     0.00000146   -0.00000058   -0.00000003
     atom   41 type  2   force =     0.00000199    0.00000148   -0.00000003
     atom   42 type  2   force =     0.00000076    0.00000151   -0.00000003
     atom   43 type  2   force =     0.00000001    0.00000103   -0.00000002
     atom   44 type  2   force =    -0.00000028    0.00000016   -0.00000002
     atom   45 type  2   force =     0.00000035   -0.00000020   -0.00000002
     atom   46 type  2   force =    -0.00000007   -0.00000082   -0.00000002
     atom   47 type  2   force =     0.00000033   -0.00000100   -0.00000003
     atom   48 type  2   force =     0.00000016   -0.00000067   -0.00000003
     atom   49 type  2   force =     0.00000023    0.00000032   -0.00000003
     atom   50 type  2   force =    -0.00000041    0.00000025   -0.00000003
     atom   51 type  2   force =    -0.00000051    0.00000015   -0.00000003
     atom   52 type  2   force =    -0.00000041    0.00000033   -0.00000003

     Total force =     1.498238     Total SCF correction =     0.000032


     Computing stress (Cartesian axis) and pressure


     negative rho (up, down):  6.452E-04 1.659E-03
          total   stress  (Ry/bohr**3)                   (kbar)     P=   41.20
   0.00042102  -0.00000089   0.00000023         61.93     -0.13      0.03
  -0.00000089   0.00041999  -0.00000013         -0.13     61.78     -0.02
   0.00000023  -0.00000013  -0.00000077          0.03     -0.02     -0.11

     kinetic stress (kbar)   4040.88     -0.20     -0.02
                               -0.20   4040.64      0.01
                               -0.02      0.01   4605.05

     local   stress (kbar) -45124.04     10.92    -33.18
                               10.92 -45111.42     19.15
                              -33.18     19.15  45237.33

     nonloc. stress (kbar)    743.09     -0.04      0.01
                               -0.04    743.04     -0.00
                                0.01     -0.00    680.50

     hartree stress (kbar)  20640.37     -5.13     15.44
                               -5.13  20634.44     -8.91
                               15.44     -8.91 -19723.75

     exc-cor stress (kbar)    223.65     -0.00      0.01
                               -0.00    223.64     -0.00
                                0.01     -0.00    180.12

     corecor stress (kbar)  -1339.37      0.01      0.00
                                0.01  -1339.37     -0.00
                                0.00     -0.00  -1325.47

     ewald   stress (kbar)  20877.37     -5.69     17.77
                               -5.69  20870.80    -10.26
                               17.77    -10.26 -29653.89

     hubbard stress (kbar)      0.00      0.00      0.00
                                0.00      0.00      0.00
                                0.00      0.00      0.00

     london  stress (kbar)      0.00      0.00      0.00
                                0.00      0.00      0.00
                                0.00      0.00      0.00

     DFT-D3  stress (kbar)      0.00      0.00      0.00
                                0.00      0.00      0.00
                                0.00      0.00      0.00

     XDM     stress (kbar)      0.00      0.00      0.00
                                0.00      0.00      0.00
                                0.00      0.00      0.00

     dft-nl  stress (kbar)      0.00      0.00      0.00
                                0.00      0.00      0.00
                                0.00      0.00      0.00

     TS-vdW  stress (kbar)      0.00      0.00      0.00
                                0.00      0.00      0.00
                                0.00      0.00      0.00



     BFGS Geometry Optimization

     number of scf cycles    =   1
     number of bfgs steps    =   0

     enthalpy new            =    -732.7231018648 Ry

     new trust radius        =       0.5000000000 bohr
     new conv_thr            =            1.0E-10 Ry

     new unit-cell volume =   8988.05617 a.u.^3 (  1331.89249 Ang^3 )
     density =      0.81548 g/cm^3

CELL_PARAMETERS (alat= 23.29368414)
   1.006087047  -0.000012830   0.000003313
  -0.503054635   0.871290526  -0.000003313
   0.000002688  -0.000001552   0.811252186

ATOMIC_POSITIONS (angstrom)
H        3.720434590   5.011868065   2.800345996
H        3.720474019   5.011845301   3.551959585
C        0.002742883  -0.001583604   0.000002760
C       -0.002287841   1.433856183  -0.000002494
C       -1.240391753   2.146899468  -0.000006988
C       -1.238809206   3.580778598  -0.000012978
C       -2.481405098   4.296336822  -0.000018470
C       -2.479910730   5.725098947  -0.000018463
C       -3.720538959   6.447094969  -0.000023645
C       -3.720562729   7.875228480  -0.000026546
C       -4.960456432   8.592104233  -0.000034066
C       -4.961378545  10.024315216  -0.000034400
C        2.480309896  -0.000328986   0.000006769
C        2.480303533   1.431799659   0.000003864
C        1.243605339   2.144760518  -0.000000012
C        1.233858126   3.582573074   0.000010485
C       -0.005017103   4.293010442  -0.000003311
C       -0.000965025   5.721504323   0.000003717
C       -1.241290222   6.448500985  -0.000007792
C       -1.240395521   7.876004665  -0.000019250
C       -2.480673756   8.592079638  -0.000025363
C       -2.479806928  10.024280566  -0.000026546
C        4.957901147  -0.001624384   0.000017190
C        4.962793181   1.433764183   0.000015191
C        3.717048585   2.144651647   0.000025906
C        3.726367786   3.582317956  -0.000108005
C        2.480868100   4.030083637  -0.000079957
Cu       2.479795475   5.728151392  -0.000171611
C        1.009532769   6.577007961  -0.000124791
C        1.245171756   7.879876541   0.000003717
C       -0.004588420   8.590531339  -0.000007792
C        0.002585868  10.024909184  -0.000018463
C        7.440079270   0.000633288   0.000022365
C        7.441994577   1.432532551   0.000020999
C        6.200965349   2.146849813   0.000007266
C        6.199410434   3.580630694   0.000033612
C        4.965553416   4.292998376   0.000025560
C        4.961427899   5.721504821  -0.000108005
C        3.950901600   6.576256349  -0.000079957
C        3.714952130   7.879953947   0.000010485
C        2.480257706   8.597632683  -0.000003311
C        2.480172526  10.022243910  -0.000012978
C        9.922053295   0.000602881   0.000033846
C        9.920088594   1.432496157   0.000031236
C        8.681037924   2.147862395   0.000027918
C        8.681010068   3.578570332   0.000020999
C        7.441878558   4.296174539   0.000007266
C        7.440342745   5.725005906   0.000015191
C        6.201823844   6.448408640   0.000025906
C        6.200799248   7.875887268   0.000003864
C        4.965007936   8.590418891  -0.000000012
C        4.957722559  10.024846203  -0.000002494



     Writing output data file cobre-sixhollow-2.8.save/
     NEW-OLD atomic charge density approx. for the potential

     Check: negative core charge=   -0.000002

     negative rho (up, down):  1.612E-03 5.652E-04
     extrapolated charge  211.51367, renormalised to  209.00000

     total cpu time spent up to now is     3904.3 secs

     Self-consistent Calculation

     iteration #  1     ecut=    70.00 Ry     beta= 0.70
     Davidson diagonalization with overlap
     ethr =  1.00E-06,  avg # of iterations = 10.5

     negative rho (up, down):  4.102E-04 2.693E-02

     total cpu time spent up to now is     4171.3 secs

     total energy              =    -732.93878736 Ry
     Harris-Foulkes estimate   =    -705.54852206 Ry
     estimated scf accuracy    <       0.37149893 Ry

     total magnetization       =     1.00 Bohr mag/cell
     absolute magnetization    =     1.07 Bohr mag/cell

     iteration #  2     ecut=    70.00 Ry     beta= 0.70
     Davidson diagonalization with overlap
     ethr =  1.78E-04,  avg # of iterations =  7.5

     negative rho (up, down):  4.029E-04 2.917E-02

     total cpu time spent up to now is     4327.8 secs

     total energy              =    -732.89294262 Ry
     Harris-Foulkes estimate   =    -734.05289821 Ry
     estimated scf accuracy    <       5.01012745 Ry

     total magnetization       =     0.36 Bohr mag/cell
     absolute magnetization    =     0.45 Bohr mag/cell

     iteration #  3     ecut=    70.00 Ry     beta= 0.70
     Davidson diagonalization with overlap
     ethr =  1.78E-04,  avg # of iterations =  6.0

     negative rho (up, down):  4.213E-04 2.990E-02

     total cpu time spent up to now is     4453.5 secs

     total energy              =    -733.21928266 Ry
     Harris-Foulkes estimate   =    -733.38947576 Ry
     estimated scf accuracy    <       0.56484594 Ry

     total magnetization       =     1.00 Bohr mag/cell
     absolute magnetization    =     1.09 Bohr mag/cell

     iteration #  4     ecut=    70.00 Ry     beta= 0.70
     Davidson diagonalization with overlap
     ethr =  1.78E-04,  avg # of iterations =  3.0

     negative rho (up, down):  4.492E-04 2.672E-02

     total cpu time spent up to now is     4557.7 secs

     total energy              =    -733.26059569 Ry
     Harris-Foulkes estimate   =    -733.30131760 Ry
     estimated scf accuracy    <       0.12430664 Ry

     total magnetization       =     1.00 Bohr mag/cell
     absolute magnetization    =     1.10 Bohr mag/cell

[...]
     atom   25 type  2   force =     0.00000000    0.00000000    0.00000000
     atom   26 type  2   force =     0.00000000    0.00000000    0.00000000
     atom   27 type  2   force =     0.00000000    0.00000000    0.00000000
     atom   28 type  3   force =     0.00000000    0.00000000    0.00000000
     atom   29 type  2   force =     0.00000000    0.00000000    0.00000000
     atom   30 type  2   force =     0.00000000    0.00000000    0.00000000
     atom   31 type  2   force =     0.00000000    0.00000000    0.00000000
     atom   32 type  2   force =     0.00000000    0.00000000    0.00000000
     atom   33 type  2   force =     0.00000000    0.00000000    0.00000000
     atom   34 type  2   force =     0.00000000    0.00000000    0.00000000
     atom   35 type  2   force =     0.00000000    0.00000000    0.00000000
     atom   36 type  2   force =     0.00000000    0.00000000    0.00000000
     atom   37 type  2   force =     0.00000000    0.00000000    0.00000000
     atom   38 type  2   force =     0.00000000    0.00000000    0.00000000
     atom   39 type  2   force =     0.00000000    0.00000000    0.00000000
     atom   40 type  2   force =     0.00000000    0.00000000    0.00000000
     atom   41 type  2   force =     0.00000000    0.00000000    0.00000000
     atom   42 type  2   force =     0.00000000    0.00000000    0.00000000
     atom   43 type  2   force =     0.00000000    0.00000000    0.00000000
     atom   44 type  2   force =     0.00000000    0.00000000    0.00000000
     atom   45 type  2   force =     0.00000000    0.00000000    0.00000000
     atom   46 type  2   force =     0.00000000    0.00000000    0.00000000
     atom   47 type  2   force =     0.00000000    0.00000000    0.00000000
     atom   48 type  2   force =     0.00000000    0.00000000    0.00000000
     atom   49 type  2   force =     0.00000000    0.00000000    0.00000000
     atom   50 type  2   force =     0.00000000    0.00000000    0.00000000
     atom   51 type  2   force =     0.00000000    0.00000000    0.00000000
     atom   52 type  2   force =     0.00000000    0.00000000    0.00000000
     The SCF correction term to forces
     atom    1 type  1   force =    -0.00000004    0.00000002    0.00000005
     atom    2 type  1   force =    -0.00000004    0.00000002    0.00000003
     atom    3 type  2   force =    -0.00000061    0.00000035    0.00000002
     atom    4 type  2   force =    -0.00000078   -0.00000073    0.00000000
     atom    5 type  2   force =    -0.00000053   -0.00000120    0.00000002
     atom    6 type  2   force =    -0.00000014   -0.00000034   -0.00000003
     atom    7 type  2   force =    -0.00000021   -0.00000039   -0.00000003
     atom    8 type  2   force =     0.00000050   -0.00000070   -0.00000005
     atom    9 type  2   force =    -0.00000016   -0.00000042   -0.00000002
     atom   10 type  2   force =    -0.00000030    0.00000032   -0.00000000
     atom   11 type  2   force =    -0.00000053    0.00000048    0.00000000
     atom   12 type  2   force =    -0.00000089    0.00000052    0.00000002
     atom   13 type  2   force =    -0.00000068    0.00000021    0.00000000
     atom   14 type  2   force =    -0.00000070   -0.00000034   -0.00000003
     atom   15 type  2   force =    -0.00000061   -0.00000044   -0.00000003
     atom   16 type  2   force =    -0.00000096    0.00000015   -0.00000005
     atom   17 type  2   force =     0.00000030    0.00000134   -0.00000014
     atom   18 type  2   force =     0.00000127    0.00000094   -0.00000028
     atom   19 type  2   force =     0.00000192   -0.00000076   -0.00000026
     atom   20 type  2   force =     0.00000114   -0.00000066   -0.00000013
     atom   21 type  2   force =    -0.00000019    0.00000011    0.00000000
     atom   22 type  2   force =    -0.00000042    0.00000010   -0.00000000
     atom   23 type  2   force =     0.00000029    0.00000035   -0.00000002
     atom   24 type  2   force =     0.00000035   -0.00000016   -0.00000005
     atom   25 type  2   force =    -0.00000011   -0.00000046   -0.00000004
     atom   26 type  2   force =     0.00000024   -0.00000030    0.00000005
     atom   27 type  2   force =    -0.00000102    0.00000009    0.00000008
     atom   28 type  3   force =    -0.00000471    0.00000272   -0.00000027
     atom   29 type  2   force =    -0.00000089    0.00000052    0.00000045
     atom   30 type  2   force =    -0.00000018   -0.00000157   -0.00000028
     atom   31 type  2   force =     0.00000162   -0.00000128   -0.00000026
     atom   32 type  2   force =     0.00000086   -0.00000008   -0.00000005
     atom   33 type  2   force =     0.00000023    0.00000038   -0.00000003
     atom   34 type  2   force =     0.00000048   -0.00000041    0.00000000
     atom   35 type  2   force =     0.00000046   -0.00000115   -0.00000003
     atom   36 type  2   force =     0.00000028   -0.00000016   -0.00000001
     atom   37 type  2   force =    -0.00000020    0.00000012    0.00000008
     atom   38 type  2   force =     0.00000039   -0.00000006    0.00000005
     atom   39 type  2   force =    -0.00000059    0.00000084    0.00000008
     atom   40 type  2   force =    -0.00000061    0.00000076   -0.00000005
     atom   41 type  2   force =    -0.00000101   -0.00000093   -0.00000014
     atom   42 type  2   force =     0.00000023    0.00000030   -0.00000003
     atom   43 type  2   force =     0.00000077    0.00000106    0.00000002
     atom   44 type  2   force =     0.00000064   -0.00000037    0.00000005
     atom   45 type  2   force =     0.00000076   -0.00000044    0.00000004
     atom   46 type  2   force =     0.00000059   -0.00000021    0.00000000
     atom   47 type  2   force =     0.00000123    0.00000018   -0.00000003
     atom   48 type  2   force =     0.00000031   -0.00000022   -0.00000005
     atom   49 type  2   force =     0.00000035    0.00000032   -0.00000004
     atom   50 type  2   force =    -0.00000005    0.00000078   -0.00000003
     atom   51 type  2   force =     0.00000008    0.00000075   -0.00000003
     atom   52 type  2   force =     0.00000024    0.00000104    0.00000000

     Total force =     0.053931     Total SCF correction =     0.000009


     Computing stress (Cartesian axis) and pressure


     negative rho (up, down):  5.162E-04 2.172E-03
          total   stress  (Ry/bohr**3)                   (kbar)     P=    1.12
   0.00001042   0.00000346   0.00000158          1.53      0.51      0.23
   0.00000346   0.00001442  -0.00000091          0.51      2.12     -0.13
   0.00000158  -0.00000091  -0.00000192          0.23     -0.13     -0.28

     kinetic stress (kbar)   4075.63     -2.69      0.07
                               -2.69   4072.53     -0.04
                                0.07     -0.04   4587.96

     local   stress (kbar) -42726.77     62.81     66.91
                               62.81 -42654.24    -38.63
                               66.91    -38.63  42449.81

     nonloc. stress (kbar)    727.69     -1.51     -0.32
                               -1.51    725.95      0.19
                               -0.32      0.19    664.28

     hartree stress (kbar)  19556.44    -24.90    -20.21
                              -24.90  19527.68     11.67
                              -20.21     11.67 -18525.13

     exc-cor stress (kbar)    228.78     -0.17     -0.26
                               -0.17    228.59      0.15
                               -0.26      0.15    186.69

     corecor stress (kbar)  -1350.62      0.48      0.43
                                0.48  -1350.06     -0.25
                                0.43     -0.25  -1335.19

     ewald   stress (kbar)  19490.39    -33.52    -46.38
                              -33.52  19451.68     26.78
                              -46.38     26.78 -28028.70

     hubbard stress (kbar)      0.00      0.00      0.00
                                0.00      0.00      0.00
                                0.00      0.00      0.00

     london  stress (kbar)      0.00      0.00      0.00
                                0.00      0.00      0.00
                                0.00      0.00      0.00

     DFT-D3  stress (kbar)      0.00      0.00      0.00
                                0.00      0.00      0.00
                                0.00      0.00      0.00

     XDM     stress (kbar)      0.00      0.00      0.00
                                0.00      0.00      0.00
                                0.00      0.00      0.00

     dft-nl  stress (kbar)      0.00      0.00      0.00
                                0.00      0.00      0.00
                                0.00      0.00      0.00

     TS-vdW  stress (kbar)      0.00      0.00      0.00
                                0.00      0.00      0.00
                                0.00      0.00      0.00



     number of scf cycles    =  32
     number of bfgs steps    =  31

     enthalpy old            =    -733.4871878376 Ry
     enthalpy new            =    -733.4908443189 Ry

     CASE: enthalpy_new < enthalpy_old

     new trust radius        =       0.0560626637 bohr
     new conv_thr            =            1.3E-11 Ry

     new unit-cell volume =   8807.84058 a.u.^3 (  1305.18730 Ang^3 )
     density =      0.83217 g/cm^3

CELL_PARAMETERS (alat= 23.29368414)
   1.004971477  -0.003400701  -0.000993957
  -0.505430832   0.868630478   0.000993957
  -0.000833726   0.000481352   0.799875981

ATOMIC_POSITIONS (angstrom)
H        3.681489899   4.984653074   2.871466193
H        3.737382065   4.952383719   3.621476942
C       -0.008005581   0.004622024  -0.006017947
C       -0.004294229   1.435194016   0.034263402
C       -1.237494246   2.145359159   0.053128597
C       -1.244046694   3.577725621   0.041308333
C       -2.487936518   4.286975936   0.025001247
C       -2.518252454   5.713717177   0.044931451
C       -3.746214747   6.431630522   0.035768889
C       -3.769085686   7.859399238   0.029350416
C       -5.002475251   8.572547819   0.001661579
C       -5.005141560   9.999882087  -0.027172748
C        2.462485778   0.004078046  -0.010590421
C        2.474363897   1.428146307   0.043695935
C        1.237752167   2.147808561   0.061117317
C        1.234116838   3.591955429   0.064289481
C       -0.020945252   4.300715919  -0.000916336
C       -0.077107915   5.731026066  -0.110020040
C       -1.304361905   6.440148361   0.020424760
C       -1.307620867   7.865117519   0.024958565
C       -2.538965773   8.576034832   0.038122815
C       -2.533401099   9.999667723   0.029350416
C        4.944704797  -0.013416816   0.023516888
C        4.966711815   1.401746216   0.012009287
C        3.730154002   2.104667564   0.069688193
C        3.751347918   3.523790143   0.128427456
C        2.519960806   4.181961516   0.068436615
Cu       2.566176145   5.628579771  -1.099239186
C        1.047064224   6.505639448  -0.400421923
C        1.155813022   7.866507770  -0.110020040
C       -0.071931895   8.574779754   0.020424760
C       -0.049769311   9.989255399   0.044931451
C        7.431169265  -0.030790433   0.012749246
C        7.444113962   1.388930947  -0.023855454
C        6.209722918   2.098674250  -0.023574678
C        6.213475099   3.522810739   0.012592427
C        4.995239761   4.226159239   0.121803584
C        4.981563319   5.654585722   0.128427456
C        3.795876633   6.391912556   0.068436615
C        3.663914910   7.800489142   0.064289481
C        2.422579275   8.533024550  -0.000916336
C        2.437156519   9.953756620   0.041308333
C        9.911084935  -0.042896819   0.040876596
C        9.916386685   1.384933738   0.032988324
C        8.682558176   2.097284959  -0.010339885
C        8.676788639   3.523986116  -0.023855454
C        7.444937386   4.238128466  -0.023574678
C        7.426989216   5.663071677   0.012009287
C        6.199962566   6.382501481   0.069688193
C        6.157952108   7.808308243   0.043695935
C        4.916400449   8.519414288   0.061117317
C        4.912519550   9.951365293   0.034263402



     Writing output data file cobre-sixhollow-2.8.save/
     NEW-OLD atomic charge density approx. for the potential

     Check: negative core charge=   -0.000002

     negative rho (up, down):  5.768E-04 5.638E-04
     extrapolated charge  209.24937, renormalised to  209.00000

     total cpu time spent up to now is    84589.1 secs

     Self-consistent Calculation

     iteration #  1     ecut=    70.00 Ry     beta= 0.70
     Davidson diagonalization with overlap
     c_bands:  1 eigenvalues not converged
     ethr =  1.00E-06,  avg # of iterations = 13.0

     negative rho (up, down):  5.102E-04 6.204E-03

     total cpu time spent up to now is    84794.3 secs

     total energy              =    -733.48898371 Ry
     Harris-Foulkes estimate   =    -730.86439864 Ry
     estimated scf accuracy    <       0.00495941 Ry

     total magnetization       =     1.00 Bohr mag/cell
     absolute magnetization    =     1.22 Bohr mag/cell

     iteration #  2     ecut=    70.00 Ry     beta= 0.70
     Davidson diagonalization with overlap
     ethr =  2.37E-06,  avg # of iterations =  7.0

     negative rho (up, down):  5.125E-04 5.567E-03

     total cpu time spent up to now is    84939.0 secs

     total energy              =    -733.48619373 Ry
     Harris-Foulkes estimate   =    -733.50148456 Ry
     estimated scf accuracy    <       0.06411663 Ry

     total magnetization       =     1.00 Bohr mag/cell
     absolute magnetization    =     1.21 Bohr mag/cell

     iteration #  3     ecut=    70.00 Ry     beta= 0.70
     Davidson diagonalization with overlap
     ethr =  2.37E-06,  avg # of iterations =  7.0

     negative rho (up, down):  5.160E-04 4.418E-03

     total cpu time spent up to now is    85053.3 secs

     total energy              =    -733.49270806 Ry
     Harris-Foulkes estimate   =    -733.49317333 Ry
     estimated scf accuracy    <       0.00096268 Ry

     total magnetization       =     1.00 Bohr mag/cell
     absolute magnetization    =     1.21 Bohr mag/cell

     iteration #  4     ecut=    70.00 Ry     beta= 0.70
     Davidson diagonalization with overlap
     ethr =  4.61E-07,  avg # of iterations =  2.0

     negative rho (up, down):  5.165E-04 3.264E-03

     total cpu time spent up to now is    85154.1 secs

     total energy              =    -733.49278887 Ry
     Harris-Foulkes estimate   =    -733.49294340 Ry
     estimated scf accuracy    <       0.00048466 Ry

     total magnetization       =     1.00 Bohr mag/cell
     absolute magnetization    =     1.21 Bohr mag/cell

     iteration #  5     ecut=    70.00 Ry     beta= 0.70
     Davidson diagonalization with overlap
     ethr =  2.32E-07,  avg # of iterations =  2.0

     negative rho (up, down):  5.167E-04 2.392E-03

     total cpu time spent up to now is    85250.5 secs

     total energy              =    -733.49282141 Ry
     Harris-Foulkes estimate   =    -733.49291456 Ry
     estimated scf accuracy    <       0.00026956 Ry

     total magnetization       =     1.00 Bohr mag/cell
     absolute magnetization    =     1.20 Bohr mag/cell

     iteration #  6     ecut=    70.00 Ry     beta= 0.70
     Davidson diagonalization with overlap
     ethr =  1.29E-07,  avg # of iterations =  2.0

     negative rho (up, down):  5.167E-04 2.237E-03

     total cpu time spent up to now is    85346.7 secs

     total energy              =    -733.49286542 Ry
     Harris-Foulkes estimate   =    -733.49287283 Ry
     estimated scf accuracy    <       0.00001782 Ry

     total magnetization       =     1.00 Bohr mag/cell
     absolute magnetization    =     1.20 Bohr mag/cell

     iteration #  7     ecut=    70.00 Ry     beta= 0.70
     Davidson diagonalization with overlap
     ethr =  8.53E-09,  avg # of iterations =  3.0

     negative rho (up, down):  5.166E-04 2.191E-03

     total cpu time spent up to now is    85453.3 secs

     total energy              =    -733.49286907 Ry
     Harris-Foulkes estimate   =    -733.49287187 Ry
     estimated scf accuracy    <       0.00000822 Ry

     total magnetization       =     1.00 Bohr mag/cell
     absolute magnetization    =     1.20 Bohr mag/cell

     iteration #  8     ecut=    70.00 Ry     beta= 0.70
     Davidson diagonalization with overlap
     ethr =  3.93E-09,  avg # of iterations =  2.0

     negative rho (up, down):  5.165E-04 2.180E-03

     total cpu time spent up to now is    85550.1 secs

     total energy              =    -733.49287045 Ry
     Harris-Foulkes estimate   =    -733.49287074 Ry
     estimated scf accuracy    <       0.00000117 Ry

     total magnetization       =     1.00 Bohr mag/cell
     absolute magnetization    =     1.20 Bohr mag/cell

     iteration #  9     ecut=    70.00 Ry     beta= 0.70
     Davidson diagonalization with overlap
     ethr =  5.61E-10,  avg # of iterations =  2.0

     negative rho (up, down):  5.164E-04 2.179E-03

     total cpu time spent up to now is    85650.8 secs

     total energy              =    -733.49287066 Ry
     Harris-Foulkes estimate   =    -733.49287069 Ry
     estimated scf accuracy    <       0.00000027 Ry

     total magnetization       =     1.00 Bohr mag/cell
     absolute magnetization    =     1.20 Bohr mag/cell

     iteration # 10     ecut=    70.00 Ry     beta= 0.70
     Davidson diagonalization with overlap
     ethr =  1.29E-10,  avg # of iterations =  2.5

     negative rho (up, down):  5.164E-04 2.179E-03

     total cpu time spent up to now is    85754.7 secs

     total energy              =    -733.49287073 Ry
     Harris-Foulkes estimate   =    -733.49287072 Ry
     estimated scf accuracy    <       0.00000006 Ry

     total magnetization       =     1.00 Bohr mag/cell
     absolute magnetization    =     1.20 Bohr mag/cell

     iteration # 11     ecut=    70.00 Ry     beta= 0.70
     Davidson diagonalization with overlap
     ethr =  2.70E-11,  avg # of iterations =  2.5

     negative rho (up, down):  5.164E-04 2.178E-03

     total cpu time spent up to now is    85863.2 secs

     total energy              =    -733.49287075 Ry
     Harris-Foulkes estimate   =    -733.49287075 Ry
     estimated scf accuracy    <       0.00000003 Ry

     total magnetization       =     1.00 Bohr mag/cell
     absolute magnetization    =     1.20 Bohr mag/cell

     iteration # 12     ecut=    70.00 Ry     beta= 0.70
     Davidson diagonalization with overlap
     ethr =  1.21E-11,  avg # of iterations =  2.5

     negative rho (up, down):  5.164E-04 2.179E-03

     total cpu time spent up to now is    85970.4 secs

     total energy              =    -733.49287077 Ry
     Harris-Foulkes estimate   =    -733.49287076 Ry
     estimated scf accuracy    <          5.5E-09 Ry

     total magnetization       =     1.00 Bohr mag/cell
     absolute magnetization    =     1.20 Bohr mag/cell

     iteration # 13     ecut=    70.00 Ry     beta= 0.70
     Davidson diagonalization with overlap
     ethr =  2.64E-12,  avg # of iterations =  3.0

     negative rho (up, down):  5.164E-04 2.177E-03

     total cpu time spent up to now is    86094.2 secs

     total energy              =    -733.49287077 Ry
     Harris-Foulkes estimate   =    -733.49287077 Ry
     estimated scf accuracy    <          2.4E-09 Ry

     total magnetization       =     1.00 Bohr mag/cell
     absolute magnetization    =     1.20 Bohr mag/cell

     iteration # 14     ecut=    70.00 Ry     beta= 0.70
     Davidson diagonalization with overlap
     ethr =  1.16E-12,  avg # of iterations =  3.0

     negative rho (up, down):  5.164E-04 2.177E-03

     total cpu time spent up to now is    86226.0 secs

     total energy              =    -733.49287078 Ry
     Harris-Foulkes estimate   =    -733.49287078 Ry
     estimated scf accuracy    <          8.8E-10 Ry

     total magnetization       =     1.00 Bohr mag/cell
     absolute magnetization    =     1.19 Bohr mag/cell

     iteration # 15     ecut=    70.00 Ry     beta= 0.70
     Davidson diagonalization with overlap
