
     Program PWSCF v.6.4.1 starts on 26Jul2022 at 16:35:26 

     This program is part of the open-source Quantum ESPRESSO suite
     for quantum simulation of materials; please cite
         "P. Giannozzi et al., J. Phys.:Condens. Matter 21 395502 (2009);
         "P. Giannozzi et al., J. Phys.:Condens. Matter 29 465901 (2017);
          URL http://www.quantum-espresso.org", 
     in publications or presentations arising from this work. More details at
     http://www.quantum-espresso.org/quote

     Parallel version (MPI), running on     6 processors

     MPI processes distributed on     1 nodes
     R & G space division:  proc/nbgrp/npool/nimage =       6
     Reading input from distance-4.5.in

     Current dimensions of program PWSCF are:
     Max number of different atomic species (ntypx) = 10
     Max number of k-points (npk) =  40000
     Max angular momentum in pseudopotentials (lmaxx) =  3

     IMPORTANT: XC functional enforced from input :
     Exchange-correlation      = RVV10 ( 1  4 13  4 3 0)
     Any further DFT definition will be discarded
     Please, verify this is what you really want

               file H.pbe-rrkjus.UPF: wavefunction(s)  1S renormalized
               file Cu.pbe-dn-rrkjus_psl.1.0.0.UPF: wavefunction(s)  3D renormalized

     Subspace diagonalization in iterative solution of the eigenvalue problem:
     a serial algorithm will be used


     Parallelization info
     --------------------
     sticks:   dense  smooth     PW     G-vecs:    dense   smooth      PW
     Min        3051    1746    432               270999   117096   14629
     Max        3053    1747    437               271001   117099   14630
     Sum       18313   10477   2611              1626001   702581   87777



     bravais-lattice index     =            4
     lattice parameter (alat)  =      23.2937  a.u.
     unit-cell volume          =    8879.8548 (a.u.)^3
     number of atoms/cell      =           52
     number of atomic types    =            3
     number of electrons       =       209.00
     number of Kohn-Sham states=          126
     kinetic-energy cutoff     =      70.0000  Ry
     charge density cutoff     =     490.0000  Ry
     convergence threshold     =      1.0E-06
     mixing beta               =       0.7000
     number of iterations used =            8  plain     mixing
     Exchange-correlation      = RVV10 ( 1  4 13  4 3 0)

     celldm(1)=  23.293684  celldm(2)=   0.000000  celldm(3)=   0.811261
     celldm(4)=   0.000000  celldm(5)=   0.000000  celldm(6)=   0.000000

     crystal axes: (cart. coord. in units of alat)
               a(1) = (   1.000000   0.000000   0.000000 )  
               a(2) = (  -0.500000   0.866025   0.000000 )  
               a(3) = (   0.000000   0.000000   0.811261 )  

     reciprocal axes: (cart. coord. in units 2 pi/alat)
               b(1) = (  1.000000  0.577350 -0.000000 )  
               b(2) = (  0.000000  1.154701  0.000000 )  
               b(3) = (  0.000000 -0.000000  1.232649 )  


     PseudoPot. # 1 for H  read from file:
     /home/cristian/Escritorio/Proyecto_Grafeno/pseudopotenciales/H.pbe-rrkjus.UPF
     MD5 check sum: 7cc9d459525c9a0585f487a71c3c9563
     Pseudo is Ultrasoft, Zval =  1.0
     Generated by new atomic code, or converted to UPF format
     Using radial grid of 1061 points,  2 beta functions with: 
                l(1) =   0
                l(2) =   0
     Q(r) pseudized with 0 coefficients 


     PseudoPot. # 2 for C  read from file:
     /home/cristian/Escritorio/Proyecto_Grafeno/pseudopotenciales/C.pbe-n-rrkjus_psl.1.0.0.UPF
     MD5 check sum: 1fdd950c42eb37d8afe3dd2f8d12311e
     Pseudo is Ultrasoft + core correction, Zval =  4.0
     Generated using "atomic" code by A. Dal Corso v.6.3MaX
     Using radial grid of 1073 points,  4 beta functions with: 
                l(1) =   0
                l(2) =   0
                l(3) =   1
                l(4) =   1
     Q(r) pseudized with 0 coefficients 


     PseudoPot. # 3 for Cu read from file:
     /home/cristian/Escritorio/Proyecto_Grafeno/pseudopotenciales/Cu.pbe-dn-rrkjus_psl.1.0.0.UPF
     MD5 check sum: ba3d6c84e19846e79d48cdc68ff7152b
     Pseudo is Ultrasoft + core correction, Zval = 11.0
     Generated using "atomic" code by A. Dal Corso v.6.3
     Using radial grid of 1199 points,  6 beta functions with: 
                l(1) =   0
                l(2) =   0
                l(3) =   1
                l(4) =   1
                l(5) =   2
                l(6) =   2
     Q(r) pseudized with 0 coefficients 


     vdW kernel table read from file rVV10_kernel_table
     MD5 check sum: b8e2538accc0c0b3206b45ba4daaba6c

     atomic species   valence    mass     pseudopotential
        H              1.00     1.00794     H ( 1.00)
        C              4.00    12.01070     C ( 1.00)
        Cu            11.00    63.54600     Cu( 1.00)

     No symmetry found


                                    s                        frac. trans.

      isym =  1     identity                                     

 cryst.   s( 1) = (     1          0          0      )
                  (     0          1          0      )
                  (     0          0          1      )

 cart.    s( 1) = (  1.0000000  0.0000000  0.0000000 )
                  (  0.0000000  1.0000000  0.0000000 )
                  (  0.0000000  0.0000000  1.0000000 )


     point group C_1 (1)    
     there are  1 classes
     the character table:

       E    
A      1.00

     the symmetry operations in each class and the name of the first element:

     E        1
          identity                                               

   Cartesian axes

     site n.     atom                  positions (alat units)
         1           H   tau(   1) = (   0.2361603   0.4618802   0.3650675  )
         2           H   tau(   2) = (   0.2971730   0.4618802   0.3650675  )
         3           C   tau(   3) = (   0.0000000   0.0000000   0.0000000  )
         4           C   tau(   4) = (   0.0000000   0.1154701   0.0000000  )
         5           C   tau(   5) = (  -0.1000000   0.1732051   0.0000000  )
         6           C   tau(   6) = (  -0.1000000   0.2886751   0.0000000  )
         7           C   tau(   7) = (  -0.2000000   0.3464102   0.0000000  )
         8           C   tau(   8) = (  -0.2000000   0.4618802   0.0000000  )
         9           C   tau(   9) = (  -0.3000000   0.5196152   0.0000000  )
        10           C   tau(  10) = (  -0.3000000   0.6350853   0.0000000  )
        11           C   tau(  11) = (  -0.4000000   0.6928203   0.0000000  )
        12           C   tau(  12) = (  -0.4000000   0.8082904   0.0000000  )
        13           C   tau(  13) = (   0.2000000   0.0000000   0.0000000  )
        14           C   tau(  14) = (   0.2000000   0.1154701   0.0000000  )
        15           C   tau(  15) = (   0.1000000   0.1732051   0.0000000  )
        16           C   tau(  16) = (   0.1000000   0.2886751   0.0000000  )
        17           C   tau(  17) = (   0.0000000   0.3464102   0.0000000  )
        18           C   tau(  18) = (   0.0000000   0.4618802   0.0000000  )
        19           C   tau(  19) = (  -0.1000000   0.5196152   0.0000000  )
        20           C   tau(  20) = (  -0.1000000   0.6350853   0.0000000  )
        21           C   tau(  21) = (  -0.2000000   0.6928203   0.0000000  )
        22           C   tau(  22) = (  -0.2000000   0.8082904   0.0000000  )
        23           C   tau(  23) = (   0.4000000   0.0000000   0.0000000  )
        24           C   tau(  24) = (   0.4000000   0.1154701   0.0000000  )
        25           C   tau(  25) = (   0.3000000   0.1732051   0.0000000  )
        26           C   tau(  26) = (   0.3000000   0.2886751   0.0000000  )
        27           C   tau(  27) = (   0.2000000   0.3464102   0.0000000  )
        28           Cu  tau(  28) = (   0.2000000   0.4618802   0.0000000  )
        29           C   tau(  29) = (   0.1000000   0.5196152   0.0000000  )
        30           C   tau(  30) = (   0.1000000   0.6350853   0.0000000  )
        31           C   tau(  31) = (   0.0000000   0.6928203   0.0000000  )
        32           C   tau(  32) = (   0.0000000   0.8082904   0.0000000  )
        33           C   tau(  33) = (   0.6000000   0.0000000   0.0000000  )
        34           C   tau(  34) = (   0.6000000   0.1154701   0.0000000  )
        35           C   tau(  35) = (   0.5000000   0.1732051   0.0000000  )
        36           C   tau(  36) = (   0.5000000   0.2886751   0.0000000  )
        37           C   tau(  37) = (   0.4000000   0.3464102   0.0000000  )
        38           C   tau(  38) = (   0.4000000   0.4618802   0.0000000  )
        39           C   tau(  39) = (   0.3000000   0.5196152   0.0000000  )
        40           C   tau(  40) = (   0.3000000   0.6350853   0.0000000  )
        41           C   tau(  41) = (   0.2000000   0.6928203   0.0000000  )
        42           C   tau(  42) = (   0.2000000   0.8082904   0.0000000  )
        43           C   tau(  43) = (   0.8000000   0.0000000   0.0000000  )
        44           C   tau(  44) = (   0.8000000   0.1154701   0.0000000  )
        45           C   tau(  45) = (   0.7000000   0.1732051   0.0000000  )
        46           C   tau(  46) = (   0.7000000   0.2886751   0.0000000  )
        47           C   tau(  47) = (   0.6000000   0.3464102   0.0000000  )
        48           C   tau(  48) = (   0.6000000   0.4618802   0.0000000  )
        49           C   tau(  49) = (   0.5000000   0.5196152   0.0000000  )
        50           C   tau(  50) = (   0.5000000   0.6350853   0.0000000  )
        51           C   tau(  51) = (   0.4000000   0.6928203   0.0000000  )
        52           C   tau(  52) = (   0.4000000   0.8082904   0.0000000  )

   Crystallographic axes

     site n.     atom                  positions (cryst. coord.)
         1           H   tau(   1) = (  0.5028270  0.5333333  0.4500000  )
         2           H   tau(   2) = (  0.5638397  0.5333333  0.4500000  )
         3           C   tau(   3) = (  0.0000000  0.0000000  0.0000000  )
         4           C   tau(   4) = (  0.0666667  0.1333333  0.0000000  )
         5           C   tau(   5) = (  0.0000000  0.2000000  0.0000000  )
         6           C   tau(   6) = (  0.0666667  0.3333333  0.0000000  )
         7           C   tau(   7) = (  0.0000000  0.4000000  0.0000000  )
         8           C   tau(   8) = (  0.0666667  0.5333333  0.0000000  )
         9           C   tau(   9) = (  0.0000000  0.6000000  0.0000000  )
        10           C   tau(  10) = (  0.0666667  0.7333333  0.0000000  )
        11           C   tau(  11) = (  0.0000000  0.8000000  0.0000000  )
        12           C   tau(  12) = (  0.0666667  0.9333333  0.0000000  )
        13           C   tau(  13) = (  0.2000000  0.0000000  0.0000000  )
        14           C   tau(  14) = (  0.2666667  0.1333333  0.0000000  )
        15           C   tau(  15) = (  0.2000000  0.2000000  0.0000000  )
        16           C   tau(  16) = (  0.2666667  0.3333333  0.0000000  )
        17           C   tau(  17) = (  0.2000000  0.4000000  0.0000000  )
        18           C   tau(  18) = (  0.2666667  0.5333333  0.0000000  )
        19           C   tau(  19) = (  0.2000000  0.6000000  0.0000000  )
        20           C   tau(  20) = (  0.2666667  0.7333333  0.0000000  )
        21           C   tau(  21) = (  0.2000000  0.8000000  0.0000000  )
        22           C   tau(  22) = (  0.2666667  0.9333333  0.0000000  )
        23           C   tau(  23) = (  0.4000000  0.0000000  0.0000000  )
        24           C   tau(  24) = (  0.4666667  0.1333333  0.0000000  )
        25           C   tau(  25) = (  0.4000000  0.2000000  0.0000000  )
        26           C   tau(  26) = (  0.4666667  0.3333333  0.0000000  )
        27           C   tau(  27) = (  0.4000000  0.4000000  0.0000000  )
        28           Cu  tau(  28) = (  0.4666667  0.5333333  0.0000000  )
        29           C   tau(  29) = (  0.4000000  0.6000000  0.0000000  )
        30           C   tau(  30) = (  0.4666667  0.7333333  0.0000000  )
        31           C   tau(  31) = (  0.4000000  0.8000000  0.0000000  )
        32           C   tau(  32) = (  0.4666667  0.9333333  0.0000000  )
        33           C   tau(  33) = (  0.6000000  0.0000000  0.0000000  )
        34           C   tau(  34) = (  0.6666667  0.1333333  0.0000000  )
        35           C   tau(  35) = (  0.6000000  0.2000000  0.0000000  )
        36           C   tau(  36) = (  0.6666667  0.3333333  0.0000000  )
        37           C   tau(  37) = (  0.6000000  0.4000000  0.0000000  )
        38           C   tau(  38) = (  0.6666667  0.5333333  0.0000000  )
        39           C   tau(  39) = (  0.6000000  0.6000000  0.0000000  )
        40           C   tau(  40) = (  0.6666667  0.7333333  0.0000000  )
        41           C   tau(  41) = (  0.6000000  0.8000000  0.0000000  )
        42           C   tau(  42) = (  0.6666667  0.9333333  0.0000000  )
        43           C   tau(  43) = (  0.8000000  0.0000000  0.0000000  )
        44           C   tau(  44) = (  0.8666667  0.1333333  0.0000000  )
        45           C   tau(  45) = (  0.8000000  0.2000000  0.0000000  )
        46           C   tau(  46) = (  0.8666667  0.3333333  0.0000000  )
        47           C   tau(  47) = (  0.8000000  0.4000000  0.0000000  )
        48           C   tau(  48) = (  0.8666667  0.5333333  0.0000000  )
        49           C   tau(  49) = (  0.8000000  0.6000000  0.0000000  )
        50           C   tau(  50) = (  0.8666667  0.7333333  0.0000000  )
        51           C   tau(  51) = (  0.8000000  0.8000000  0.0000000  )
        52           C   tau(  52) = (  0.8666667  0.9333333  0.0000000  )

     number of k points=     1  Marzari-Vanderbilt smearing, width (Ry)=  0.0010
                       cart. coord. in units 2pi/alat
        k(    1) = (   0.0000000   0.0000000   0.0000000), wk =   2.0000000

                       cryst. coord.
        k(    1) = (   0.0000000   0.0000000   0.0000000), wk =   2.0000000

     Dense  grid:  1626001 G-vectors     FFT dimensions: ( 180, 180, 135)

     Smooth grid:   702581 G-vectors     FFT dimensions: ( 125, 125, 108)

     Dynamical RAM for                 wfc:      28.14 MB

     Dynamical RAM for     wfc (w. buffer):      28.14 MB

     Dynamical RAM for           str. fact:      12.41 MB

     Dynamical RAM for           local pot:       0.00 MB

     Dynamical RAM for          nlocal pot:      92.46 MB

     Dynamical RAM for                qrad:      19.73 MB

     Dynamical RAM for          rho,v,vnew:      29.46 MB

     Dynamical RAM for               rhoin:       9.82 MB

     Dynamical RAM for            rho*nmix:      66.16 MB

     Dynamical RAM for           G-vectors:      16.40 MB

     Dynamical RAM for          h,s,v(r/c):      11.63 MB

     Dynamical RAM for          <psi|beta>:       0.80 MB

     Dynamical RAM for                 psi:     112.56 MB

     Dynamical RAM for                hpsi:     112.56 MB

     Dynamical RAM for                spsi:     112.56 MB

     Dynamical RAM for      wfcinit/wfcrot:      93.45 MB

     Dynamical RAM for           addusdens:     971.75 MB

     Estimated static dynamical RAM per process >     319.55 MB

     Estimated max dynamical RAM per process >       1.26 GB

     Estimated total dynamical RAM >       7.57 GB

     Check: negative core charge=   -0.000002

     Initial potential from superposition of free atoms

     starting charge  208.80532, renormalised to  209.00000

     negative rho (up, down):  5.377E-05 0.000E+00


---------------------------------------------------------------------------------
Carrying out rVV10 run using the following parameters:
Nqs =      20    Nr_points =    1024   r_max =   100.000
b_value =  6.30000    beta =  0.00901
     q_mesh =  0.00010000  0.00030000  0.00058939  0.00100810
               0.00161396  0.00249058  0.00375900  0.00559430
               0.00824984  0.01209221  0.01765183  0.02569619
               0.03733578  0.05417739  0.07854596  0.11380545
               0.16482331  0.23864234  0.34545298  0.50000000

Gradients computed in Reciprocal space

---------------------------------------------------------------------------------


     Starting wfcs are  207 randomized atomic wfcs

     total cpu time spent up to now is       51.2 secs

     Self-consistent Calculation

     iteration #  1     ecut=    70.00 Ry     beta= 0.70
     Davidson diagonalization with overlap
     ethr =  1.00E-02,  avg # of iterations =  4.0

     negative rho (up, down):  1.069E-04 0.000E+00

     total cpu time spent up to now is      118.3 secs

     total energy              =    -732.13918662 Ry
     Harris-Foulkes estimate   =    -737.64192410 Ry
     estimated scf accuracy    <       8.12302847 Ry

     iteration #  2     ecut=    70.00 Ry     beta= 0.70
     Davidson diagonalization with overlap
     ethr =  3.89E-03,  avg # of iterations =  4.0

     negative rho (up, down):  1.244E-04 0.000E+00

     total cpu time spent up to now is      183.5 secs

     total energy              =    -731.15014945 Ry
     Harris-Foulkes estimate   =    -738.29716852 Ry
     estimated scf accuracy    <      15.68871572 Ry

     iteration #  3     ecut=    70.00 Ry     beta= 0.70
     Davidson diagonalization with overlap
     ethr =  3.89E-03,  avg # of iterations =  4.0

     negative rho (up, down):  1.598E-04 0.000E+00

     total cpu time spent up to now is      239.2 secs

     total energy              =    -732.93525236 Ry
     Harris-Foulkes estimate   =    -736.20576973 Ry
     estimated scf accuracy    <      10.80258142 Ry

     iteration #  4     ecut=    70.00 Ry     beta= 0.70
     Davidson diagonalization with overlap
     ethr =  3.89E-03,  avg # of iterations =  3.0

     negative rho (up, down):  1.838E-04 0.000E+00

     total cpu time spent up to now is      292.3 secs

     total energy              =    -734.15364433 Ry
     Harris-Foulkes estimate   =    -734.97068405 Ry
     estimated scf accuracy    <       3.76519955 Ry

     iteration #  5     ecut=    70.00 Ry     beta= 0.70
     Davidson diagonalization with overlap
     ethr =  1.80E-03,  avg # of iterations =  1.0

     negative rho (up, down):  2.027E-04 0.000E+00

     total cpu time spent up to now is      341.2 secs

     total energy              =    -734.71871163 Ry
     Harris-Foulkes estimate   =    -734.80780253 Ry
     estimated scf accuracy    <       0.28899544 Ry

     iteration #  6     ecut=    70.00 Ry     beta= 0.70
     Davidson diagonalization with overlap
     ethr =  1.38E-04,  avg # of iterations =  7.0

     negative rho (up, down):  2.262E-04 0.000E+00

     total cpu time spent up to now is      399.0 secs

     total energy              =    -734.74615477 Ry
     Harris-Foulkes estimate   =    -734.78041342 Ry
     estimated scf accuracy    <       0.15450472 Ry

     iteration #  7     ecut=    70.00 Ry     beta= 0.70
     Davidson diagonalization with overlap
     ethr =  7.39E-05,  avg # of iterations =  2.0

     negative rho (up, down):  2.665E-04 0.000E+00

     total cpu time spent up to now is      448.2 secs

     total energy              =    -734.74920136 Ry
     Harris-Foulkes estimate   =    -734.76720935 Ry
     estimated scf accuracy    <       0.09671895 Ry

     iteration #  8     ecut=    70.00 Ry     beta= 0.70
     Davidson diagonalization with overlap
     ethr =  4.63E-05,  avg # of iterations =  2.0

     negative rho (up, down):  3.331E-04 0.000E+00

     total cpu time spent up to now is      497.8 secs

     total energy              =    -734.74953122 Ry
     Harris-Foulkes estimate   =    -734.75805007 Ry
     estimated scf accuracy    <       0.05102797 Ry

     iteration #  9     ecut=    70.00 Ry     beta= 0.70
     Davidson diagonalization with overlap
     ethr =  2.44E-05,  avg # of iterations = 19.0

     negative rho (up, down):  4.127E-04 0.000E+00

     total cpu time spent up to now is      553.4 secs

     total energy              =    -734.74996477 Ry
     Harris-Foulkes estimate   =    -734.75372457 Ry
     estimated scf accuracy    <       0.02817747 Ry

     iteration # 10     ecut=    70.00 Ry     beta= 0.70
     Davidson diagonalization with overlap
     ethr =  1.35E-05,  avg # of iterations =  2.0

     negative rho (up, down):  4.731E-04 0.000E+00

     total cpu time spent up to now is      602.5 secs

     total energy              =    -734.74992199 Ry
     Harris-Foulkes estimate   =    -734.75376076 Ry
     estimated scf accuracy    <       0.02892845 Ry

     iteration # 11     ecut=    70.00 Ry     beta= 0.70
     Davidson diagonalization with overlap
     ethr =  1.35E-05,  avg # of iterations =  3.0

     negative rho (up, down):  5.963E-04 0.000E+00

     total cpu time spent up to now is      651.9 secs

     total energy              =    -734.74994068 Ry
     Harris-Foulkes estimate   =    -734.75181076 Ry
     estimated scf accuracy    <       0.01889987 Ry

     iteration # 12     ecut=    70.00 Ry     beta= 0.70
     Davidson diagonalization with overlap
     ethr =  9.04E-06,  avg # of iterations =  1.0

     negative rho (up, down):  5.579E-04 0.000E+00

     total cpu time spent up to now is      700.7 secs

     total energy              =    -734.75079759 Ry
     Harris-Foulkes estimate   =    -734.75130127 Ry
     estimated scf accuracy    <       0.01145364 Ry

     iteration # 13     ecut=    70.00 Ry     beta= 0.70
     Davidson diagonalization with overlap
     ethr =  5.48E-06,  avg # of iterations =  1.0

     negative rho (up, down):  5.812E-04 0.000E+00

     total cpu time spent up to now is      749.5 secs

     total energy              =    -734.75091997 Ry
     Harris-Foulkes estimate   =    -734.75108069 Ry
     estimated scf accuracy    <       0.00210035 Ry

     iteration # 14     ecut=    70.00 Ry     beta= 0.70
     Davidson diagonalization with overlap
     ethr =  1.00E-06,  avg # of iterations =  3.0

     negative rho (up, down):  5.712E-04 0.000E+00

     total cpu time spent up to now is      798.7 secs

     total energy              =    -734.75098466 Ry
     Harris-Foulkes estimate   =    -734.75106907 Ry
     estimated scf accuracy    <       0.00220918 Ry

     iteration # 15     ecut=    70.00 Ry     beta= 0.70
     Davidson diagonalization with overlap
     ethr =  1.00E-06,  avg # of iterations =  1.0

     negative rho (up, down):  5.695E-04 0.000E+00

     total cpu time spent up to now is      847.5 secs

     total energy              =    -734.75102565 Ry
     Harris-Foulkes estimate   =    -734.75104259 Ry
     estimated scf accuracy    <       0.00040461 Ry

     iteration # 16     ecut=    70.00 Ry     beta= 0.70
     Davidson diagonalization with overlap
     ethr =  1.94E-07,  avg # of iterations =  1.0

     negative rho (up, down):  5.679E-04 0.000E+00

     total cpu time spent up to now is      896.2 secs

     total energy              =    -734.75103531 Ry
     Harris-Foulkes estimate   =    -734.75103647 Ry
     estimated scf accuracy    <       0.00001719 Ry

     iteration # 17     ecut=    70.00 Ry     beta= 0.70
     Davidson diagonalization with overlap
     ethr =  8.23E-09,  avg # of iterations =  3.0

     negative rho (up, down):  5.672E-04 0.000E+00

     total cpu time spent up to now is      946.3 secs

     total energy              =    -734.75103594 Ry
     Harris-Foulkes estimate   =    -734.75103665 Ry
     estimated scf accuracy    <       0.00001455 Ry

     iteration # 18     ecut=    70.00 Ry     beta= 0.70
     Davidson diagonalization with overlap
     ethr =  6.96E-09,  avg # of iterations =  1.0

     negative rho (up, down):  5.670E-04 0.000E+00

     total cpu time spent up to now is      995.0 secs

     total energy              =    -734.75103639 Ry
     Harris-Foulkes estimate   =    -734.75103650 Ry
     estimated scf accuracy    <       0.00000118 Ry

     iteration # 19     ecut=    70.00 Ry     beta= 0.70
     Davidson diagonalization with overlap
     ethr =  5.67E-10,  avg # of iterations =  2.0

     negative rho (up, down):  5.665E-04 0.000E+00

     total cpu time spent up to now is     1044.2 secs

     End of self-consistent calculation

          k = 0.0000 0.0000 0.0000 ( 87777 PWs)   bands (ev):

   -19.8272 -18.9812 -18.9807 -18.9005 -18.9002 -18.8401 -18.7251 -17.1470
   -17.1468 -17.1239 -17.0768 -17.0766 -16.7920 -16.3087 -16.3087 -16.1718
   -16.1717 -16.1568 -15.7298 -14.3772 -14.3770 -14.1165 -14.0304 -14.0303
   -13.5549 -13.1533 -13.1533 -13.0733 -12.9180 -12.9179 -12.5984 -12.2582
   -12.2580 -11.7038 -11.5907 -11.5907 -11.1333 -10.8735 -10.8733  -9.5020
    -9.3539  -9.3539  -9.2395  -9.2291  -9.2291  -9.2175  -9.0316  -9.0315
    -9.0159  -9.0158  -8.8978  -8.6964  -8.6963  -7.9505  -7.8835  -7.8271
    -7.6387  -7.6387  -7.5253  -7.5252  -6.9115  -6.8416  -6.8410  -6.7964
    -6.7897  -6.7082  -6.7070  -6.6902  -6.6069  -6.6069  -6.5705  -6.5659
    -6.5657  -6.5496  -6.5186  -6.3771  -6.3770  -5.5991  -5.5991  -5.0187
    -4.9519  -4.9026  -4.8754  -4.8752  -4.7596  -4.7241  -4.7240  -4.5353
    -4.5352  -4.4605  -3.8489  -3.8487  -3.8050  -3.8048  -3.7828  -3.6289
    -3.6285  -3.3854  -1.8800  -1.8258  -1.8256  -1.7200  -1.7197  -1.2012
    -0.6342  -0.6342   0.9140   0.9500   0.9502   1.1081   1.1083   1.5053
     2.5414   2.7958   2.7960   2.8396   2.9472   2.9475   3.4121   3.4811
     3.6621   3.7985   3.8049   3.8247   3.9333   4.0416

     occupation numbers 
     1.0000   1.0000   1.0000   1.0000   1.0000   1.0000   1.0000   1.0000
     1.0000   1.0000   1.0000   1.0000   1.0000   1.0000   1.0000   1.0000
     1.0000   1.0000   1.0000   1.0000   1.0000   1.0000   1.0000   1.0000
     1.0000   1.0000   1.0000   1.0000   1.0000   1.0000   1.0000   1.0000
     1.0000   1.0000   1.0000   1.0000   1.0000   1.0000   1.0000   1.0000
     1.0000   1.0000   1.0000   1.0000   1.0000   1.0000   1.0000   1.0000
     1.0000   1.0000   1.0000   1.0000   1.0000   1.0000   1.0000   1.0000
     1.0000   1.0000   1.0000   1.0000   1.0000   1.0000   1.0000   1.0000
     1.0000   1.0000   1.0000   1.0000   1.0000   1.0000   1.0000   1.0000
     1.0000   1.0000   1.0000   1.0000   1.0000   1.0000   1.0000   1.0000
     1.0000   1.0000   1.0000   1.0000   1.0000   1.0000   1.0000   1.0000
     1.0000   1.0000   1.0000   1.0000   1.0000   1.0000   1.0000   1.0000
     1.0000   1.0000   1.0000   1.0000   1.0000   1.0000   1.0000   1.0000
     0.2504   0.2496   0.0000   0.0000   0.0000   0.0000   0.0000   0.0000
     0.0000   0.0000   0.0000   0.0000   0.0000   0.0000   0.0000   0.0000
     0.0000   0.0000   0.0000   0.0000   0.0000   0.0000

     the Fermi energy is    -0.6375 ev

!    total energy              =    -734.75103647 Ry
     Harris-Foulkes estimate   =    -734.75103649 Ry
     estimated scf accuracy    <       0.00000010 Ry

     The total energy is the sum of the following terms:

     one-electron contribution =   -2475.03374866 Ry
     hartree contribution      =    1293.25555605 Ry
     xc contribution           =    -275.90761416 Ry
     ewald contribution        =     722.93538380 Ry
     smearing contrib. (-TS)   =      -0.00061350 Ry

     convergence has been achieved in  19 iterations

     Writing output data file distance-4.5.save/

     init_run     :     49.04s CPU     50.11s WALL (       1 calls)
     electrons    :    962.75s CPU    993.13s WALL (       1 calls)

     Called by init_run:
     wfcinit      :     21.73s CPU     21.92s WALL (       1 calls)
     wfcinit:atom :      0.02s CPU      0.04s WALL (       1 calls)
     wfcinit:wfcr :     21.55s CPU     21.69s WALL (       1 calls)
     potinit      :     12.18s CPU     12.58s WALL (       1 calls)
     hinit0       :     10.34s CPU     10.37s WALL (       1 calls)

     Called by electrons:
     c_bands      :    570.92s CPU    574.18s WALL (      19 calls)
     sum_band     :    193.76s CPU    204.21s WALL (      19 calls)
     v_of_rho     :    121.16s CPU    128.33s WALL (      20 calls)
     v_h          :      1.39s CPU      1.45s WALL (      20 calls)
     v_xc         :    119.77s CPU    126.88s WALL (      20 calls)
     newd         :     81.16s CPU     91.30s WALL (      20 calls)
     mix_rho      :      3.75s CPU      3.83s WALL (      19 calls)

     Called by c_bands:
     init_us_2    :      1.67s CPU      1.70s WALL (      39 calls)
     cegterg      :    566.75s CPU    569.99s WALL (      19 calls)

     Called by sum_band:
     sum_band:bec :      0.02s CPU      0.02s WALL (      19 calls)
     addusdens    :    119.99s CPU    129.89s WALL (      19 calls)

     Called by *egterg:
     h_psi        :    307.18s CPU    309.61s WALL (      84 calls)
     s_psi        :    103.42s CPU    103.47s WALL (      84 calls)
     g_psi        :      0.30s CPU      0.30s WALL (      64 calls)
     cdiaghg      :      5.22s CPU      5.22s WALL (      83 calls)
     cegterg:over :     67.43s CPU     67.47s WALL (      64 calls)
     cegterg:upda :     38.77s CPU     38.97s WALL (      64 calls)
     cegterg:last :     29.79s CPU     29.80s WALL (      19 calls)

     Called by h_psi:
     h_psi:pot    :    306.82s CPU    308.87s WALL (      84 calls)
     h_psi:calbec :    104.00s CPU    104.07s WALL (      84 calls)
     vloc_psi     :     99.48s CPU    101.42s WALL (      84 calls)
     add_vuspsi   :    103.35s CPU    103.38s WALL (      84 calls)

     General routines
     calbec       :    149.52s CPU    149.61s WALL (     103 calls)
     fft          :     68.22s CPU     70.81s WALL (    1258 calls)
     ffts         :      0.72s CPU      0.74s WALL (      39 calls)
     fftw         :    106.44s CPU    108.65s WALL (   13304 calls)
     interpolate  :      1.68s CPU      1.71s WALL (      20 calls)

     Parallel routines
     fft_scatt_xy :     30.20s CPU     30.59s WALL (   14601 calls)
     fft_scatt_yz :     60.38s CPU     63.80s WALL (   14601 calls)

     PWSCF        :  16m52.96s CPU  17m24.67s WALL


   This run was terminated on:  16:52:51  26Jul2022            

=------------------------------------------------------------------------------=
   JOB DONE.
=------------------------------------------------------------------------------=
