
     Program PWSCF v.6.4.1 starts on 25Feb2023 at 12:13:34 

     This program is part of the open-source Quantum ESPRESSO suite
     for quantum simulation of materials; please cite
         "P. Giannozzi et al., J. Phys.:Condens. Matter 21 395502 (2009);
         "P. Giannozzi et al., J. Phys.:Condens. Matter 29 465901 (2017);
          URL http://www.quantum-espresso.org", 
     in publications or presentations arising from this work. More details at
     http://www.quantum-espresso.org/quote

     Parallel version (MPI), running on     6 processors

     MPI processes distributed on     1 nodes
     R & G space division:  proc/nbgrp/npool/nimage =       6
     Reading input from mn-relax.in

     Current dimensions of program PWSCF are:
     Max number of different atomic species (ntypx) = 10
     Max number of k-points (npk) =  40000
     Max angular momentum in pseudopotentials (lmaxx) =  3
               file H.pbe-rrkjus.UPF: wavefunction(s)  1S renormalized
               file Mn.pbe-spn-rrkjus_psl.0.3.1.UPF: wavefunction(s)  3D renormalized

     Subspace diagonalization in iterative solution of the eigenvalue problem:
     a serial algorithm will be used


     Parallelization info
     --------------------
     sticks:   dense  smooth     PW     G-vecs:    dense   smooth      PW
     Min        3051    1746    432               270999   117096   14629
     Max        3053    1747    437               271001   117099   14630
     Sum       18313   10477   2611              1626001   702581   87777



     bravais-lattice index     =            4
     lattice parameter (alat)  =      23.2937  a.u.
     unit-cell volume          =    8879.8548 (a.u.)^3
     number of atoms/cell      =           52
     number of atomic types    =            3
     number of electrons       =       213.00
     number of Kohn-Sham states=          128
     kinetic-energy cutoff     =      70.0000  Ry
     charge density cutoff     =     490.0000  Ry
     convergence threshold     =      1.0E-10
     mixing beta               =       0.7000
     number of iterations used =            8  plain     mixing
     Exchange-correlation      = PBE ( 1  4  3  4 0 0)
     nstep                     =           50


     celldm(1)=  23.293684  celldm(2)=   0.000000  celldm(3)=   0.811261
     celldm(4)=   0.000000  celldm(5)=   0.000000  celldm(6)=   0.000000

     crystal axes: (cart. coord. in units of alat)
               a(1) = (   1.000000   0.000000   0.000000 )  
               a(2) = (  -0.500000   0.866025   0.000000 )  
               a(3) = (   0.000000   0.000000   0.811261 )  

     reciprocal axes: (cart. coord. in units 2 pi/alat)
               b(1) = (  1.000000  0.577350 -0.000000 )  
               b(2) = (  0.000000  1.154701  0.000000 )  
               b(3) = (  0.000000 -0.000000  1.232649 )  


     PseudoPot. # 1 for H  read from file:
     /home/cristian/Escritorio/Proyecto_Grafeno/pseudopotenciales/H.pbe-rrkjus.UPF
     MD5 check sum: 7cc9d459525c9a0585f487a71c3c9563
     Pseudo is Ultrasoft, Zval =  1.0
     Generated by new atomic code, or converted to UPF format
     Using radial grid of 1061 points,  2 beta functions with: 
                l(1) =   0
                l(2) =   0
     Q(r) pseudized with 0 coefficients 


     PseudoPot. # 2 for C  read from file:
     /home/cristian/Escritorio/Proyecto_Grafeno/pseudopotenciales/C.pbe-n-rrkjus_psl.1.0.0.UPF
     MD5 check sum: 1fdd950c42eb37d8afe3dd2f8d12311e
     Pseudo is Ultrasoft + core correction, Zval =  4.0
     Generated using "atomic" code by A. Dal Corso v.6.3MaX
     Using radial grid of 1073 points,  4 beta functions with: 
                l(1) =   0
                l(2) =   0
                l(3) =   1
                l(4) =   1
     Q(r) pseudized with 0 coefficients 


     PseudoPot. # 3 for Mn read from file:
     /home/cristian/Escritorio/Proyecto_Grafeno/pseudopotenciales/Mn.pbe-spn-rrkjus_psl.0.3.1.UPF
     MD5 check sum: e1cac159bdd2ba70c18e85765a5d4279
     Pseudo is Ultrasoft + core correction, Zval = 15.0
     Generated using "atomic" code by A. Dal Corso v.6.2.2
     Using radial grid of 1187 points,  6 beta functions with: 
                l(1) =   0
                l(2) =   0
                l(3) =   1
                l(4) =   1
                l(5) =   2
                l(6) =   2
     Q(r) pseudized with 0 coefficients 


     atomic species   valence    mass     pseudopotential
        H              1.00     1.00794     H ( 1.00)
        C              4.00    12.01070     C ( 1.00)
        Mn            15.00    54.93804     Mn( 1.00)

     Starting magnetic structure 
     atomic species   magnetization
        H            0.500
        C            0.300
        Mn           0.800

     No symmetry found


                                    s                        frac. trans.

      isym =  1     identity                                     

 cryst.   s( 1) = (     1          0          0      )
                  (     0          1          0      )
                  (     0          0          1      )

 cart.    s( 1) = (  1.0000000  0.0000000  0.0000000 )
                  (  0.0000000  1.0000000  0.0000000 )
                  (  0.0000000  0.0000000  1.0000000 )


     point group C_1 (1)    
     there are  1 classes
     the character table:

       E    
A      1.00

     the symmetry operations in each class and the name of the first element:

     E        1
          identity                                               

   Cartesian axes

     site n.     atom                  positions (alat units)
         1           H   tau(   1) = (   0.2694937   0.4041452   0.2433783  )
         2           H   tau(   2) = (   0.3305063   0.4041452   0.2433783  )
         3           C   tau(   3) = (   0.0000000   0.0000000   0.0000000  )
         4           C   tau(   4) = (   0.0000000   0.1154701   0.0000000  )
         5           C   tau(   5) = (  -0.1000000   0.1732051   0.0000000  )
         6           C   tau(   6) = (  -0.1000000   0.2886751   0.0000000  )
         7           C   tau(   7) = (  -0.2000000   0.3464102   0.0000000  )
         8           C   tau(   8) = (  -0.2000000   0.4618802   0.0000000  )
         9           C   tau(   9) = (  -0.3000000   0.5196152   0.0000000  )
        10           C   tau(  10) = (  -0.3000000   0.6350853   0.0000000  )
        11           C   tau(  11) = (  -0.4000000   0.6928203   0.0000000  )
        12           C   tau(  12) = (  -0.4000000   0.8082904   0.0000000  )
        13           C   tau(  13) = (   0.2000000   0.0000000   0.0000000  )
        14           C   tau(  14) = (   0.2000000   0.1154701   0.0000000  )
        15           C   tau(  15) = (   0.1000000   0.1732051   0.0000000  )
        16           C   tau(  16) = (   0.1000000   0.2886751   0.0000000  )
        17           C   tau(  17) = (   0.0000000   0.3464102   0.0000000  )
        18           C   tau(  18) = (   0.0000000   0.4618802   0.0000000  )
        19           C   tau(  19) = (  -0.1000000   0.5196152   0.0000000  )
        20           C   tau(  20) = (  -0.1000000   0.6350853   0.0000000  )
        21           C   tau(  21) = (  -0.2000000   0.6928203   0.0000000  )
        22           C   tau(  22) = (  -0.2000000   0.8082904   0.0000000  )
        23           C   tau(  23) = (   0.4000000   0.0000000   0.0000000  )
        24           C   tau(  24) = (   0.4000000   0.1154701   0.0000000  )
        25           C   tau(  25) = (   0.3000000   0.1732051   0.0000000  )
        26           C   tau(  26) = (   0.3000000   0.2886751   0.0000000  )
        27           C   tau(  27) = (   0.2000000   0.3464102   0.0000000  )
        28           Mn  tau(  28) = (   0.2000000   0.4618802   0.0000000  )
        29           C   tau(  29) = (   0.1000000   0.5196152   0.0000000  )
        30           C   tau(  30) = (   0.1000000   0.6350853   0.0000000  )
        31           C   tau(  31) = (   0.0000000   0.6928203   0.0000000  )
        32           C   tau(  32) = (   0.0000000   0.8082904   0.0000000  )
        33           C   tau(  33) = (   0.6000000   0.0000000   0.0000000  )
        34           C   tau(  34) = (   0.6000000   0.1154701   0.0000000  )
        35           C   tau(  35) = (   0.5000000   0.1732051   0.0000000  )
        36           C   tau(  36) = (   0.5000000   0.2886751   0.0000000  )
        37           C   tau(  37) = (   0.4000000   0.3464102   0.0000000  )
        38           C   tau(  38) = (   0.4000000   0.4618802   0.0000000  )
        39           C   tau(  39) = (   0.3000000   0.5196152   0.0000000  )
        40           C   tau(  40) = (   0.3000000   0.6350853   0.0000000  )
        41           C   tau(  41) = (   0.2000000   0.6928203   0.0000000  )
        42           C   tau(  42) = (   0.2000000   0.8082904   0.0000000  )
        43           C   tau(  43) = (   0.8000000   0.0000000   0.0000000  )
        44           C   tau(  44) = (   0.8000000   0.1154701   0.0000000  )
        45           C   tau(  45) = (   0.7000000   0.1732051   0.0000000  )
        46           C   tau(  46) = (   0.7000000   0.2886751   0.0000000  )
        47           C   tau(  47) = (   0.6000000   0.3464102   0.0000000  )
        48           C   tau(  48) = (   0.6000000   0.4618802   0.0000000  )
        49           C   tau(  49) = (   0.5000000   0.5196152   0.0000000  )
        50           C   tau(  50) = (   0.5000000   0.6350853   0.0000000  )
        51           C   tau(  51) = (   0.4000000   0.6928203   0.0000000  )
        52           C   tau(  52) = (   0.4000000   0.8082904   0.0000000  )

   Crystallographic axes

     site n.     atom                  positions (cryst. coord.)
         1           H   tau(   1) = (  0.5028270  0.4666667  0.3000000  )
         2           H   tau(   2) = (  0.5638397  0.4666667  0.3000000  )
         3           C   tau(   3) = (  0.0000000  0.0000000  0.0000000  )
         4           C   tau(   4) = (  0.0666667  0.1333333  0.0000000  )
         5           C   tau(   5) = (  0.0000000  0.2000000  0.0000000  )
         6           C   tau(   6) = (  0.0666667  0.3333333  0.0000000  )
         7           C   tau(   7) = (  0.0000000  0.4000000  0.0000000  )
         8           C   tau(   8) = (  0.0666667  0.5333333  0.0000000  )
         9           C   tau(   9) = (  0.0000000  0.6000000  0.0000000  )
        10           C   tau(  10) = (  0.0666667  0.7333333  0.0000000  )
        11           C   tau(  11) = (  0.0000000  0.8000000  0.0000000  )
        12           C   tau(  12) = (  0.0666667  0.9333333  0.0000000  )
        13           C   tau(  13) = (  0.2000000  0.0000000  0.0000000  )
        14           C   tau(  14) = (  0.2666667  0.1333333  0.0000000  )
        15           C   tau(  15) = (  0.2000000  0.2000000  0.0000000  )
        16           C   tau(  16) = (  0.2666667  0.3333333  0.0000000  )
        17           C   tau(  17) = (  0.2000000  0.4000000  0.0000000  )
        18           C   tau(  18) = (  0.2666667  0.5333333  0.0000000  )
        19           C   tau(  19) = (  0.2000000  0.6000000  0.0000000  )
        20           C   tau(  20) = (  0.2666667  0.7333333  0.0000000  )
        21           C   tau(  21) = (  0.2000000  0.8000000  0.0000000  )
        22           C   tau(  22) = (  0.2666667  0.9333333  0.0000000  )
        23           C   tau(  23) = (  0.4000000  0.0000000  0.0000000  )
        24           C   tau(  24) = (  0.4666667  0.1333333  0.0000000  )
        25           C   tau(  25) = (  0.4000000  0.2000000  0.0000000  )
        26           C   tau(  26) = (  0.4666667  0.3333333  0.0000000  )
        27           C   tau(  27) = (  0.4000000  0.4000000  0.0000000  )
        28           Mn  tau(  28) = (  0.4666667  0.5333333  0.0000000  )
        29           C   tau(  29) = (  0.4000000  0.6000000  0.0000000  )
        30           C   tau(  30) = (  0.4666667  0.7333333  0.0000000  )
        31           C   tau(  31) = (  0.4000000  0.8000000  0.0000000  )
        32           C   tau(  32) = (  0.4666667  0.9333333  0.0000000  )
        33           C   tau(  33) = (  0.6000000  0.0000000  0.0000000  )
        34           C   tau(  34) = (  0.6666667  0.1333333  0.0000000  )
        35           C   tau(  35) = (  0.6000000  0.2000000  0.0000000  )
        36           C   tau(  36) = (  0.6666667  0.3333333  0.0000000  )
        37           C   tau(  37) = (  0.6000000  0.4000000  0.0000000  )
        38           C   tau(  38) = (  0.6666667  0.5333333  0.0000000  )
        39           C   tau(  39) = (  0.6000000  0.6000000  0.0000000  )
        40           C   tau(  40) = (  0.6666667  0.7333333  0.0000000  )
        41           C   tau(  41) = (  0.6000000  0.8000000  0.0000000  )
        42           C   tau(  42) = (  0.6666667  0.9333333  0.0000000  )
        43           C   tau(  43) = (  0.8000000  0.0000000  0.0000000  )
        44           C   tau(  44) = (  0.8666667  0.1333333  0.0000000  )
        45           C   tau(  45) = (  0.8000000  0.2000000  0.0000000  )
        46           C   tau(  46) = (  0.8666667  0.3333333  0.0000000  )
        47           C   tau(  47) = (  0.8000000  0.4000000  0.0000000  )
        48           C   tau(  48) = (  0.8666667  0.5333333  0.0000000  )
        49           C   tau(  49) = (  0.8000000  0.6000000  0.0000000  )
        50           C   tau(  50) = (  0.8666667  0.7333333  0.0000000  )
        51           C   tau(  51) = (  0.8000000  0.8000000  0.0000000  )
        52           C   tau(  52) = (  0.8666667  0.9333333  0.0000000  )

     number of k points=     1  Marzari-Vanderbilt smearing, width (Ry)=  0.0010
                       cart. coord. in units 2pi/alat
        k(    1) = (   0.0000000   0.0000000   0.0000000), wk =   1.0000000

                       cryst. coord.
        k(    1) = (   0.0000000   0.0000000   0.0000000), wk =   1.0000000

     Dense  grid:  1626001 G-vectors     FFT dimensions: ( 180, 180, 135)

     Smooth grid:   702581 G-vectors     FFT dimensions: ( 125, 125, 108)

     Dynamical RAM for                 wfc:      28.59 MB

     Dynamical RAM for     wfc (w. buffer):      85.76 MB

     Dynamical RAM for           str. fact:      12.41 MB

     Dynamical RAM for           local pot:       0.00 MB

     Dynamical RAM for          nlocal pot:      92.46 MB

     Dynamical RAM for                qrad:      19.73 MB

     Dynamical RAM for          rho,v,vnew:      58.92 MB

     Dynamical RAM for               rhoin:      19.64 MB

     Dynamical RAM for            rho*nmix:     132.32 MB

     Dynamical RAM for           G-vectors:      16.40 MB

     Dynamical RAM for          h,s,v(r/c):      12.00 MB

     Dynamical RAM for          <psi|beta>:       0.81 MB

     Dynamical RAM for                 psi:     114.35 MB

     Dynamical RAM for                hpsi:     114.35 MB

     Dynamical RAM for                spsi:     114.35 MB

     Dynamical RAM for      wfcinit/wfcrot:      93.90 MB

     Dynamical RAM for           addusdens:     975.89 MB

     Dynamical RAM for          addusforce:    1410.48 MB

     Estimated static dynamical RAM per process >     488.30 MB

     Estimated max dynamical RAM per process >       1.85 GB

     Estimated total dynamical RAM >      11.13 GB
     Generating pointlists ...
     new r_m :   0.0252 (alat units)  0.5862 (a.u.) for type    1
     new r_m :   0.0476 (alat units)  1.1095 (a.u.) for type    2
     new r_m :   0.0476 (alat units)  1.1095 (a.u.) for type    3

     Check: negative core charge=   -0.000002

     Initial potential from superposition of free atoms

     starting charge  212.80506, renormalised to  213.00000

     negative rho (up, down):  6.991E-05 9.894E-03
     Starting wfcs are  208 randomized atomic wfcs

     total cpu time spent up to now is       76.2 secs

     Self-consistent Calculation

     iteration #  1     ecut=    70.00 Ry     beta= 0.70
     Davidson diagonalization with overlap
     ethr =  1.00E-02,  avg # of iterations =  2.5

     negative rho (up, down):  1.370E-04 1.000E-02

     total cpu time spent up to now is      213.9 secs

     total energy              =    -820.36287245 Ry
     Harris-Foulkes estimate   =    -822.78525262 Ry
     estimated scf accuracy    <      10.68611784 Ry

     total magnetization       =     7.00 Bohr mag/cell
     absolute magnetization    =     7.44 Bohr mag/cell

     iteration #  2     ecut=    70.00 Ry     beta= 0.70
     Davidson diagonalization with overlap
     ethr =  5.02E-03,  avg # of iterations =  5.5

     negative rho (up, down):  1.696E-04 1.103E-02

     total cpu time spent up to now is      334.9 secs

     total energy              =    -811.00378734 Ry
     Harris-Foulkes estimate   =    -831.07937058 Ry
     estimated scf accuracy    <      86.21461093 Ry

     total magnetization       =     4.79 Bohr mag/cell
     absolute magnetization    =     4.88 Bohr mag/cell

     iteration #  3     ecut=    70.00 Ry     beta= 0.70
     Davidson diagonalization with overlap
     ethr =  5.02E-03,  avg # of iterations =  5.0

     negative rho (up, down):  2.235E-04 9.305E-03

     total cpu time spent up to now is      522.3 secs

     total energy              =    -821.88375147 Ry
     Harris-Foulkes estimate   =    -825.24404709 Ry
     estimated scf accuracy    <      19.42187591 Ry

     total magnetization       =     7.00 Bohr mag/cell
     absolute magnetization    =     7.05 Bohr mag/cell

     iteration #  4     ecut=    70.00 Ry     beta= 0.70
     Davidson diagonalization with overlap
     ethr =  5.02E-03,  avg # of iterations =  3.5

     negative rho (up, down):  2.663E-04 1.147E-02

     total cpu time spent up to now is      624.9 secs

     total energy              =    -823.35150334 Ry
     Harris-Foulkes estimate   =    -824.52265149 Ry
     estimated scf accuracy    <       3.50754688 Ry

     total magnetization       =     3.00 Bohr mag/cell
     absolute magnetization    =     3.38 Bohr mag/cell

     iteration #  5     ecut=    70.00 Ry     beta= 0.70
     Davidson diagonalization with overlap
     ethr =  1.65E-03,  avg # of iterations =  5.0

     negative rho (up, down):  3.523E-04 1.912E-02

     total cpu time spent up to now is      722.4 secs

     total energy              =    -823.87544331 Ry
     Harris-Foulkes estimate   =    -824.05517467 Ry
     estimated scf accuracy    <       0.53239959 Ry

     total magnetization       =     3.00 Bohr mag/cell
     absolute magnetization    =     3.29 Bohr mag/cell

     iteration #  6     ecut=    70.00 Ry     beta= 0.70
     Davidson diagonalization with overlap
     ethr =  2.50E-04,  avg # of iterations =  3.5

     negative rho (up, down):  6.026E-04 8.809E-03

     total cpu time spent up to now is      820.9 secs

     total energy              =    -823.98428795 Ry
     Harris-Foulkes estimate   =    -824.02276001 Ry
     estimated scf accuracy    <       0.12821180 Ry

     total magnetization       =     3.00 Bohr mag/cell
     absolute magnetization    =     3.37 Bohr mag/cell

     iteration #  7     ecut=    70.00 Ry     beta= 0.70
     Davidson diagonalization with overlap
     ethr =  6.02E-05,  avg # of iterations =  9.0

     negative rho (up, down):  6.567E-04 7.791E-03

     total cpu time spent up to now is      924.1 secs

     total energy              =    -824.00329751 Ry
     Harris-Foulkes estimate   =    -824.01399691 Ry
     estimated scf accuracy    <       0.02558504 Ry

     total magnetization       =     3.00 Bohr mag/cell
     absolute magnetization    =     3.57 Bohr mag/cell

     iteration #  8     ecut=    70.00 Ry     beta= 0.70
     Davidson diagonalization with overlap
     ethr =  1.20E-05,  avg # of iterations =  9.0

     negative rho (up, down):  6.634E-04 7.726E-03

     total cpu time spent up to now is     1034.2 secs

     total energy              =    -824.00904684 Ry
     Harris-Foulkes estimate   =    -824.01203447 Ry
     estimated scf accuracy    <       0.00966728 Ry

     total magnetization       =     3.00 Bohr mag/cell
     absolute magnetization    =     3.70 Bohr mag/cell

     iteration #  9     ecut=    70.00 Ry     beta= 0.70
     Davidson diagonalization with overlap
     ethr =  4.54E-06,  avg # of iterations =  4.0

     negative rho (up, down):  6.626E-04 7.820E-03

     total cpu time spent up to now is     1131.7 secs

     total energy              =    -824.01108100 Ry
     Harris-Foulkes estimate   =    -824.01140828 Ry
     estimated scf accuracy    <       0.00169522 Ry

     total magnetization       =     3.00 Bohr mag/cell
     absolute magnetization    =     3.83 Bohr mag/cell

     iteration # 10     ecut=    70.00 Ry     beta= 0.70
     Davidson diagonalization with overlap
     ethr =  7.96E-07,  avg # of iterations =  3.0

     negative rho (up, down):  6.657E-04 7.874E-03

     total cpu time spent up to now is     1226.4 secs

     total energy              =    -824.01152993 Ry
     Harris-Foulkes estimate   =    -824.01156104 Ry
     estimated scf accuracy    <       0.00048160 Ry

     total magnetization       =     3.00 Bohr mag/cell
     absolute magnetization    =     3.93 Bohr mag/cell

     iteration # 11     ecut=    70.00 Ry     beta= 0.70
     Davidson diagonalization with overlap
     ethr =  2.26E-07,  avg # of iterations =  3.0

     negative rho (up, down):  6.697E-04 7.918E-03

     total cpu time spent up to now is     1322.4 secs

     total energy              =    -824.01175949 Ry
     Harris-Foulkes estimate   =    -824.01168348 Ry
     estimated scf accuracy    <       0.00013820 Ry

     total magnetization       =     3.00 Bohr mag/cell
     absolute magnetization    =     4.01 Bohr mag/cell

     iteration # 12     ecut=    70.00 Ry     beta= 0.70
     Davidson diagonalization with overlap
     ethr =  6.49E-08,  avg # of iterations =  3.0

     negative rho (up, down):  6.638E-04 8.015E-03

     total cpu time spent up to now is     1435.3 secs

     total energy              =    -824.01185368 Ry
     Harris-Foulkes estimate   =    -824.01182877 Ry
     estimated scf accuracy    <       0.00003055 Ry

     total magnetization       =     3.00 Bohr mag/cell
     absolute magnetization    =     4.12 Bohr mag/cell

     iteration # 13     ecut=    70.00 Ry     beta= 0.70
     Davidson diagonalization with overlap
     ethr =  1.43E-08,  avg # of iterations =  3.0

     negative rho (up, down):  6.683E-04 7.994E-03

     total cpu time spent up to now is     1546.5 secs

     total energy              =    -824.01188221 Ry
     Harris-Foulkes estimate   =    -824.01187278 Ry
     estimated scf accuracy    <       0.00002116 Ry

     total magnetization       =     3.00 Bohr mag/cell
     absolute magnetization    =     4.18 Bohr mag/cell

     iteration # 14     ecut=    70.00 Ry     beta= 0.70
     Davidson diagonalization with overlap
     ethr =  9.93E-09,  avg # of iterations =  3.0

     negative rho (up, down):  6.673E-04 8.029E-03

     total cpu time spent up to now is     1659.9 secs

     total energy              =    -824.01189673 Ry
     Harris-Foulkes estimate   =    -824.01189807 Ry
     estimated scf accuracy    <       0.00002489 Ry

     total magnetization       =     3.00 Bohr mag/cell
     absolute magnetization    =     4.23 Bohr mag/cell

     iteration # 15     ecut=    70.00 Ry     beta= 0.70
     Davidson diagonalization with overlap
     ethr =  9.93E-09,  avg # of iterations =  3.0

     negative rho (up, down):  6.672E-04 8.040E-03

     total cpu time spent up to now is     1751.7 secs

     total energy              =    -824.01190406 Ry
     Harris-Foulkes estimate   =    -824.01190355 Ry
     estimated scf accuracy    <       0.00000476 Ry

     total magnetization       =     3.00 Bohr mag/cell
     absolute magnetization    =     4.26 Bohr mag/cell

     iteration # 16     ecut=    70.00 Ry     beta= 0.70
     Davidson diagonalization with overlap
     ethr =  2.24E-09,  avg # of iterations =  3.0

     negative rho (up, down):  6.675E-04 8.043E-03

     total cpu time spent up to now is     1865.7 secs

     total energy              =    -824.01190648 Ry
     Harris-Foulkes estimate   =    -824.01190635 Ry
     estimated scf accuracy    <       0.00000120 Ry

     total magnetization       =     3.00 Bohr mag/cell
     absolute magnetization    =     4.28 Bohr mag/cell

     iteration # 17     ecut=    70.00 Ry     beta= 0.70
     Davidson diagonalization with overlap
     ethr =  5.64E-10,  avg # of iterations =  3.0

     negative rho (up, down):  6.676E-04 8.045E-03

     total cpu time spent up to now is     1974.3 secs

     total energy              =    -824.01190707 Ry
     Harris-Foulkes estimate   =    -824.01190707 Ry
     estimated scf accuracy    <       0.00000035 Ry

     total magnetization       =     3.00 Bohr mag/cell
     absolute magnetization    =     4.29 Bohr mag/cell

     iteration # 18     ecut=    70.00 Ry     beta= 0.70
     Davidson diagonalization with overlap
     ethr =  1.63E-10,  avg # of iterations =  3.0

     negative rho (up, down):  6.676E-04 8.051E-03

     total cpu time spent up to now is     2084.2 secs

     total energy              =    -824.01190725 Ry
     Harris-Foulkes estimate   =    -824.01190725 Ry
     estimated scf accuracy    <       0.00000019 Ry

     total magnetization       =     3.00 Bohr mag/cell
     absolute magnetization    =     4.29 Bohr mag/cell

     iteration # 19     ecut=    70.00 Ry     beta= 0.70
     Davidson diagonalization with overlap
     ethr =  8.81E-11,  avg # of iterations =  3.5

     negative rho (up, down):  6.676E-04 8.051E-03

     total cpu time spent up to now is     2183.9 secs

     total energy              =    -824.01190733 Ry
     Harris-Foulkes estimate   =    -824.01190733 Ry
     estimated scf accuracy    <       0.00000008 Ry

     total magnetization       =     3.00 Bohr mag/cell
     absolute magnetization    =     4.30 Bohr mag/cell

     iteration # 20     ecut=    70.00 Ry     beta= 0.70
     Davidson diagonalization with overlap
     ethr =  3.98E-11,  avg # of iterations =  3.0

     negative rho (up, down):  6.676E-04 8.052E-03

     total cpu time spent up to now is     2286.2 secs

     total energy              =    -824.01190736 Ry
     Harris-Foulkes estimate   =    -824.01190736 Ry
     estimated scf accuracy    <       0.00000002 Ry

     total magnetization       =     3.00 Bohr mag/cell
     absolute magnetization    =     4.30 Bohr mag/cell

     iteration # 21     ecut=    70.00 Ry     beta= 0.70
     Davidson diagonalization with overlap
     ethr =  1.05E-11,  avg # of iterations =  3.0

     negative rho (up, down):  6.676E-04 8.051E-03

     total cpu time spent up to now is     2395.3 secs

     total energy              =    -824.01190737 Ry
     Harris-Foulkes estimate   =    -824.01190737 Ry
     estimated scf accuracy    <       0.00000001 Ry

     total magnetization       =     3.00 Bohr mag/cell
     absolute magnetization    =     4.30 Bohr mag/cell

     iteration # 22     ecut=    70.00 Ry     beta= 0.70
     Davidson diagonalization with overlap
     ethr =  5.31E-12,  avg # of iterations =  3.0

     negative rho (up, down):  6.675E-04 8.053E-03

     total cpu time spent up to now is     2494.5 secs

     total energy              =    -824.01190737 Ry
     Harris-Foulkes estimate   =    -824.01190737 Ry
     estimated scf accuracy    <          6.2E-09 Ry

     total magnetization       =     3.00 Bohr mag/cell
     absolute magnetization    =     4.30 Bohr mag/cell

     iteration # 23     ecut=    70.00 Ry     beta= 0.70
     Davidson diagonalization with overlap
     ethr =  2.92E-12,  avg # of iterations =  3.0

     negative rho (up, down):  6.675E-04 8.053E-03

     total cpu time spent up to now is     2593.9 secs

     total energy              =    -824.01190737 Ry
     Harris-Foulkes estimate   =    -824.01190737 Ry
     estimated scf accuracy    <          8.8E-10 Ry

     total magnetization       =     3.00 Bohr mag/cell
     absolute magnetization    =     4.30 Bohr mag/cell

     iteration # 24     ecut=    70.00 Ry     beta= 0.70
     Davidson diagonalization with overlap
     ethr =  4.11E-13,  avg # of iterations =  3.5

     negative rho (up, down):  6.675E-04 8.053E-03

     total cpu time spent up to now is     2708.7 secs

     total energy              =    -824.01190737 Ry
     Harris-Foulkes estimate   =    -824.01190737 Ry
     estimated scf accuracy    <          1.7E-09 Ry

     total magnetization       =     3.00 Bohr mag/cell
     absolute magnetization    =     4.30 Bohr mag/cell

     iteration # 25     ecut=    70.00 Ry     beta= 0.70
     Davidson diagonalization with overlap
     ethr =  4.11E-13,  avg # of iterations =  3.5

     negative rho (up, down):  6.675E-04 8.053E-03

     total cpu time spent up to now is     2799.9 secs

     total energy              =    -824.01190737 Ry
     Harris-Foulkes estimate   =    -824.01190737 Ry
     estimated scf accuracy    <          6.0E-10 Ry

     total magnetization       =     3.00 Bohr mag/cell
     absolute magnetization    =     4.30 Bohr mag/cell

     iteration # 26     ecut=    70.00 Ry     beta= 0.70
     Davidson diagonalization with overlap
     ethr =  2.82E-13,  avg # of iterations =  3.0

     negative rho (up, down):  6.675E-04 8.053E-03

     Magnetic moment per site:
     atom:    1    charge:    0.2093    magn:    0.0002    constr:    0.0000
     atom:    2    charge:    0.2093    magn:    0.0013    constr:    0.0000
     atom:    3    charge:    1.7117    magn:   -0.0127    constr:    0.0000
     atom:    4    charge:    1.7102    magn:    0.0177    constr:    0.0000
     atom:    5    charge:    1.7124    magn:   -0.0097    constr:    0.0000
     atom:    6    charge:    1.7089    magn:    0.0060    constr:    0.0000
     atom:    7    charge:    1.7124    magn:   -0.0097    constr:    0.0000
     atom:    8    charge:    1.7102    magn:    0.0177    constr:    0.0000
     atom:    9    charge:    1.7117    magn:   -0.0126    constr:    0.0000
     atom:   10    charge:    1.7102    magn:    0.0572    constr:    0.0000
     atom:   11    charge:    1.7121    magn:   -0.0178    constr:    0.0000
     atom:   12    charge:    1.7102    magn:    0.0573    constr:    0.0000
     atom:   13    charge:    1.7121    magn:   -0.0179    constr:    0.0000
     atom:   14    charge:    1.7106    magn:    0.0460    constr:    0.0000
     atom:   15    charge:    1.7091    magn:   -0.0148    constr:    0.0000
     atom:   16    charge:    1.7068    magn:    0.0617    constr:    0.0000
     atom:   17    charge:    1.7183    magn:   -0.0143    constr:    0.0000
     atom:   18    charge:    1.7068    magn:    0.0617    constr:    0.0000
     atom:   19    charge:    1.7091    magn:   -0.0147    constr:    0.0000
     atom:   20    charge:    1.7106    magn:    0.0459    constr:    0.0000
     atom:   21    charge:    1.7121    magn:   -0.0178    constr:    0.0000
     atom:   22    charge:    1.7101    magn:    0.0573    constr:    0.0000
     atom:   23    charge:    1.7117    magn:   -0.0126    constr:    0.0000
     atom:   24    charge:    1.7102    magn:    0.0177    constr:    0.0000
     atom:   25    charge:    1.7090    magn:   -0.0148    constr:    0.0000
     atom:   26    charge:    1.7067    magn:    0.0617    constr:    0.0000
     atom:   27    charge:    1.8689    magn:   -0.0309    constr:    0.0000
     atom:   28    charge:   10.0137    magn:    0.7907    constr:    0.0000
     atom:   29    charge:    1.8688    magn:   -0.0309    constr:    0.0000
     atom:   30    charge:    1.7068    magn:    0.0618    constr:    0.0000
     atom:   31    charge:    1.7091    magn:   -0.0148    constr:    0.0000
     atom:   32    charge:    1.7102    magn:    0.0177    constr:    0.0000
     atom:   33    charge:    1.7124    magn:   -0.0097    constr:    0.0000
     atom:   34    charge:    1.7088    magn:    0.0125    constr:    0.0000
     atom:   35    charge:    1.7124    magn:   -0.0097    constr:    0.0000
     atom:   36    charge:    1.7089    magn:    0.0061    constr:    0.0000
     atom:   37    charge:    1.7181    magn:   -0.0144    constr:    0.0000
     atom:   38    charge:    1.7068    magn:    0.0613    constr:    0.0000
     atom:   39    charge:    1.8690    magn:   -0.0309    constr:    0.0000
     atom:   40    charge:    1.7067    magn:    0.0617    constr:    0.0000
     atom:   41    charge:    1.7182    magn:   -0.0143    constr:    0.0000
     atom:   42    charge:    1.7089    magn:    0.0060    constr:    0.0000
     atom:   43    charge:    1.7124    magn:   -0.0097    constr:    0.0000
     atom:   44    charge:    1.7088    magn:    0.0125    constr:    0.0000
     atom:   45    charge:    1.7180    magn:   -0.0072    constr:    0.0000
     atom:   46    charge:    1.7088    magn:    0.0124    constr:    0.0000
     atom:   47    charge:    1.7124    magn:   -0.0096    constr:    0.0000
     atom:   48    charge:    1.7103    magn:    0.0177    constr:    0.0000
     atom:   49    charge:    1.7091    magn:   -0.0147    constr:    0.0000
     atom:   50    charge:    1.7106    magn:    0.0459    constr:    0.0000
     atom:   51    charge:    1.7091    magn:   -0.0148    constr:    0.0000
     atom:   52    charge:    1.7102    magn:    0.0177    constr:    0.0000

     total cpu time spent up to now is     2887.2 secs

     End of self-consistent calculation

 ------ SPIN UP ------------


          k = 0.0000 0.0000 0.0000 ( 87777 PWs)   bands (ev):

   -80.6743 -50.2065 -50.2060 -49.0944 -19.8205 -18.9824 -18.9822 -18.8909
   -18.8709 -18.8705 -18.5257 -17.1148 -17.1142 -17.1092 -17.0281 -17.0280
   -16.7170 -16.2651 -16.2647 -16.1574 -16.0938 -16.0936 -15.3941 -14.1340
   -14.1332 -14.0660 -14.0018 -14.0014 -13.3491 -13.1052 -13.1051 -13.0765
   -12.7720 -12.7718 -12.3533 -11.8723 -11.8720 -11.6867 -11.4106 -11.4106
   -10.4993  -9.6971  -9.6968  -9.4497  -9.3282  -9.3279  -9.2471  -9.2200
    -9.2200  -9.2078  -8.7195  -8.7194  -8.1952  -8.1949  -8.0903  -7.9595
    -7.8612  -7.4476  -7.4473  -7.2429  -7.2130  -7.2006  -6.9281  -6.9278
    -6.8719  -6.8430  -6.8394  -6.7166  -6.6650  -6.5632  -6.5631  -6.5331
    -6.5207  -6.5205  -6.4719  -6.3069  -5.6670  -5.6605  -5.5220  -5.5217
    -5.3165  -5.3161  -5.0525  -4.9708  -4.8707  -4.7648  -4.7438  -4.7402
    -4.4179  -4.2469  -4.2466  -4.2140  -4.2134  -3.9053  -3.9031  -3.8074
    -3.6419  -3.6418  -3.1639  -2.7748  -2.7743  -1.9172  -1.8242  -1.8237
    -1.4323  -1.1278  -1.1268  -0.8727   0.8937   0.9529   0.9534   1.5580
     1.5588   1.5735   2.7569   2.7584   2.8120   2.8558   2.9760   2.9956
     3.4721   3.4737   3.4895   3.7345   3.9235   4.0303   4.0490   4.0509

     occupation numbers 
     1.0000   1.0000   1.0000   1.0000   1.0000   1.0000   1.0000   1.0000
     1.0000   1.0000   1.0000   1.0000   1.0000   1.0000   1.0000   1.0000
     1.0000   1.0000   1.0000   1.0000   1.0000   1.0000   1.0000   1.0000
     1.0000   1.0000   1.0000   1.0000   1.0000   1.0000   1.0000   1.0000
     1.0000   1.0000   1.0000   1.0000   1.0000   1.0000   1.0000   1.0000
     1.0000   1.0000   1.0000   1.0000   1.0000   1.0000   1.0000   1.0000
     1.0000   1.0000   1.0000   1.0000   1.0000   1.0000   1.0000   1.0000
     1.0000   1.0000   1.0000   1.0000   1.0000   1.0000   1.0000   1.0000
     1.0000   1.0000   1.0000   1.0000   1.0000   1.0000   1.0000   1.0000
     1.0000   1.0000   1.0000   1.0000   1.0000   1.0000   1.0000   1.0000
     1.0000   1.0000   1.0000   1.0000   1.0000   1.0000   1.0000   1.0000
     1.0000   1.0000   1.0000   1.0000   1.0000   1.0000   1.0000   1.0000
     1.0000   1.0000   1.0000   1.0000   1.0000   1.0000   1.0000   1.0000
     1.0000   1.0000   1.0000   1.0000   0.0000   0.0000   0.0000   0.0000
     0.0000   0.0000   0.0000   0.0000   0.0000   0.0000   0.0000   0.0000
     0.0000   0.0000   0.0000   0.0000   0.0000   0.0000   0.0000   0.0000

 ------ SPIN DOWN ----------


          k = 0.0000 0.0000 0.0000 ( 87777 PWs)   bands (ev):

   -79.3530 -49.1383 -49.1366 -47.3636 -19.7776 -18.9329 -18.9327 -18.8526
   -18.8432 -18.8426 -18.4574 -17.0785 -17.0758 -17.0753 -16.9705 -16.9703
   -16.6851 -16.2131 -16.2127 -16.1248 -16.0487 -16.0484 -15.3586 -14.0587
   -14.0580 -13.9969 -13.9893 -13.9889 -13.3507 -13.0751 -13.0750 -13.0423
   -12.7487 -12.7485 -12.3101 -11.8266 -11.8263 -11.6574 -11.3813 -11.3812
   -10.4548  -9.6209  -9.6206  -9.4129  -9.2880  -9.2878  -9.2272  -9.1920
    -9.1920  -9.1867  -8.6980  -8.6979  -8.1400  -8.1396  -8.0519  -7.8623
    -7.8365  -7.4257  -7.4253  -7.1401  -7.0477  -7.0114  -6.8580  -6.8578
    -6.7969  -6.7830  -6.7571  -6.6929  -6.5767  -6.5380  -6.5377  -6.5171
    -6.5038  -6.5036  -6.4517  -6.2207  -5.4753  -5.4751  -5.3646  -5.3564
    -5.2333  -5.2329  -4.9517  -4.8545  -4.6992  -4.6910  -4.6540  -4.6509
    -4.3397  -4.1164  -4.1158  -3.9969  -3.9964  -3.7722  -3.7697  -3.7229
    -3.6176  -3.6174  -3.0799  -2.5125  -2.5120  -1.7984  -1.7979  -1.7528
    -0.8206  -0.5338  -0.5327   0.1420   0.9956   0.9962   1.0458   1.7376
     1.7388   1.7401   2.8493   2.8919   2.8928   2.9230   3.3093   3.3361
     3.6456   3.6580   3.6594   3.7932   3.9663   4.0538   4.0648   4.0670

     occupation numbers 
     1.0000   1.0000   1.0000   1.0000   1.0000   1.0000   1.0000   1.0000
     1.0000   1.0000   1.0000   1.0000   1.0000   1.0000   1.0000   1.0000
     1.0000   1.0000   1.0000   1.0000   1.0000   1.0000   1.0000   1.0000
     1.0000   1.0000   1.0000   1.0000   1.0000   1.0000   1.0000   1.0000
     1.0000   1.0000   1.0000   1.0000   1.0000   1.0000   1.0000   1.0000
     1.0000   1.0000   1.0000   1.0000   1.0000   1.0000   1.0000   1.0000
     1.0000   1.0000   1.0000   1.0000   1.0000   1.0000   1.0000   1.0000
     1.0000   1.0000   1.0000   1.0000   1.0000   1.0000   1.0000   1.0000
     1.0000   1.0000   1.0000   1.0000   1.0000   1.0000   1.0000   1.0000
     1.0000   1.0000   1.0000   1.0000   1.0000   1.0000   1.0000   1.0000
     1.0000   1.0000   1.0000   1.0000   1.0000   1.0000   1.0000   1.0000
     1.0000   1.0000   1.0000   1.0000   1.0000   1.0000   1.0000   1.0000
     1.0000   1.0000   1.0000   1.0000   1.0000   1.0000   1.0000   1.0000
     1.0000   0.0000   0.0000   0.0000   0.0000   0.0000   0.0000   0.0000
     0.0000   0.0000   0.0000   0.0000   0.0000   0.0000   0.0000   0.0000
     0.0000   0.0000   0.0000   0.0000   0.0000   0.0000   0.0000   0.0000

     the Fermi energy is    -0.7087 ev

!    total energy              =    -824.01190737 Ry
     Harris-Foulkes estimate   =    -824.01190737 Ry
     estimated scf accuracy    <          7.8E-11 Ry

     The total energy is the sum of the following terms:

     one-electron contribution =   -2722.64414628 Ry
     hartree contribution      =    1406.47766342 Ry
     xc contribution           =    -257.58403784 Ry
     ewald contribution        =     749.73861332 Ry
     smearing contrib. (-TS)   =       0.00000000 Ry

     total magnetization       =     3.00 Bohr mag/cell
     absolute magnetization    =     4.30 Bohr mag/cell

     convergence has been achieved in  26 iterations

     negative rho (up, down):  6.675E-04 8.053E-03

     Forces acting on atoms (cartesian axes, Ry/au):

     atom    1 type  1   force =    -0.00054078    0.00017531    0.00092180
     atom    2 type  1   force =     0.00150202   -0.00066016    0.00184658
     atom    3 type  2   force =    -0.00029505    0.00015772    0.00000544
     atom    4 type  2   force =    -0.00900281   -0.00066882    0.00000308
     atom    5 type  2   force =    -0.00134632   -0.00424079   -0.00000524
     atom    6 type  2   force =     0.00675171    0.00389674    0.00000813
     atom    7 type  2   force =    -0.00428933    0.00105587   -0.00001570
     atom    8 type  2   force =    -0.00509254   -0.00756986   -0.00000729
     atom    9 type  2   force =    -0.00002546   -0.00027039    0.00001848
     atom   10 type  2   force =     0.00000884   -0.00344706    0.00000017
     atom   11 type  2   force =    -0.01070383   -0.00618328   -0.00000719
     atom   12 type  2   force =    -0.00295005    0.00172525    0.00000339
     atom   13 type  2   force =     0.00001283    0.01228503   -0.00000354
     atom   14 type  2   force =     0.00000882   -0.01747938    0.00000086
     atom   15 type  2   force =    -0.00090805    0.01728376    0.00002566
     atom   16 type  2   force =    -0.04782938   -0.02962623   -0.00008752
     atom   17 type  2   force =    -0.02278106   -0.01303270    0.00002004
     atom   18 type  2   force =    -0.04979355   -0.02678304   -0.00004547
     atom   19 type  2   force =     0.01457572   -0.00943206    0.00000986
     atom   20 type  2   force =    -0.01514961    0.00875546   -0.00000542
     atom   21 type  2   force =     0.01065495   -0.00612892   -0.00000337
     atom   22 type  2   force =     0.00288421    0.00167798    0.00000056
     atom   23 type  2   force =     0.00032938    0.00027608    0.00001252
     atom   24 type  2   force =     0.00892851   -0.00075050    0.00000661
     atom   25 type  2   force =     0.00088315    0.01748213    0.00005690
     atom   26 type  2   force =     0.04738968   -0.02943235   -0.00045228
     atom   27 type  2   force =     0.00016171   -0.74956765   -0.00084339
     atom   28 type  3   force =     0.00038427    0.00035591   -0.00056744
     atom   29 type  2   force =    -0.64850710    0.37451214   -0.00005730
     atom   30 type  2   force =    -0.00171428    0.05642724    0.00001298
     atom   31 type  2   force =     0.01546734   -0.00791302    0.00000237
     atom   32 type  2   force =     0.00395135    0.00818329   -0.00000562
     atom   33 type  2   force =    -0.00300621    0.00323790   -0.00001309
     atom   34 type  2   force =     0.00344153    0.00199760    0.00000189
     atom   35 type  2   force =     0.00137778   -0.00410429   -0.00006357
     atom   36 type  2   force =    -0.00635388    0.00363376    0.00000141
     atom   37 type  2   force =     0.02227288   -0.01280191    0.00070316
     atom   38 type  2   force =     0.04909662   -0.02652105   -0.00023518
     atom   39 type  2   force =     0.64846974    0.37447117   -0.00136246
     atom   40 type  2   force =     0.00159215    0.05623479    0.00000759
     atom   41 type  2   force =     0.00007044    0.02625440    0.00004943
     atom   42 type  2   force =     0.00000029   -0.00781065   -0.00000251
     atom   43 type  2   force =     0.00298731    0.00329395   -0.00000572
     atom   44 type  2   force =    -0.00339935    0.00194816   -0.00000189
     atom   45 type  2   force =    -0.00003023    0.00013159    0.00003084
     atom   46 type  2   force =     0.00004226   -0.00416259    0.00000643
     atom   47 type  2   force =     0.00418095    0.00087932   -0.00009151
     atom   48 type  2   force =     0.00512785   -0.00740661   -0.00000870
     atom   49 type  2   force =    -0.01460977   -0.00940793    0.00010074
     atom   50 type  2   force =     0.01517003    0.00883555   -0.00000892
     atom   51 type  2   force =    -0.01547162   -0.00789476    0.00003701
     atom   52 type  2   force =    -0.00392403    0.00812790    0.00000639
     The non-local contrib.  to forces
     atom    1 type  1   force =     0.12858096    0.00006554   -0.00020392
     atom    2 type  1   force =    -0.12857698   -0.00001875    0.00007652
     atom    3 type  2   force =     0.01145692   -0.00657250   -0.00000958
     atom    4 type  2   force =     0.01350620    0.00044447    0.00003336
     atom    5 type  2   force =     0.01089285   -0.00197560    0.00004124
     atom    6 type  2   force =     0.00012685    0.00007629    0.00007798
     atom    7 type  2   force =     0.00367377    0.01046322    0.00004178
     atom    8 type  2   force =     0.00709846    0.01148805    0.00007167
     atom    9 type  2   force =    -0.00009434    0.01313915    0.00012303
     atom   10 type  2   force =    -0.00002193    0.00587254    0.00003418
     atom   11 type  2   force =    -0.00358683   -0.00211760    0.00002028
     atom   12 type  2   force =     0.00512375   -0.00299097    0.00001012
     atom   13 type  2   force =    -0.00000675    0.00413656   -0.00000978
     atom   14 type  2   force =    -0.00009244   -0.00562108   -0.00000914
     atom   15 type  2   force =     0.01694980    0.01632940    0.00016222
     atom   16 type  2   force =     0.03269886    0.01996221    0.00039851
     atom   17 type  2   force =    -0.00822188   -0.00474196    0.00024501
     atom   18 type  2   force =     0.03355477    0.01837743    0.00022897
     atom   19 type  2   force =     0.02260012    0.00655605    0.00009987
     atom   20 type  2   force =    -0.00483325    0.00273214    0.00005617
     atom   21 type  2   force =     0.00359904   -0.00211394    0.00000597
     atom   22 type  2   force =    -0.00517474   -0.00300373   -0.00000189
     atom   23 type  2   force =    -0.01143252   -0.00661228    0.00004313
     atom   24 type  2   force =    -0.01346498    0.00040649   -0.00002266
     atom   25 type  2   force =    -0.01703551    0.01608153   -0.00019093
     atom   26 type  2   force =    -0.03288618    0.01994994   -0.00148827
     atom   27 type  2   force =    -0.00074213   -0.61094497   -0.00165051
     atom   28 type  3   force =     0.00181465   -0.00008513    0.00193791
     atom   29 type  2   force =    -0.52906038    0.30536143    0.00015543
     atom   30 type  2   force =     0.00076163   -0.03843193    0.00010564
     atom   31 type  2   force =     0.00558481   -0.02292256    0.00004877
     atom   32 type  2   force =    -0.00640868   -0.01194429    0.00004250
     atom   33 type  2   force =    -0.00722880   -0.00836854   -0.00000998
     atom   34 type  2   force =    -0.01573050   -0.00900598    0.00003307
     atom   35 type  2   force =    -0.01082527   -0.00182273   -0.00008310
     atom   36 type  2   force =     0.00004510    0.00018533    0.00021145
     atom   37 type  2   force =     0.00855016   -0.00456944    0.00135738
     atom   38 type  2   force =    -0.03339475    0.01840154   -0.00050188
     atom   39 type  2   force =     0.52863674    0.30574713   -0.00281653
     atom   40 type  2   force =    -0.00091480   -0.03837865    0.00019143
     atom   41 type  2   force =    -0.00005530    0.00950338    0.00013760
     atom   42 type  2   force =    -0.00000581   -0.00008421    0.00000751
     atom   43 type  2   force =     0.00721347   -0.00835213   -0.00000122
     atom   44 type  2   force =     0.01575565   -0.00901336    0.00001273
     atom   45 type  2   force =    -0.00001705    0.00010521    0.00007389
     atom   46 type  2   force =    -0.00011223    0.01822072    0.00007565
     atom   47 type  2   force =    -0.00382813    0.01049421    0.00008422
     atom   48 type  2   force =    -0.00723750    0.01142991    0.00021486
     atom   49 type  2   force =    -0.02239751    0.00651999    0.00032882
     atom   50 type  2   force =     0.00494330    0.00264889    0.00006746
     atom   51 type  2   force =    -0.00553049   -0.02285892    0.00008782
     atom   52 type  2   force =     0.00645077   -0.01187909   -0.00000140
     The ionic contribution  to forces
     atom    1 type  1   force =    -0.83248032   -0.12922350    2.60326145
     atom    2 type  1   force =     1.21179560   -0.09901507    2.48500900
     atom    3 type  2   force =     0.05044886   -0.02943944   -0.02786470
     atom    4 type  2   force =    -0.33890566   -0.54852571   -0.03519394
     atom    5 type  2   force =    -0.43871777   -0.35907249   -0.02753498
     atom    6 type  2   force =    -0.95812490   -0.54392630   -0.03581522
     atom    7 type  2   force =    -0.49629627   -0.19006177   -0.02864021
     atom    8 type  2   force =    -0.59243803    0.00839036   -0.02864021
     atom    9 type  2   force =     0.05175927    0.08693770   -0.03581522
     atom   10 type  2   force =     0.03323757    0.14207447   -0.02753498
     atom   11 type  2   force =     0.33989342    0.20705174   -0.03519394
     atom   12 type  2   force =     0.11260059   -0.06469721   -0.02786470
     atom   13 type  2   force =    -0.00824798   -0.39722254   -0.03469602
     atom   14 type  2   force =    -0.03671896   -1.15799711   -0.07429287
     atom   15 type  2   force =    -0.54925351   -1.47459060   -0.07528600
     atom   16 type  2   force =    -2.08232888   -3.45141172   -0.13570784
     atom   17 type  2   force =    -2.58504218   -1.44946028   -0.07702668
     atom   18 type  2   force =    -4.00751459    0.02393532   -0.07702668
     atom   19 type  2   force =    -1.48760208    0.30405156   -0.03581522
     atom   20 type  2   force =    -0.93960320    0.54339346   -0.02753498
     atom   21 type  2   force =    -0.29720677    0.17243112   -0.02147954
     atom   22 type  2   force =    -0.10563037   -0.09862026   -0.02698528
     atom   23 type  2   force =    -0.04917110   -0.08718864   -0.03469602
     atom   24 type  2   force =     0.33293798   -0.62448262   -0.07429287
     atom   25 type  2   force =     0.47247620   -1.54352213   -0.13170896
     atom   26 type  2   force =     1.94577703   -3.53391992   -0.29092578
     atom   27 type  2   force =    -0.13793283  -12.15795474   -0.29557302
     atom   28 type  3   force =    -0.51724810    0.31123441   -1.10839882
     atom   29 type  2   force =   -10.59377301    6.11870649   -0.13570784
     atom   30 type  2   force =    -2.02255434    3.45959108   -0.07528600
     atom   31 type  2   force =    -1.00605325    1.13722782   -0.03519394
     atom   32 type  2   force =    -0.30318924    0.50935490   -0.02786470
     atom   33 type  2   force =    -0.08384585    0.52435237   -0.02786470
     atom   34 type  2   force =     0.14831702    0.02552640   -0.03519394
     atom   35 type  2   force =     0.48225750   -0.42837586   -0.07528600
     atom   36 type  2   force =     1.04291748   -0.60451748   -0.13570784
     atom   37 type  2   force =     2.60701448   -1.50852080   -0.29557302
     atom   38 type  2   force =     4.02948689    0.08299584   -0.29557302
     atom   39 type  2   force =    10.45722116    6.20121469   -0.29092578
     atom   40 type  2   force =     1.94577703    3.52852261   -0.13170896
     atom   41 type  2   force =    -0.03671896    2.96246615   -0.07429287
     atom   42 type  2   force =    -0.00824798    1.10061860   -0.03469602
     atom   43 type  2   force =     0.09081607    0.55827542   -0.02698528
     atom   44 type  2   force =    -0.10563037    0.06014702   -0.02147954
     atom   45 type  2   force =     0.03323757   -0.02010302   -0.02753498
     atom   46 type  2   force =     0.05175927   -0.14260730   -0.03581522
     atom   47 type  2   force =     0.61225679   -0.20560673   -0.07702668
     atom   48 type  2   force =     0.70839856    0.02393532   -0.07702668
     atom   49 type  2   force =     1.57239466    0.36464275   -0.13570784
     atom   50 type  2   force =     0.98314294    0.61269684   -0.07528600
     atom   51 type  2   force =     1.00008557    1.21318473   -0.07429287
     atom   52 type  2   force =     0.30446700    0.56710410   -0.03469602
     The local contribution  to forces
     atom    1 type  1   force =     0.70335854    0.12933331   -2.60213549
     atom    2 type  1   force =    -1.08171671    0.09837372   -2.48323874
     atom    3 type  2   force =    -0.06202692    0.03606946    0.02787974
     atom    4 type  2   force =     0.31664597    0.54743051    0.03516458
     atom    5 type  2   force =     0.42666686    0.35679549    0.02748940
     atom    6 type  2   force =     0.96475830    0.54775059    0.03574747
     atom    7 type  2   force =     0.48841684    0.18082246    0.02858247
     atom    8 type  2   force =     0.58038720   -0.02723994    0.02856201
     atom    9 type  2   force =    -0.05169322   -0.10014698    0.03571342
     atom   10 type  2   force =    -0.03320833   -0.15128720    0.02750150
     atom   11 type  2   force =    -0.34703735   -0.21113286    0.03516649
     atom   12 type  2   force =    -0.12058250    0.06935935    0.02785684
     atom   13 type  2   force =     0.00826665    0.40540094    0.03470201
     atom   14 type  2   force =     0.03681818    1.14611256    0.07430340
     atom   15 type  2   force =     0.53168212    1.47579151    0.07515175
     atom   16 type  2   force =     2.00263274    3.40230270    0.13522797
     atom   17 type  2   force =     2.57029089    1.44105719    0.07680427
     atom   18 type  2   force =     3.92499650   -0.06861567    0.07675486
     atom   19 type  2   force =     1.47993401   -0.31991396    0.03572666
     atom   20 type  2   force =     0.92926412   -0.53735796    0.02747531
     atom   21 type  2   force =     0.30428842   -0.17646189    0.02147049
     atom   22 type  2   force =     0.11359500    0.10324817    0.02698775
     atom   23 type  2   force =     0.06075781    0.09397645    0.03466702
     atom   24 type  2   force =    -0.31079414    0.62334568    0.07432183
     atom   25 type  2   force =    -0.45484523    1.54516650    0.13195341
     atom   26 type  2   force =    -1.86633290    3.48501903    0.29193826
     atom   27 type  2   force =     0.13882620   12.00178628    0.29634917
     atom   28 type  3   force =     0.51595491   -0.31074510    1.10584771
     atom   29 type  2   force =    10.45913486   -6.04078605    0.13549710
     atom   30 type  2   force =     2.02007691   -3.36569408    0.07519400
     atom   31 type  2   force =     1.01600468   -1.12259078    0.03514802
     atom   32 type  2   force =     0.31343958   -0.48945409    0.02781716
     atom   33 type  2   force =     0.08796453   -0.51290208    0.02786081
     atom   34 type  2   force =    -0.12938825   -0.01466151    0.03516330
     atom   35 type  2   force =    -0.47024311    0.42608729    0.07530374
     atom   36 type  2   force =    -1.04932509    0.60797422    0.13550324
     atom   37 type  2   force =    -2.59309555    1.50018089    0.29494638
     atom   38 type  2   force =    -3.94782321   -0.12743848    0.29582924
     atom   39 type  2   force =   -10.32219471   -6.12371173    0.29233148
     atom   40 type  2   force =    -1.94326837   -3.43487197    0.13152898
     atom   41 type  2   force =     0.03684511   -2.94549319    0.07420690
     atom   42 type  2   force =     0.00825526   -1.10835378    0.03468721
     atom   43 type  2   force =    -0.09493704   -0.54678558    0.02698121
     atom   44 type  2   force =     0.08671958   -0.04932547    0.02146530
     atom   45 type  2   force =    -0.03324953    0.02012981    0.02749351
     atom   46 type  2   force =    -0.05160758    0.12050623    0.03574707
     atom   47 type  2   force =    -0.60433533    0.19616222    0.07685124
     atom   48 type  2   force =    -0.69617775   -0.04256508    0.07680588
     atom   49 type  2   force =    -1.56496181   -0.38044639    0.13548345
     atom   50 type  2   force =    -0.97289312   -0.60650001    0.07521085
     atom   51 type  2   force =    -1.01009488   -1.19859244    0.07424332
     atom   52 type  2   force =    -0.31473206   -0.54732247    0.03470445
     The core correction contribution to forces
     atom    1 type  1   force =     0.00000000    0.00000000    0.00000000
     atom    2 type  1   force =     0.00000000    0.00000000    0.00000000
     atom    3 type  2   force =    -0.00017472    0.00010014    0.00000035
     atom    4 type  2   force =    -0.00024922   -0.00001760   -0.00000055
     atom    5 type  2   force =    -0.00018675    0.00001167   -0.00000053
     atom    6 type  2   force =    -0.00000719   -0.00000423   -0.00000175
     atom    7 type  2   force =    -0.00008213   -0.00016782    0.00000064
     atom    8 type  2   force =    -0.00013913   -0.00020795   -0.00000040
     atom    9 type  2   force =     0.00000189   -0.00020000   -0.00000234
     atom   10 type  2   force =     0.00000068   -0.00010688   -0.00000014
     atom   11 type  2   force =     0.00002441    0.00001492    0.00000038
     atom   12 type  2   force =    -0.00009304    0.00005429    0.00000152
     atom   13 type  2   force =    -0.00000006   -0.00002821    0.00000064
     atom   14 type  2   force =     0.00000185    0.00002821   -0.00000012
     atom   15 type  2   force =    -0.00028560   -0.00024529   -0.00000193
     atom   16 type  2   force =    -0.00083060   -0.00048007   -0.00000578
     atom   17 type  2   force =     0.00019312    0.00011199   -0.00000224
     atom   18 type  2   force =    -0.00083032   -0.00047947   -0.00000232
     atom   19 type  2   force =    -0.00035462   -0.00012507   -0.00000112
     atom   20 type  2   force =     0.00002390   -0.00001285   -0.00000159
     atom   21 type  2   force =    -0.00002472    0.00001501    0.00000008
     atom   22 type  2   force =     0.00009390    0.00005406    0.00000037
     atom   23 type  2   force =     0.00017480    0.00010085   -0.00000121
     atom   24 type  2   force =     0.00024819   -0.00001766    0.00000076
     atom   25 type  2   force =     0.00028650   -0.00024013    0.00000383
     atom   26 type  2   force =     0.00083202   -0.00048011    0.00002399
     atom   27 type  2   force =     0.00001300    0.01754014    0.00003139
     atom   28 type  3   force =    -0.00012432   -0.00005119    0.00004645
     atom   29 type  2   force =     0.01518764   -0.00876690   -0.00000170
     atom   30 type  2   force =     0.00000155    0.00096213   -0.00000036
     atom   31 type  2   force =    -0.00006821    0.00037065   -0.00000016
     atom   32 type  2   force =     0.00011025    0.00022537   -0.00000021
     atom   33 type  2   force =     0.00010479    0.00015430    0.00000116
     atom   34 type  2   force =     0.00024236    0.00013822   -0.00000012
     atom   35 type  2   force =     0.00018631    0.00000942    0.00000226
     atom   36 type  2   force =     0.00000521   -0.00000605   -0.00000493
     atom   37 type  2   force =    -0.00019828    0.00010922   -0.00002707
     atom   38 type  2   force =     0.00082676   -0.00048003    0.00001098
     atom   39 type  2   force =    -0.01518696   -0.00877750    0.00004879
     atom   40 type  2   force =    -0.00000031    0.00096164   -0.00000348
     atom   41 type  2   force =     0.00000089   -0.00022296   -0.00000187
     atom   42 type  2   force =     0.00000004    0.00000719   -0.00000086
     atom   43 type  2   force =    -0.00010445    0.00015431   -0.00000006
     atom   44 type  2   force =    -0.00024235    0.00013856   -0.00000000
     atom   45 type  2   force =    -0.00000055   -0.00000094   -0.00000118
     atom   46 type  2   force =     0.00000248   -0.00028119   -0.00000064
     atom   47 type  2   force =     0.00008417   -0.00016924    0.00000019
     atom   48 type  2   force =     0.00014130   -0.00020643   -0.00000230
     atom   49 type  2   force =     0.00035075   -0.00012481   -0.00000322
     atom   50 type  2   force =    -0.00002541   -0.00001129   -0.00000082
     atom   51 type  2   force =     0.00006717    0.00036993   -0.00000087
     atom   52 type  2   force =    -0.00011047    0.00022425   -0.00000026
     The Hubbard contrib.    to forces
     atom    1 type  1   force =     0.00000000    0.00000000    0.00000000
     atom    2 type  1   force =     0.00000000    0.00000000    0.00000000
     atom    3 type  2   force =     0.00000000    0.00000000    0.00000000
     atom    4 type  2   force =     0.00000000    0.00000000    0.00000000
     atom    5 type  2   force =     0.00000000    0.00000000    0.00000000
     atom    6 type  2   force =     0.00000000    0.00000000    0.00000000
     atom    7 type  2   force =     0.00000000    0.00000000    0.00000000
     atom    8 type  2   force =     0.00000000    0.00000000    0.00000000
     atom    9 type  2   force =     0.00000000    0.00000000    0.00000000
     atom   10 type  2   force =     0.00000000    0.00000000    0.00000000
     atom   11 type  2   force =     0.00000000    0.00000000    0.00000000
     atom   12 type  2   force =     0.00000000    0.00000000    0.00000000
     atom   13 type  2   force =     0.00000000    0.00000000    0.00000000
     atom   14 type  2   force =     0.00000000    0.00000000    0.00000000
     atom   15 type  2   force =     0.00000000    0.00000000    0.00000000
     atom   16 type  2   force =     0.00000000    0.00000000    0.00000000
     atom   17 type  2   force =     0.00000000    0.00000000    0.00000000
     atom   18 type  2   force =     0.00000000    0.00000000    0.00000000
     atom   19 type  2   force =     0.00000000    0.00000000    0.00000000
     atom   20 type  2   force =     0.00000000    0.00000000    0.00000000
     atom   21 type  2   force =     0.00000000    0.00000000    0.00000000
     atom   22 type  2   force =     0.00000000    0.00000000    0.00000000
     atom   23 type  2   force =     0.00000000    0.00000000    0.00000000
     atom   24 type  2   force =     0.00000000    0.00000000    0.00000000
     atom   25 type  2   force =     0.00000000    0.00000000    0.00000000
     atom   26 type  2   force =     0.00000000    0.00000000    0.00000000
     atom   27 type  2   force =     0.00000000    0.00000000    0.00000000
     atom   28 type  3   force =     0.00000000    0.00000000    0.00000000
     atom   29 type  2   force =     0.00000000    0.00000000    0.00000000
     atom   30 type  2   force =     0.00000000    0.00000000    0.00000000
     atom   31 type  2   force =     0.00000000    0.00000000    0.00000000
     atom   32 type  2   force =     0.00000000    0.00000000    0.00000000
     atom   33 type  2   force =     0.00000000    0.00000000    0.00000000
     atom   34 type  2   force =     0.00000000    0.00000000    0.00000000
     atom   35 type  2   force =     0.00000000    0.00000000    0.00000000
     atom   36 type  2   force =     0.00000000    0.00000000    0.00000000
     atom   37 type  2   force =     0.00000000    0.00000000    0.00000000
     atom   38 type  2   force =     0.00000000    0.00000000    0.00000000
     atom   39 type  2   force =     0.00000000    0.00000000    0.00000000
     atom   40 type  2   force =     0.00000000    0.00000000    0.00000000
     atom   41 type  2   force =     0.00000000    0.00000000    0.00000000
     atom   42 type  2   force =     0.00000000    0.00000000    0.00000000
     atom   43 type  2   force =     0.00000000    0.00000000    0.00000000
     atom   44 type  2   force =     0.00000000    0.00000000    0.00000000
     atom   45 type  2   force =     0.00000000    0.00000000    0.00000000
     atom   46 type  2   force =     0.00000000    0.00000000    0.00000000
     atom   47 type  2   force =     0.00000000    0.00000000    0.00000000
     atom   48 type  2   force =     0.00000000    0.00000000    0.00000000
     atom   49 type  2   force =     0.00000000    0.00000000    0.00000000
     atom   50 type  2   force =     0.00000000    0.00000000    0.00000000
     atom   51 type  2   force =     0.00000000    0.00000000    0.00000000
     atom   52 type  2   force =     0.00000000    0.00000000    0.00000000
     The SCF correction term to forces
     atom    1 type  1   force =    -0.00000006   -0.00000001    0.00000012
     atom    2 type  1   force =    -0.00000000   -0.00000003    0.00000015
     atom    3 type  2   force =     0.00000069    0.00000008   -0.00000002
     atom    4 type  2   force =    -0.00000020   -0.00000047   -0.00000001
     atom    5 type  2   force =    -0.00000162    0.00000016   -0.00000001
     atom    6 type  2   force =    -0.00000146    0.00000042    0.00000001
     atom    7 type  2   force =    -0.00000165   -0.00000020   -0.00000002
     atom    8 type  2   force =    -0.00000115   -0.00000036   -0.00000001
     atom    9 type  2   force =     0.00000083   -0.00000023   -0.00000005
     atom   10 type  2   force =     0.00000073    0.00000004   -0.00000003
     atom   11 type  2   force =     0.00000241    0.00000056   -0.00000005
     atom   12 type  2   force =     0.00000104   -0.00000020   -0.00000003
     atom   13 type  2   force =     0.00000087   -0.00000170   -0.00000004
     atom   14 type  2   force =     0.00000008   -0.00000194   -0.00000006
     atom   15 type  2   force =    -0.00000096   -0.00000125   -0.00000003
     atom   16 type  2   force =    -0.00000161    0.00000067   -0.00000002
     atom   17 type  2   force =    -0.00000112    0.00000038    0.00000003
     atom   18 type  2   force =    -0.00000002   -0.00000062    0.00000005
     atom   19 type  2   force =    -0.00000181   -0.00000062    0.00000003
     atom   20 type  2   force =    -0.00000129    0.00000069    0.00000003
     atom   21 type  2   force =    -0.00000112    0.00000080   -0.00000001
     atom   22 type  2   force =     0.00000031   -0.00000024   -0.00000003
     atom   23 type  2   force =     0.00000028   -0.00000029   -0.00000005
     atom   24 type  2   force =     0.00000135   -0.00000237   -0.00000010
     atom   25 type  2   force =     0.00000107   -0.00000362   -0.00000010
     atom   26 type  2   force =    -0.00000040   -0.00000127   -0.00000013
     atom   27 type  2   force =    -0.00000265    0.00000566   -0.00000007
     atom   28 type  3   force =    -0.00001298    0.00000293   -0.00000035
     atom   29 type  2   force =     0.00000368   -0.00000282    0.00000007
     atom   30 type  2   force =    -0.00000012    0.00000006    0.00000005
     atom   31 type  2   force =    -0.00000080    0.00000188    0.00000003
     atom   32 type  2   force =    -0.00000067    0.00000142   -0.00000001
     atom   33 type  2   force =    -0.00000100    0.00000187   -0.00000003
     atom   34 type  2   force =     0.00000080    0.00000051   -0.00000007
     atom   35 type  2   force =     0.00000224   -0.00000239   -0.00000012
     atom   36 type  2   force =     0.00000332   -0.00000223   -0.00000015
     atom   37 type  2   force =     0.00000195   -0.00000176   -0.00000017
     atom   38 type  2   force =     0.00000081    0.00000009   -0.00000015
     atom   39 type  2   force =    -0.00000660   -0.00000140   -0.00000007
     atom   40 type  2   force =    -0.00000151    0.00000117   -0.00000003
     atom   41 type  2   force =    -0.00000140    0.00000103    0.00000002
     atom   42 type  2   force =    -0.00000133    0.00000157   -0.00000000
     atom   43 type  2   force =    -0.00000084    0.00000194   -0.00000001
     atom   44 type  2   force =    -0.00000198    0.00000144   -0.00000002
     atom   45 type  2   force =    -0.00000078    0.00000055   -0.00000005
     atom   46 type  2   force =     0.00000021   -0.00000103   -0.00000007
     atom   47 type  2   force =     0.00000334   -0.00000113   -0.00000012
     atom   48 type  2   force =     0.00000314   -0.00000031   -0.00000010
     atom   49 type  2   force =     0.00000403    0.00000056   -0.00000011
     atom   50 type  2   force =     0.00000220    0.00000114   -0.00000007
     atom   51 type  2   force =     0.00000090    0.00000196   -0.00000004
     atom   52 type  2   force =     0.00000063    0.00000112   -0.00000002

     Total force =     1.307079     Total SCF correction =     0.000022

     BFGS Geometry Optimization

     number of scf cycles    =   1
     number of bfgs steps    =   0

     energy   new            =    -824.0119073727 Ry

     new trust radius        =       0.5000000000 bohr
     new conv_thr            =            1.0E-10 Ry


ATOMIC_POSITIONS (angstrom)
H        3.321719129   4.981752195   3.000325384
H        4.074512228   4.981457283   3.000651821
C       -0.000104151   0.000055672   0.000001919
C       -0.003177885   1.423104004   0.000001087
C       -1.233123912   2.133513184  -0.000001850
C       -1.230265403   3.559725726   0.000002871
C       -2.466811433   4.270392974  -0.000005542
C       -2.467094957   5.690688284  -0.000002573
C       -3.697955012   6.404934953   0.000006524
C       -3.697942906   7.827153716   0.000000059
C       -4.934373025   8.537857909  -0.000002538
C       -4.931636033   9.963989615   0.000001197
C        2.465301880   0.004336471  -0.000001250
C        2.465300462   1.417170075   0.000000303
C        1.232328146   2.141111094   0.000009059
C        1.215765474   3.547892515  -0.000030893
C       -0.008041442   4.265419880   0.000007072
C       -0.017576530   5.683906262  -0.000016050
C       -1.227503619   6.401700996   0.000003480
C       -1.237996308   7.831461062  -0.000001914
C       -2.461536278   8.537877097  -0.000001189
C       -2.464279258   9.963972928   0.000000199
C        4.930710968   0.000097452   0.000004418
C        4.933746357   1.423075173   0.000002332
C        3.698257765   2.141181115   0.000020086
C        3.714674017   3.547960953  -0.000159649
C        2.465354431   4.005431835  -0.000297706
Mn       2.465432994   5.693485988  -0.000200301
C        1.003733411   6.537228712  -0.000020224
C        1.232043556   7.848288628   0.000004581
C        0.005459785   8.537247332   0.000000836
C        0.001394778   9.966269225  -0.000001984
C        7.394830893   0.001142939  -0.000004621
C        7.397106869   1.424045220   0.000000667
C        6.163729713   2.133561366  -0.000022439
C        6.161000533   3.559632897   0.000000499
C        4.938456759   4.265501346   0.000248206
C        4.947925220   5.683998740  -0.000083014
C        3.926848101   6.537214250  -0.000480934
C        3.698508034   7.848220697   0.000002680
C        2.465322214   8.549308022   0.000017449
C        2.465297451   9.960623554  -0.000000886
C        9.862243885   0.001162725  -0.000002020
C        9.859989471   1.424027766  -0.000000668
C        8.628530054   2.135056584   0.000010887
C        8.628555641   3.556880878   0.000002270
C        7.397367876   4.270330656  -0.000032301
C        7.397702121   5.690745909  -0.000003070
C        6.158086301   6.401709511   0.000035560
C        6.168598214   7.831489331  -0.000003149
C        4.925133402   8.537253776   0.000013063
C        4.929209566   9.966249671   0.000002256



     Writing output data file manganeso-sixhollow-3.0.save/
     NEW-OLD atomic charge density approx. for the potential

     Check: negative core charge=   -0.000002

     negative rho (up, down):  6.341E-04 3.177E-03

     total cpu time spent up to now is     2966.7 secs

     Self-consistent Calculation

     iteration #  1     ecut=    70.00 Ry     beta= 0.70
     Davidson diagonalization with overlap
     ethr =  1.00E-06,  avg # of iterations =  9.5

     negative rho (up, down):  6.197E-04 1.725E-02

     total cpu time spent up to now is     3198.5 secs

     total energy              =    -823.12477637 Ry
     Harris-Foulkes estimate   =    -824.62963244 Ry
     estimated scf accuracy    <       1.77929780 Ry

     total magnetization       =     3.00 Bohr mag/cell
     absolute magnetization    =     4.20 Bohr mag/cell

     iteration #  2     ecut=    70.00 Ry     beta= 0.70
     Davidson diagonalization with overlap
     ethr =  8.35E-04,  avg # of iterations =  4.0

     negative rho (up, down):  6.552E-04 1.620E-02

     total cpu time spent up to now is     3327.1 secs

     total energy              =    -821.48593732 Ry
     Harris-Foulkes estimate   =    -830.51270751 Ry
     estimated scf accuracy    <      45.63845336 Ry

     total magnetization       =     1.00 Bohr mag/cell
     absolute magnetization    =     1.41 Bohr mag/cell

     iteration #  3     ecut=    70.00 Ry     beta= 0.70
     Davidson diagonalization with overlap
     ethr =  8.35E-04,  avg # of iterations =  5.0

     negative rho (up, down):  6.482E-04 1.529E-02

     total cpu time spent up to now is     3432.0 secs

     total energy              =    -824.14320805 Ry
     Harris-Foulkes estimate   =    -824.75503378 Ry
     estimated scf accuracy    <       3.18205927 Ry

     total magnetization       =     1.09 Bohr mag/cell
     absolute magnetization    =     2.24 Bohr mag/cell

     iteration #  4     ecut=    70.00 Ry     beta= 0.70
     Davidson diagonalization with overlap
     ethr =  8.35E-04,  avg # of iterations =  3.0

     negative rho (up, down):  6.451E-04 1.283E-02

     total cpu time spent up to now is     3516.5 secs

     total energy              =    -824.42042345 Ry
     Harris-Foulkes estimate   =    -824.46018307 Ry
     estimated scf accuracy    <       0.10907616 Ry

     total magnetization       =     3.00 Bohr mag/cell
     absolute magnetization    =     4.08 Bohr mag/cell

     iteration #  5     ecut=    70.00 Ry     beta= 0.70
     Davidson diagonalization with overlap
     ethr =  5.12E-05,  avg # of iterations = 10.0

     negative rho (up, down):  6.535E-04 1.067E-02

     total cpu time spent up to now is     3625.8 secs

     total energy              =    -824.44560963 Ry
     Harris-Foulkes estimate   =    -824.44986988 Ry
     estimated scf accuracy    <       0.03026186 Ry

     total magnetization       =     3.03 Bohr mag/cell
     absolute magnetization    =     4.14 Bohr mag/cell

     iteration #  6     ecut=    70.00 Ry     beta= 0.70
     Davidson diagonalization with overlap
     ethr =  1.42E-05,  avg # of iterations =  6.5

     negative rho (up, down):  6.646E-04 8.729E-03

     total cpu time spent up to now is     3721.1 secs

     total energy              =    -824.45181959 Ry
     Harris-Foulkes estimate   =    -824.45131580 Ry
     estimated scf accuracy    <       0.01091138 Ry

     total magnetization       =     3.00 Bohr mag/cell
     absolute magnetization    =     4.17 Bohr mag/cell

     iteration #  7     ecut=    70.00 Ry     beta= 0.70
     Davidson diagonalization with overlap
     ethr =  5.12E-06,  avg # of iterations =  4.5

     negative rho (up, down):  6.786E-04 7.208E-03

     total cpu time spent up to now is     3809.5 secs

     total energy              =    -824.45415551 Ry
     Harris-Foulkes estimate   =    -824.45352787 Ry
     estimated scf accuracy    <       0.00317347 Ry

     total magnetization       =     3.00 Bohr mag/cell
     absolute magnetization    =     4.21 Bohr mag/cell

     iteration #  8     ecut=    70.00 Ry     beta= 0.70
     Davidson diagonalization with overlap
     ethr =  1.49E-06,  avg # of iterations =  3.0

     negative rho (up, down):  6.793E-04 7.185E-03

     total cpu time spent up to now is     3910.3 secs

     total energy              =    -824.45503975 Ry
     Harris-Foulkes estimate   =    -824.45540498 Ry
     estimated scf accuracy    <       0.00115034 Ry

     total magnetization       =     3.00 Bohr mag/cell
     absolute magnetization    =     4.26 Bohr mag/cell

     iteration #  9     ecut=    70.00 Ry     beta= 0.70
     Davidson diagonalization with overlap
     ethr =  5.40E-07,  avg # of iterations =  3.0

     negative rho (up, down):  6.785E-04 7.239E-03

     total cpu time spent up to now is     4007.3 secs

     total energy              =    -824.45523660 Ry
     Harris-Foulkes estimate   =    -824.45536586 Ry
     estimated scf accuracy    <       0.00037194 Ry

     total magnetization       =     3.00 Bohr mag/cell
     absolute magnetization    =     4.26 Bohr mag/cell

     iteration # 10     ecut=    70.00 Ry     beta= 0.70
     Davidson diagonalization with overlap
     ethr =  1.75E-07,  avg # of iterations =  3.0

     negative rho (up, down):  6.783E-04 7.239E-03

     total cpu time spent up to now is     4099.2 secs

     total energy              =    -824.45531592 Ry
     Harris-Foulkes estimate   =    -824.45535975 Ry
     estimated scf accuracy    <       0.00019734 Ry

     total magnetization       =     3.00 Bohr mag/cell
     absolute magnetization    =     4.25 Bohr mag/cell

     iteration # 11     ecut=    70.00 Ry     beta= 0.70
     Davidson diagonalization with overlap
     ethr =  9.26E-08,  avg # of iterations =  2.5

     negative rho (up, down):  6.781E-04 7.248E-03

     total cpu time spent up to now is     4185.2 secs

     total energy              =    -824.45535402 Ry
     Harris-Foulkes estimate   =    -824.45535286 Ry
     estimated scf accuracy    <       0.00001761 Ry

     total magnetization       =     3.00 Bohr mag/cell
     absolute magnetization    =     4.25 Bohr mag/cell

     iteration # 12     ecut=    70.00 Ry     beta= 0.70
     Davidson diagonalization with overlap
     ethr =  8.27E-09,  avg # of iterations =  3.5

     negative rho (up, down):  6.779E-04 7.272E-03

     total cpu time spent up to now is     4289.9 secs

     total energy              =    -824.45536078 Ry
     Harris-Foulkes estimate   =    -824.45536200 Ry
     estimated scf accuracy    <       0.00000827 Ry

     total magnetization       =     3.00 Bohr mag/cell
     absolute magnetization    =     4.24 Bohr mag/cell

     iteration # 13     ecut=    70.00 Ry     beta= 0.70
     Davidson diagonalization with overlap
     ethr =  3.88E-09,  avg # of iterations =  3.0

     negative rho (up, down):  6.779E-04 7.274E-03

     total cpu time spent up to now is     4378.9 secs

     total energy              =    -824.45536276 Ry
     Harris-Foulkes estimate   =    -824.45536323 Ry
     estimated scf accuracy    <       0.00000311 Ry

     total magnetization       =     3.00 Bohr mag/cell
     absolute magnetization    =     4.24 Bohr mag/cell

     iteration # 14     ecut=    70.00 Ry     beta= 0.70
     Davidson diagonalization with overlap
     ethr =  1.46E-09,  avg # of iterations =  2.5

     negative rho (up, down):  6.779E-04 7.278E-03

     total cpu time spent up to now is     4469.7 secs

     total energy              =    -824.45536363 Ry
     Harris-Foulkes estimate   =    -824.45536354 Ry
     estimated scf accuracy    <       0.00000045 Ry

     total magnetization       =     3.00 Bohr mag/cell
     absolute magnetization    =     4.23 Bohr mag/cell

     iteration # 15     ecut=    70.00 Ry     beta= 0.70
     Davidson diagonalization with overlap
     ethr =  2.12E-10,  avg # of iterations =  3.0

     negative rho (up, down):  6.779E-04 7.282E-03

     total cpu time spent up to now is     4574.8 secs

     total energy              =    -824.45536384 Ry
     Harris-Foulkes estimate   =    -824.45536379 Ry
     estimated scf accuracy    <       0.00000013 Ry

     total magnetization       =     3.00 Bohr mag/cell
     absolute magnetization    =     4.23 Bohr mag/cell

     iteration # 16     ecut=    70.00 Ry     beta= 0.70
     Davidson diagonalization with overlap
     ethr =  5.96E-11,  avg # of iterations =  3.0

     negative rho (up, down):  6.779E-04 7.278E-03

     total cpu time spent up to now is     4682.2 secs

     total energy              =    -824.45536393 Ry
     Harris-Foulkes estimate   =    -824.45536391 Ry
     estimated scf accuracy    <       0.00000006 Ry

     total magnetization       =     3.00 Bohr mag/cell
     absolute magnetization    =     4.23 Bohr mag/cell

     iteration # 17     ecut=    70.00 Ry     beta= 0.70
     Davidson diagonalization with overlap
     ethr =  2.65E-11,  avg # of iterations =  3.0

     negative rho (up, down):  6.779E-04 7.276E-03

     total cpu time spent up to now is     4794.2 secs

     total energy              =    -824.45536396 Ry
     Harris-Foulkes estimate   =    -824.45536397 Ry
     estimated scf accuracy    <       0.00000004 Ry

     total magnetization       =     3.00 Bohr mag/cell
     absolute magnetization    =     4.23 Bohr mag/cell

     iteration # 18     ecut=    70.00 Ry     beta= 0.70
     Davidson diagonalization with overlap
     ethr =  1.83E-11,  avg # of iterations =  3.0

     negative rho (up, down):  6.779E-04 7.278E-03

     total cpu time spent up to now is     4884.9 secs

     total energy              =    -824.45536398 Ry
[...]
     atom   32 type  2   force =     0.13192788   -0.32806368    0.93692842
     atom   33 type  2   force =    -0.00989926   -0.32298040    0.62589177
     atom   34 type  2   force =    -0.14924989   -0.01656731    0.61389340
     atom   35 type  2   force =    -0.35471083    0.25961720    0.56996052
     atom   36 type  2   force =    -0.80820110    0.46535259    0.54157480
     atom   37 type  2   force =    -1.47905347    0.85365603    0.74264571
     atom   38 type  2   force =    -2.22816916    0.20259268    1.36881954
     atom   39 type  2   force =    -2.96141645   -2.07115556    2.76510766
     atom   40 type  2   force =    -0.69690000   -2.06247114    1.30797950
     atom   41 type  2   force =     0.05242489   -1.53690938    0.67957550
     atom   42 type  2   force =    -0.00294735   -0.80718237    0.64054464
     atom   43 type  2   force =     0.00595446   -0.34543654    0.65144123
     atom   44 type  2   force =     0.10933161   -0.06130989    0.64507826
     atom   45 type  2   force =    -0.04707391    0.02898539    0.53486062
     atom   46 type  2   force =    -0.05896413    0.13822760    0.61653491
     atom   47 type  2   force =    -0.39878113    0.17779607    0.57691197
     atom   48 type  2   force =    -0.49289364    0.05688375    0.94118628
     atom   49 type  2   force =    -1.03895695   -0.27557823    1.01551500
     atom   50 type  2   force =    -0.61252753   -0.40446222    0.83546320
     atom   51 type  2   force =    -0.62031644   -0.78570334    1.05530520
     atom   52 type  2   force =    -0.12037789   -0.40849068    0.96570092
     The core correction contribution to forces
     atom    1 type  1   force =     0.00000000    0.00000000    0.00000000
     atom    2 type  1   force =     0.00000000    0.00000000    0.00000000
     atom    3 type  2   force =    -0.00022993    0.00013258    0.00036488
     atom    4 type  2   force =     0.00004022   -0.00017332    0.00031706
     atom    5 type  2   force =    -0.00024567   -0.00030067    0.00028242
     atom    6 type  2   force =     0.00038397    0.00028924    0.00014858
     atom    7 type  2   force =    -0.00031478   -0.00000884    0.00029847
     atom    8 type  2   force =    -0.00012232    0.00005007    0.00037008
     atom    9 type  2   force =     0.00001078   -0.00024836    0.00032435
     atom   10 type  2   force =     0.00000299    0.00003820    0.00025065
     atom   11 type  2   force =    -0.00006391   -0.00002544    0.00014594
     atom   12 type  2   force =     0.00004458   -0.00003279    0.00025289
     atom   13 type  2   force =    -0.00000254    0.00007341    0.00013509
     atom   14 type  2   force =    -0.00004055   -0.00042352    0.00027599
     atom   15 type  2   force =    -0.00036816   -0.00014013    0.00009939
     atom   16 type  2   force =     0.00082190   -0.00042846   -0.00047422
     atom   17 type  2   force =    -0.00074530   -0.00033591   -0.00004925
     atom   18 type  2   force =    -0.00004139    0.00089690   -0.00054275
     atom   19 type  2   force =    -0.00020733   -0.00027453    0.00013867
     atom   20 type  2   force =    -0.00033294    0.00018795    0.00020277
     atom   21 type  2   force =     0.00008060   -0.00003618    0.00014939
     atom   22 type  2   force =    -0.00002974   -0.00003000    0.00023406
     atom   23 type  2   force =     0.00021372    0.00011833    0.00029982
     atom   24 type  2   force =    -0.00005750   -0.00020405    0.00034844
     atom   25 type  2   force =     0.00038882   -0.00011943    0.00009353
     atom   26 type  2   force =    -0.00104240   -0.00052676   -0.00047039
     atom   27 type  2   force =    -0.00002024   -0.00008160    0.00111504
     atom   28 type  3   force =    -0.00023005    0.00013190    0.02978708
     atom   29 type  2   force =     0.00065881   -0.00038913    0.00175253
     atom   30 type  2   force =    -0.00081218   -0.00041728   -0.00058351
     atom   31 type  2   force =     0.00013726    0.00031382    0.00013226
     atom   32 type  2   force =    -0.00010366    0.00008744    0.00037561
     atom   33 type  2   force =    -0.00014277    0.00026828    0.00029225
     atom   34 type  2   force =     0.00011869    0.00005185    0.00019637
     atom   35 type  2   force =     0.00023940   -0.00028426    0.00019335
     atom   36 type  2   force =    -0.00026875    0.00013749    0.00007782
     atom   37 type  2   force =     0.00058488   -0.00036472   -0.00060072
     atom   38 type  2   force =    -0.00008326    0.00118328   -0.00049700
     atom   39 type  2   force =     0.00003083    0.00007043    0.00103700
     atom   40 type  2   force =     0.00079062   -0.00052331   -0.00046561
     atom   41 type  2   force =    -0.00007330    0.00078440   -0.00010538
     atom   42 type  2   force =    -0.00006751   -0.00044460    0.00014637
     atom   43 type  2   force =     0.00013944    0.00036306    0.00028370
     atom   44 type  2   force =    -0.00004174    0.00002400    0.00016276
     atom   45 type  2   force =    -0.00004518    0.00003267    0.00018155
     atom   46 type  2   force =     0.00001688   -0.00013276    0.00019172
     atom   47 type  2   force =     0.00037988   -0.00007082    0.00019631
     atom   48 type  2   force =     0.00014967    0.00016093    0.00034471
     atom   49 type  2   force =     0.00030409   -0.00027104    0.00007425
     atom   50 type  2   force =     0.00035127    0.00024902    0.00031239
     atom   51 type  2   force =    -0.00006979    0.00038975    0.00009896
     atom   52 type  2   force =     0.00017480    0.00005470    0.00031584
     The Hubbard contrib.    to forces
     atom    1 type  1   force =     0.00000000    0.00000000    0.00000000
     atom    2 type  1   force =     0.00000000    0.00000000    0.00000000
     atom    3 type  2   force =     0.00000000    0.00000000    0.00000000
     atom    4 type  2   force =     0.00000000    0.00000000    0.00000000
     atom    5 type  2   force =     0.00000000    0.00000000    0.00000000
     atom    6 type  2   force =     0.00000000    0.00000000    0.00000000
     atom    7 type  2   force =     0.00000000    0.00000000    0.00000000
     atom    8 type  2   force =     0.00000000    0.00000000    0.00000000
     atom    9 type  2   force =     0.00000000    0.00000000    0.00000000
     atom   10 type  2   force =     0.00000000    0.00000000    0.00000000
     atom   11 type  2   force =     0.00000000    0.00000000    0.00000000
     atom   12 type  2   force =     0.00000000    0.00000000    0.00000000
     atom   13 type  2   force =     0.00000000    0.00000000    0.00000000
     atom   14 type  2   force =     0.00000000    0.00000000    0.00000000
     atom   15 type  2   force =     0.00000000    0.00000000    0.00000000
     atom   16 type  2   force =     0.00000000    0.00000000    0.00000000
     atom   17 type  2   force =     0.00000000    0.00000000    0.00000000
     atom   18 type  2   force =     0.00000000    0.00000000    0.00000000
     atom   19 type  2   force =     0.00000000    0.00000000    0.00000000
     atom   20 type  2   force =     0.00000000    0.00000000    0.00000000
     atom   21 type  2   force =     0.00000000    0.00000000    0.00000000
     atom   22 type  2   force =     0.00000000    0.00000000    0.00000000
     atom   23 type  2   force =     0.00000000    0.00000000    0.00000000
     atom   24 type  2   force =     0.00000000    0.00000000    0.00000000
     atom   25 type  2   force =     0.00000000    0.00000000    0.00000000
     atom   26 type  2   force =     0.00000000    0.00000000    0.00000000
     atom   27 type  2   force =     0.00000000    0.00000000    0.00000000
     atom   28 type  3   force =     0.00000000    0.00000000    0.00000000
     atom   29 type  2   force =     0.00000000    0.00000000    0.00000000
     atom   30 type  2   force =     0.00000000    0.00000000    0.00000000
     atom   31 type  2   force =     0.00000000    0.00000000    0.00000000
     atom   32 type  2   force =     0.00000000    0.00000000    0.00000000
     atom   33 type  2   force =     0.00000000    0.00000000    0.00000000
     atom   34 type  2   force =     0.00000000    0.00000000    0.00000000
     atom   35 type  2   force =     0.00000000    0.00000000    0.00000000
     atom   36 type  2   force =     0.00000000    0.00000000    0.00000000
     atom   37 type  2   force =     0.00000000    0.00000000    0.00000000
     atom   38 type  2   force =     0.00000000    0.00000000    0.00000000
     atom   39 type  2   force =     0.00000000    0.00000000    0.00000000
     atom   40 type  2   force =     0.00000000    0.00000000    0.00000000
     atom   41 type  2   force =     0.00000000    0.00000000    0.00000000
     atom   42 type  2   force =     0.00000000    0.00000000    0.00000000
     atom   43 type  2   force =     0.00000000    0.00000000    0.00000000
     atom   44 type  2   force =     0.00000000    0.00000000    0.00000000
     atom   45 type  2   force =     0.00000000    0.00000000    0.00000000
     atom   46 type  2   force =     0.00000000    0.00000000    0.00000000
     atom   47 type  2   force =     0.00000000    0.00000000    0.00000000
     atom   48 type  2   force =     0.00000000    0.00000000    0.00000000
     atom   49 type  2   force =     0.00000000    0.00000000    0.00000000
     atom   50 type  2   force =     0.00000000    0.00000000    0.00000000
     atom   51 type  2   force =     0.00000000    0.00000000    0.00000000
     atom   52 type  2   force =     0.00000000    0.00000000    0.00000000
     The SCF correction term to forces
     atom    1 type  1   force =    -0.00000002    0.00000001    0.00000004
     atom    2 type  1   force =    -0.00000000    0.00000001    0.00000003
     atom    3 type  2   force =     0.00000004   -0.00000014   -0.00000019
     atom    4 type  2   force =    -0.00000044    0.00000049   -0.00000016
     atom    5 type  2   force =    -0.00000117    0.00000071   -0.00000013
     atom    6 type  2   force =    -0.00000032    0.00000033   -0.00000010
     atom    7 type  2   force =    -0.00000015   -0.00000069   -0.00000013
     atom    8 type  2   force =     0.00000014   -0.00000026   -0.00000013
     atom    9 type  2   force =     0.00000018    0.00000010   -0.00000015
     atom   10 type  2   force =     0.00000026    0.00000013   -0.00000014
     atom   11 type  2   force =     0.00000079   -0.00000017   -0.00000014
     atom   12 type  2   force =     0.00000062   -0.00000053   -0.00000015
     atom   13 type  2   force =     0.00000032   -0.00000075   -0.00000016
     atom   14 type  2   force =     0.00000012   -0.00000020   -0.00000016
     atom   15 type  2   force =    -0.00000016    0.00000079   -0.00000011
     atom   16 type  2   force =    -0.00000037    0.00000116   -0.00000009
     atom   17 type  2   force =     0.00000006    0.00000067   -0.00000008
     atom   18 type  2   force =     0.00000069   -0.00000001   -0.00000002
     atom   19 type  2   force =     0.00000058   -0.00000042   -0.00000003
     atom   20 type  2   force =     0.00000003   -0.00000021   -0.00000008
     atom   21 type  2   force =    -0.00000036   -0.00000005   -0.00000014
     atom   22 type  2   force =    -0.00000015   -0.00000056   -0.00000015
     atom   23 type  2   force =     0.00000002   -0.00000030   -0.00000017
     atom   24 type  2   force =     0.00000048   -0.00000009   -0.00000018
     atom   25 type  2   force =     0.00000021    0.00000013   -0.00000015
     atom   26 type  2   force =    -0.00000013    0.00000058   -0.00000014
     atom   27 type  2   force =    -0.00000067    0.00000047   -0.00000034
     atom   28 type  3   force =    -0.00000311    0.00000183   -0.00000174
     atom   29 type  2   force =    -0.00000024    0.00000009   -0.00000034
     atom   30 type  2   force =     0.00000039   -0.00000074   -0.00000001
     atom   31 type  2   force =     0.00000063   -0.00000052   -0.00000003
     atom   32 type  2   force =     0.00000043   -0.00000010   -0.00000013
     atom   33 type  2   force =     0.00000072    0.00000048   -0.00000012
     atom   34 type  2   force =     0.00000126    0.00000055   -0.00000015
     atom   35 type  2   force =     0.00000115    0.00000012   -0.00000016
     atom   36 type  2   force =     0.00000069   -0.00000018   -0.00000016
     atom   37 type  2   force =     0.00000018    0.00000013   -0.00000016
     atom   38 type  2   force =    -0.00000037   -0.00000001   -0.00000015
     atom   39 type  2   force =    -0.00000053    0.00000032   -0.00000036
     atom   40 type  2   force =    -0.00000103   -0.00000033   -0.00000008
     atom   41 type  2   force =    -0.00000043   -0.00000042   -0.00000007
     atom   42 type  2   force =    -0.00000022    0.00000014   -0.00000009
     atom   43 type  2   force =    -0.00000111    0.00000060   -0.00000012
     atom   44 type  2   force =    -0.00000141    0.00000079   -0.00000014
     atom   45 type  2   force =    -0.00000003    0.00000012   -0.00000015
     atom   46 type  2   force =     0.00000016   -0.00000113   -0.00000015
     atom   47 type  2   force =     0.00000057   -0.00000077   -0.00000016
     atom   48 type  2   force =     0.00000038   -0.00000026   -0.00000016
     atom   49 type  2   force =     0.00000010   -0.00000027   -0.00000013
     atom   50 type  2   force =     0.00000033   -0.00000017   -0.00000013
     atom   51 type  2   force =    -0.00000061   -0.00000030   -0.00000010
     atom   52 type  2   force =    -0.00000067    0.00000006   -0.00000015

     Total force =     0.020670     Total SCF correction =     0.000007

     number of scf cycles    =  50
     number of bfgs steps    =  47

     energy   old            =    -824.7577397291 Ry
     energy   new            =    -824.7584701493 Ry

     CASE: energy  _new < energy  _old

     new trust radius        =       0.0185885011 bohr
     new conv_thr            =            5.0E-12 Ry


ATOMIC_POSITIONS (angstrom)
H        3.356657052   5.011697910   3.178951034
H        4.023684782   4.959950536   2.800856671
C        0.001403126  -0.000735048  -0.142924707
C       -0.005092571   1.417832396  -0.111207845
C       -1.234953257   2.131619897  -0.099559025
C       -1.234857471   3.558435629  -0.049470487
C       -2.469926507   4.270981390  -0.091902784
C       -2.472112643   5.691923567  -0.100450464
C       -3.697077648   6.407407959  -0.135312033
C       -3.697579741   7.828417306  -0.141782188
C       -4.927266016   8.542382565  -0.137656195
C       -4.930194562   9.963381810  -0.146184877
C        2.464947913  -0.003854956  -0.134808098
C        2.465051329   1.415230387  -0.074988104
C        1.226753439   2.119188235  -0.046538361
C        1.220316360   3.534652009   0.109275193
C       -0.013291988   4.265282425   0.082050918
C       -0.028243998   5.696746018   0.143926127
C       -1.248645023   6.408440320  -0.023108208
C       -1.239723899   7.832606117  -0.056760979
C       -2.467960710   8.541653402  -0.128176269
C       -2.465136105   9.963282387  -0.139154275
C        4.929041910  -0.001689398  -0.131927268
C        4.935665063   1.416291683  -0.095062954
C        3.703525869   2.116848757  -0.032621715
C        3.708726872   3.530590198   0.126185187
C        2.463215423   4.163860727   0.313287391
Mn       2.487940712   5.678603117   1.360994306
C        1.140579181   6.457657331   0.380080813
C        1.215389640   7.851257156   0.147696163
C       -0.010984789   8.552434334  -0.020248327
C       -0.002290728   9.970177335  -0.097219755
C        7.392847104   0.003669705  -0.089427796
C        7.396360784   1.423832461  -0.106403152
C        6.165320451   2.131095349  -0.079804274
C        6.166330979   3.556586131  -0.027364461
C        4.942160858   4.263210975   0.100677040
C        4.960159704   5.698244254   0.124298159
C        3.788776212   6.459667847   0.312660960
C        3.712700773   7.850692917   0.109980123
C        2.462816663   8.553950426   0.085385454
C        2.464195454   9.965158991  -0.047360299
C        9.862959513   0.003710037  -0.099184263
C        9.861103299   1.423411237  -0.117045782
C        8.627569666   2.135487176  -0.109926465
C        8.628393021   3.557853459  -0.107700644
C        7.400276098   4.270205752  -0.081407595
C        7.404666892   5.692532973  -0.098210911
C        6.181929018   6.409528484  -0.036080450
C        6.170199099   7.832818528  -0.078751362
C        4.941477442   8.553093972  -0.048532446
C        4.932955505   9.970591974  -0.112040720



     Writing output data file manganeso-sixhollow-3.0.save/
     NEW-OLD atomic charge density approx. for the potential

     Check: negative core charge=   -0.000002

     negative rho (up, down):  6.289E-04 6.447E-03

     Writing output data file manganeso-sixhollow-3.0.save/

     init_run     :     70.69s CPU     75.11s WALL (       1 calls)
     electrons    :  88653.76s CPU 305607.35s WALL (      50 calls)
     update_pot   :    906.75s CPU    910.18s WALL (      50 calls)
     forces       :   2639.96s CPU   2688.79s WALL (      50 calls)

     Called by init_run:
     wfcinit      :     44.64s CPU     44.85s WALL (       1 calls)
     wfcinit:atom :      0.08s CPU      0.09s WALL (       2 calls)
     wfcinit:wfcr :     44.15s CPU     44.31s WALL (       2 calls)
     potinit      :      6.26s CPU      6.93s WALL (       1 calls)
     hinit0       :      6.91s CPU      7.20s WALL (       1 calls)

     Called by electrons:
     c_bands      :  61395.18s CPU 277283.30s WALL (     891 calls)
     sum_band     :  18581.11s CPU  19125.11s WALL (     891 calls)
     v_of_rho     :   1773.48s CPU   1819.08s WALL (     933 calls)
     v_h          :     69.20s CPU     71.35s WALL (     933 calls)
     v_xc         :   1795.15s CPU   1842.94s WALL (     983 calls)
     newd         :   6811.19s CPU   7304.47s WALL (     933 calls)
     mix_rho      :    358.55s CPU    366.08s WALL (     891 calls)

     Called by c_bands:
     init_us_2    :    161.94s CPU    162.29s WALL (    3666 calls)
     cegterg      :  60942.37s CPU 276828.11s WALL (    1782 calls)

     Called by sum_band:
     sum_band:bec :      1.47s CPU      1.48s WALL (    1782 calls)
     addusdens    :  11835.78s CPU  12331.54s WALL (     891 calls)

     Called by *egterg:
     h_psi        :  29631.64s CPU 245402.58s WALL (    7173 calls)
     s_psi        :   9690.38s CPU   9695.83s WALL (    7173 calls)
     g_psi        :     36.95s CPU     37.08s WALL (    5389 calls)
     cdiaghg      :    557.48s CPU    557.78s WALL (    7055 calls)
     cegterg:over :   8799.61s CPU   8803.87s WALL (    5389 calls)
     cegterg:upda :   5508.66s CPU   5541.00s WALL (    5389 calls)
     cegterg:last :   3742.60s CPU   3743.96s WALL (    1846 calls)

     Called by h_psi:
     h_psi:pot    :  29593.07s CPU 245321.39s WALL (    7173 calls)
     h_psi:calbec :   9738.31s CPU 225267.95s WALL (    7173 calls)
     vloc_psi     :  10177.00s CPU  10372.33s WALL (    7173 calls)
     add_vuspsi   :   9677.64s CPU   9681.07s WALL (    7173 calls)

     General routines
     calbec       :  14570.17s CPU 230102.27s WALL (    9355 calls)
     fft          :   1506.61s CPU   1552.83s WALL (   24041 calls)
     ffts         :     64.48s CPU     66.82s WALL (    3648 calls)
     fftw         :  10558.25s CPU  10772.82s WALL ( 1373416 calls)
     interpolate  :    159.49s CPU    164.13s WALL (    1866 calls)
     davcio       :      0.01s CPU      0.05s WALL (       2 calls)

     Parallel routines
     fft_scatt_xy :   2142.61s CPU   2185.40s WALL ( 1401105 calls)
     fft_scatt_yz :   4138.49s CPU   4299.12s WALL ( 1401105 calls)

     PWSCF        :   1d 1h44m CPU   3d14h 1m WALL


   This run was terminated on:   2:15:11   1Mar2023            

=------------------------------------------------------------------------------=
   JOB DONE.
=------------------------------------------------------------------------------=
