
     Program PWSCF v.6.4.1 starts on 18Jul2022 at 18:51:31 

     This program is part of the open-source Quantum ESPRESSO suite
     for quantum simulation of materials; please cite
         "P. Giannozzi et al., J. Phys.:Condens. Matter 21 395502 (2009);
         "P. Giannozzi et al., J. Phys.:Condens. Matter 29 465901 (2017);
          URL http://www.quantum-espresso.org", 
     in publications or presentations arising from this work. More details at
     http://www.quantum-espresso.org/quote

     Parallel version (MPI), running on     6 processors

     MPI processes distributed on     1 nodes
     R & G space division:  proc/nbgrp/npool/nimage =       6
     Reading input from rotate-45.in

     Current dimensions of program PWSCF are:
     Max number of different atomic species (ntypx) = 10
     Max number of k-points (npk) =  40000
     Max angular momentum in pseudopotentials (lmaxx) =  3

     IMPORTANT: XC functional enforced from input :
     Exchange-correlation      = RVV10 ( 1  4 13  4 3 0)
     Any further DFT definition will be discarded
     Please, verify this is what you really want

               file H.pbe-rrkjus.UPF: wavefunction(s)  1S renormalized

     Subspace diagonalization in iterative solution of the eigenvalue problem:
     a serial algorithm will be used


     Parallelization info
     --------------------
     sticks:   dense  smooth     PW     G-vecs:    dense   smooth      PW
     Min        3052    1746    434               406522   175650   21946
     Max        3053    1747    436               406527   175655   21948
     Sum       18313   10477   2611              2439139  1053907  131685



     bravais-lattice index     =            4
     lattice parameter (alat)  =      23.2937  a.u.
     unit-cell volume          =   13319.7822 (a.u.)^3
     number of atoms/cell      =           52
     number of atomic types    =            2
     number of electrons       =       202.00
     number of Kohn-Sham states=          121
     kinetic-energy cutoff     =      70.0000  Ry
     charge density cutoff     =     490.0000  Ry
     convergence threshold     =      1.0E-06
     mixing beta               =       0.7000
     number of iterations used =            8  plain     mixing
     Exchange-correlation      = RVV10 ( 1  4 13  4 3 0)

     celldm(1)=  23.293684  celldm(2)=   0.000000  celldm(3)=   1.216892
     celldm(4)=   0.000000  celldm(5)=   0.000000  celldm(6)=   0.000000

     crystal axes: (cart. coord. in units of alat)
               a(1) = (   1.000000   0.000000   0.000000 )  
               a(2) = (  -0.500000   0.866025   0.000000 )  
               a(3) = (   0.000000   0.000000   1.216892 )  

     reciprocal axes: (cart. coord. in units 2 pi/alat)
               b(1) = (  1.000000  0.577350 -0.000000 )  
               b(2) = (  0.000000  1.154701  0.000000 )  
               b(3) = (  0.000000 -0.000000  0.821766 )  


     PseudoPot. # 1 for H  read from file:
     /home/cristian/Escritorio/Proyecto_Grafeno/pseudopotenciales/H.pbe-rrkjus.UPF
     MD5 check sum: 7cc9d459525c9a0585f487a71c3c9563
     Pseudo is Ultrasoft, Zval =  1.0
     Generated by new atomic code, or converted to UPF format
     Using radial grid of 1061 points,  2 beta functions with: 
                l(1) =   0
                l(2) =   0
     Q(r) pseudized with 0 coefficients 


     PseudoPot. # 2 for C  read from file:
     /home/cristian/Escritorio/Proyecto_Grafeno/pseudopotenciales/C.pbe-n-rrkjus_psl.1.0.0.UPF
     MD5 check sum: 1fdd950c42eb37d8afe3dd2f8d12311e
     Pseudo is Ultrasoft + core correction, Zval =  4.0
     Generated using "atomic" code by A. Dal Corso v.6.3MaX
     Using radial grid of 1073 points,  4 beta functions with: 
                l(1) =   0
                l(2) =   0
                l(3) =   1
                l(4) =   1
     Q(r) pseudized with 0 coefficients 


     vdW kernel table read from file rVV10_kernel_table
     MD5 check sum: b8e2538accc0c0b3206b45ba4daaba6c

     atomic species   valence    mass     pseudopotential
        H              1.00     1.00794     H ( 1.00)
        C              4.00    12.01070     C ( 1.00)

     No symmetry found


                                    s                        frac. trans.

      isym =  1     identity                                     

 cryst.   s( 1) = (     1          0          0      )
                  (     0          1          0      )
                  (     0          0          1      )

 cart.    s( 1) = (  1.0000000  0.0000000  0.0000000 )
                  (  0.0000000  1.0000000  0.0000000 )
                  (  0.0000000  0.0000000  1.0000000 )


     point group C_1 (1)    
     there are  1 classes
     the character table:

       E    
A      1.00

     the symmetry operations in each class and the name of the first element:

     E        1
          identity                                               

   Cartesian axes

     site n.     atom                  positions (alat units)
         1           H   tau(   1) = (   0.2882379   0.4834514   0.2499271  )
         2           H   tau(   2) = (   0.2450954   0.4403090   0.2499271  )
         3           C   tau(   3) = (   0.0000000   0.0000000   0.0000000  )
         4           C   tau(   4) = (   0.0000000   0.1154701   0.0000000  )
         5           C   tau(   5) = (  -0.1000000   0.1732051   0.0000000  )
         6           C   tau(   6) = (  -0.1000000   0.2886751   0.0000000  )
         7           C   tau(   7) = (  -0.2000000   0.3464102   0.0000000  )
         8           C   tau(   8) = (  -0.2000000   0.4618802   0.0000000  )
         9           C   tau(   9) = (  -0.3000000   0.5196152   0.0000000  )
        10           C   tau(  10) = (  -0.3000000   0.6350853   0.0000000  )
        11           C   tau(  11) = (  -0.4000000   0.6928203   0.0000000  )
        12           C   tau(  12) = (  -0.4000000   0.8082904   0.0000000  )
        13           C   tau(  13) = (   0.2000000   0.0000000   0.0000000  )
        14           C   tau(  14) = (   0.2000000   0.1154701   0.0000000  )
        15           C   tau(  15) = (   0.1000000   0.1732051   0.0000000  )
        16           C   tau(  16) = (   0.1000000   0.2886751   0.0000000  )
        17           C   tau(  17) = (   0.0000000   0.3464102   0.0000000  )
        18           C   tau(  18) = (   0.0000000   0.4618802   0.0000000  )
        19           C   tau(  19) = (  -0.1000000   0.5196152   0.0000000  )
        20           C   tau(  20) = (  -0.1000000   0.6350853   0.0000000  )
        21           C   tau(  21) = (  -0.2000000   0.6928203   0.0000000  )
        22           C   tau(  22) = (  -0.2000000   0.8082904   0.0000000  )
        23           C   tau(  23) = (   0.4000000   0.0000000   0.0000000  )
        24           C   tau(  24) = (   0.4000000   0.1154701   0.0000000  )
        25           C   tau(  25) = (   0.3000000   0.1732051   0.0000000  )
        26           C   tau(  26) = (   0.3000000   0.2886751   0.0000000  )
        27           C   tau(  27) = (   0.2000000   0.3464102   0.0000000  )
        28           C   tau(  28) = (   0.2000000   0.4618802   0.0000000  )
        29           C   tau(  29) = (   0.1000000   0.5196152   0.0000000  )
        30           C   tau(  30) = (   0.1000000   0.6350853   0.0000000  )
        31           C   tau(  31) = (   0.0000000   0.6928203   0.0000000  )
        32           C   tau(  32) = (   0.0000000   0.8082904   0.0000000  )
        33           C   tau(  33) = (   0.6000000   0.0000000   0.0000000  )
        34           C   tau(  34) = (   0.6000000   0.1154701   0.0000000  )
        35           C   tau(  35) = (   0.5000000   0.1732051   0.0000000  )
        36           C   tau(  36) = (   0.5000000   0.2886751   0.0000000  )
        37           C   tau(  37) = (   0.4000000   0.3464102   0.0000000  )
        38           C   tau(  38) = (   0.4000000   0.4618802   0.0000000  )
        39           C   tau(  39) = (   0.3000000   0.5196152   0.0000000  )
        40           C   tau(  40) = (   0.3000000   0.6350853   0.0000000  )
        41           C   tau(  41) = (   0.2000000   0.6928203   0.0000000  )
        42           C   tau(  42) = (   0.2000000   0.8082904   0.0000000  )
        43           C   tau(  43) = (   0.8000000   0.0000000   0.0000000  )
        44           C   tau(  44) = (   0.8000000   0.1154701   0.0000000  )
        45           C   tau(  45) = (   0.7000000   0.1732051   0.0000000  )
        46           C   tau(  46) = (   0.7000000   0.2886751   0.0000000  )
        47           C   tau(  47) = (   0.6000000   0.3464102   0.0000000  )
        48           C   tau(  48) = (   0.6000000   0.4618802   0.0000000  )
        49           C   tau(  49) = (   0.5000000   0.5196152   0.0000000  )
        50           C   tau(  50) = (   0.5000000   0.6350853   0.0000000  )
        51           C   tau(  51) = (   0.4000000   0.6928203   0.0000000  )
        52           C   tau(  52) = (   0.4000000   0.8082904   0.0000000  )

   Crystallographic axes

     site n.     atom                  positions (cryst. coord.)
         1           H   tau(   1) = (  0.5673587  0.5582416  0.2053816  )
         2           H   tau(   2) = (  0.4993080  0.5084250  0.2053816  )
         3           C   tau(   3) = (  0.0000000  0.0000000  0.0000000  )
         4           C   tau(   4) = (  0.0666667  0.1333333  0.0000000  )
         5           C   tau(   5) = (  0.0000000  0.2000000  0.0000000  )
         6           C   tau(   6) = (  0.0666667  0.3333333  0.0000000  )
         7           C   tau(   7) = (  0.0000000  0.4000000  0.0000000  )
         8           C   tau(   8) = (  0.0666667  0.5333333  0.0000000  )
         9           C   tau(   9) = (  0.0000000  0.6000000  0.0000000  )
        10           C   tau(  10) = (  0.0666667  0.7333333  0.0000000  )
        11           C   tau(  11) = (  0.0000000  0.8000000  0.0000000  )
        12           C   tau(  12) = (  0.0666667  0.9333333  0.0000000  )
        13           C   tau(  13) = (  0.2000000  0.0000000  0.0000000  )
        14           C   tau(  14) = (  0.2666667  0.1333333  0.0000000  )
        15           C   tau(  15) = (  0.2000000  0.2000000  0.0000000  )
        16           C   tau(  16) = (  0.2666667  0.3333333  0.0000000  )
        17           C   tau(  17) = (  0.2000000  0.4000000  0.0000000  )
        18           C   tau(  18) = (  0.2666667  0.5333333  0.0000000  )
        19           C   tau(  19) = (  0.2000000  0.6000000  0.0000000  )
        20           C   tau(  20) = (  0.2666667  0.7333333  0.0000000  )
        21           C   tau(  21) = (  0.2000000  0.8000000  0.0000000  )
        22           C   tau(  22) = (  0.2666667  0.9333333  0.0000000  )
        23           C   tau(  23) = (  0.4000000  0.0000000  0.0000000  )
        24           C   tau(  24) = (  0.4666667  0.1333333  0.0000000  )
        25           C   tau(  25) = (  0.4000000  0.2000000  0.0000000  )
        26           C   tau(  26) = (  0.4666667  0.3333333  0.0000000  )
        27           C   tau(  27) = (  0.4000000  0.4000000  0.0000000  )
        28           C   tau(  28) = (  0.4666667  0.5333333  0.0000000  )
        29           C   tau(  29) = (  0.4000000  0.6000000  0.0000000  )
        30           C   tau(  30) = (  0.4666667  0.7333333  0.0000000  )
        31           C   tau(  31) = (  0.4000000  0.8000000  0.0000000  )
        32           C   tau(  32) = (  0.4666667  0.9333333  0.0000000  )
        33           C   tau(  33) = (  0.6000000  0.0000000  0.0000000  )
        34           C   tau(  34) = (  0.6666667  0.1333333  0.0000000  )
        35           C   tau(  35) = (  0.6000000  0.2000000  0.0000000  )
        36           C   tau(  36) = (  0.6666667  0.3333333  0.0000000  )
        37           C   tau(  37) = (  0.6000000  0.4000000  0.0000000  )
        38           C   tau(  38) = (  0.6666667  0.5333333  0.0000000  )
        39           C   tau(  39) = (  0.6000000  0.6000000  0.0000000  )
        40           C   tau(  40) = (  0.6666667  0.7333333  0.0000000  )
        41           C   tau(  41) = (  0.6000000  0.8000000  0.0000000  )
        42           C   tau(  42) = (  0.6666667  0.9333333  0.0000000  )
        43           C   tau(  43) = (  0.8000000  0.0000000  0.0000000  )
        44           C   tau(  44) = (  0.8666667  0.1333333  0.0000000  )
        45           C   tau(  45) = (  0.8000000  0.2000000  0.0000000  )
        46           C   tau(  46) = (  0.8666667  0.3333333  0.0000000  )
        47           C   tau(  47) = (  0.8000000  0.4000000  0.0000000  )
        48           C   tau(  48) = (  0.8666667  0.5333333  0.0000000  )
        49           C   tau(  49) = (  0.8000000  0.6000000  0.0000000  )
        50           C   tau(  50) = (  0.8666667  0.7333333  0.0000000  )
        51           C   tau(  51) = (  0.8000000  0.8000000  0.0000000  )
        52           C   tau(  52) = (  0.8666667  0.9333333  0.0000000  )

     number of k points=     1  Marzari-Vanderbilt smearing, width (Ry)=  0.0010
                       cart. coord. in units 2pi/alat
        k(    1) = (   0.0000000   0.0000000   0.0000000), wk =   2.0000000

                       cryst. coord.
        k(    1) = (   0.0000000   0.0000000   0.0000000), wk =   2.0000000

     Dense  grid:  2439139 G-vectors     FFT dimensions: ( 180, 180, 200)

     Smooth grid:  1053907 G-vectors     FFT dimensions: ( 125, 125, 160)

     Dynamical RAM for                 wfc:      40.54 MB

     Dynamical RAM for     wfc (w. buffer):      40.54 MB

     Dynamical RAM for           str. fact:      12.41 MB

     Dynamical RAM for           local pot:       0.00 MB

     Dynamical RAM for          nlocal pot:     135.34 MB

     Dynamical RAM for                qrad:       3.76 MB

     Dynamical RAM for          rho,v,vnew:      43.82 MB

     Dynamical RAM for               rhoin:      14.61 MB

     Dynamical RAM for            rho*nmix:      99.25 MB

     Dynamical RAM for           G-vectors:      24.60 MB

     Dynamical RAM for          h,s,v(r/c):      10.72 MB

     Dynamical RAM for          <psi|beta>:       0.75 MB

     Dynamical RAM for                 psi:     162.14 MB

     Dynamical RAM for                hpsi:     162.14 MB

     Dynamical RAM for                spsi:     162.14 MB

     Dynamical RAM for      wfcinit/wfcrot:     136.28 MB

     Dynamical RAM for           addusdens:     576.89 MB

     Estimated static dynamical RAM per process >     434.96 MB

     Estimated max dynamical RAM per process >    1011.85 MB

     Estimated total dynamical RAM >       5.93 GB

     Check: negative core charge=   -0.000001

     Initial potential from superposition of free atoms

     starting charge  201.80551, renormalised to  202.00000

     negative rho (up, down):  1.037E-03 0.000E+00


---------------------------------------------------------------------------------
Carrying out rVV10 run using the following parameters:
Nqs =      20    Nr_points =    1024   r_max =   100.000
b_value =  6.30000    beta =  0.00901
     q_mesh =  0.00010000  0.00030000  0.00058939  0.00100810
               0.00161396  0.00249058  0.00375900  0.00559430
               0.00824984  0.01209221  0.01765183  0.02569619
               0.03733578  0.05417739  0.07854596  0.11380545
               0.16482331  0.23864234  0.34545298  0.50000000

Gradients computed in Reciprocal space

---------------------------------------------------------------------------------


     Starting wfcs are  202 randomized atomic wfcs

     total cpu time spent up to now is       65.3 secs

     Self-consistent Calculation

     iteration #  1     ecut=    70.00 Ry     beta= 0.70
     Davidson diagonalization with overlap
     ethr =  1.00E-02,  avg # of iterations =  2.0

     negative rho (up, down):  1.115E-03 0.000E+00

     total cpu time spent up to now is      166.8 secs

     total energy              =    -624.68033410 Ry
     Harris-Foulkes estimate   =    -628.22359953 Ry
     estimated scf accuracy    <       5.88892753 Ry

     iteration #  2     ecut=    70.00 Ry     beta= 0.70
     Davidson diagonalization with overlap
     ethr =  2.92E-03,  avg # of iterations =  5.0

     negative rho (up, down):  1.310E-03 0.000E+00

     total cpu time spent up to now is      260.2 secs

     total energy              =    -625.43925585 Ry
     Harris-Foulkes estimate   =    -625.67949719 Ry
     estimated scf accuracy    <       0.36234323 Ry

     iteration #  3     ecut=    70.00 Ry     beta= 0.70
     Davidson diagonalization with overlap
     ethr =  1.79E-04,  avg # of iterations = 17.0

     negative rho (up, down):  1.360E-03 0.000E+00

     total cpu time spent up to now is      370.7 secs

     total energy              =    -625.39075584 Ry
     Harris-Foulkes estimate   =    -625.82314100 Ry
     estimated scf accuracy    <       1.13531893 Ry

     iteration #  4     ecut=    70.00 Ry     beta= 0.70
     Davidson diagonalization with overlap
     ethr =  1.79E-04,  avg # of iterations =  4.0

     negative rho (up, down):  1.481E-03 0.000E+00

     total cpu time spent up to now is      463.2 secs

     total energy              =    -625.60312617 Ry
     Harris-Foulkes estimate   =    -625.61269641 Ry
     estimated scf accuracy    <       0.02601763 Ry

     iteration #  5     ecut=    70.00 Ry     beta= 0.70
     Davidson diagonalization with overlap
     ethr =  1.29E-05,  avg # of iterations = 10.0

     negative rho (up, down):  1.656E-03 0.000E+00

     total cpu time spent up to now is      556.3 secs

     total energy              =    -625.60736076 Ry
     Harris-Foulkes estimate   =    -625.61071537 Ry
     estimated scf accuracy    <       0.00696755 Ry

     iteration #  6     ecut=    70.00 Ry     beta= 0.70
     Davidson diagonalization with overlap
     ethr =  3.45E-06,  avg # of iterations =  5.0

     negative rho (up, down):  1.815E-03 0.000E+00

     total cpu time spent up to now is      648.8 secs

     total energy              =    -625.60884049 Ry
     Harris-Foulkes estimate   =    -625.60896739 Ry
     estimated scf accuracy    <       0.00020940 Ry

     iteration #  7     ecut=    70.00 Ry     beta= 0.70
     Davidson diagonalization with overlap
     ethr =  1.04E-07,  avg # of iterations =  4.0

     negative rho (up, down):  1.879E-03 0.000E+00

     total cpu time spent up to now is      737.9 secs

     total energy              =    -625.60889152 Ry
     Harris-Foulkes estimate   =    -625.60892174 Ry
     estimated scf accuracy    <       0.00004416 Ry

     iteration #  8     ecut=    70.00 Ry     beta= 0.70
     Davidson diagonalization with overlap
     ethr =  2.19E-08,  avg # of iterations =  2.0

     negative rho (up, down):  1.885E-03 0.000E+00

     total cpu time spent up to now is      824.9 secs

     total energy              =    -625.60890050 Ry
     Harris-Foulkes estimate   =    -625.60890516 Ry
     estimated scf accuracy    <       0.00000818 Ry

     iteration #  9     ecut=    70.00 Ry     beta= 0.70
     Davidson diagonalization with overlap
     ethr =  4.05E-09,  avg # of iterations =  2.0

     negative rho (up, down):  1.888E-03 0.000E+00

     total cpu time spent up to now is      907.0 secs

     total energy              =    -625.60890206 Ry
     Harris-Foulkes estimate   =    -625.60890327 Ry
     estimated scf accuracy    <       0.00000224 Ry

     iteration # 10     ecut=    70.00 Ry     beta= 0.70
     Davidson diagonalization with overlap
     ethr =  1.11E-09,  avg # of iterations =  2.0

     negative rho (up, down):  1.889E-03 0.000E+00

     total cpu time spent up to now is      983.9 secs

     End of self-consistent calculation

          k = 0.0000 0.0000 0.0000 (131685 PWs)   bands (ev):

   -21.1726 -20.2368 -20.2366 -20.2364 -20.2362 -20.2352 -20.2337 -18.4008
   -18.4008 -18.4004 -18.4002 -18.3997 -18.3990 -17.5079 -17.5079 -17.5077
   -17.5074 -17.5070 -17.5065 -15.3629 -15.3626 -15.3624 -15.3622 -15.3619
   -15.3610 -14.3551 -14.3548 -14.3548 -14.3543 -14.3542 -14.3539 -13.0138
   -13.0137 -13.0136 -13.0134 -13.0133 -13.0131 -10.6527 -10.6527 -10.6522
   -10.6522 -10.6520 -10.6518 -10.5310 -10.5307 -10.5306 -10.5305 -10.5300
   -10.5297  -9.3167  -9.1579  -9.1578  -9.1577  -9.1576  -9.1572  -9.1570
    -8.3186  -8.1923  -8.1907  -8.1904  -8.1902  -8.1893  -7.9102  -7.9100
    -7.9097  -7.9092  -7.9088  -7.9087  -7.8580  -7.8577  -7.8575  -7.8573
    -7.8569  -7.8568  -7.8120  -6.2629  -6.2628  -6.2625  -6.2623  -6.2618
    -6.2615  -6.0604  -6.0593  -6.0589  -6.0584  -6.0583  -6.0440  -5.1619
    -5.1609  -5.1606  -5.1605  -5.1599  -5.1533  -4.7904  -4.7904  -3.1760
    -3.1750  -3.1746  -3.1745  -3.1743  -3.1722  -0.3810  -0.3800  -0.3799
    -0.3793  -0.3792  -0.3790   1.3558   1.4728   1.4743   1.4765   1.4766
     1.4771   1.4772   2.2384   2.2564   2.4870   2.5935   2.5974   2.6526
     2.8156

     occupation numbers 
     1.0000   1.0000   1.0000   1.0000   1.0000   1.0000   1.0000   1.0000
     1.0000   1.0000   1.0000   1.0000   1.0000   1.0000   1.0000   1.0000
     1.0000   1.0000   1.0000   1.0000   1.0000   1.0000   1.0000   1.0000
     1.0000   1.0000   1.0000   1.0000   1.0000   1.0000   1.0000   1.0000
     1.0000   1.0000   1.0000   1.0000   1.0000   1.0000   1.0000   1.0000
     1.0000   1.0000   1.0000   1.0000   1.0000   1.0000   1.0000   1.0000
     1.0000   1.0000   1.0000   1.0000   1.0000   1.0000   1.0000   1.0000
     1.0000   1.0000   1.0000   1.0000   1.0000   1.0000   1.0000   1.0000
     1.0000   1.0000   1.0000   1.0000   1.0000   1.0000   1.0000   1.0000
     1.0000   1.0000   1.0000   1.0000   1.0000   1.0000   1.0000   1.0000
     1.0000   1.0000   1.0000   1.0000   1.0000   1.0000   1.0000   1.0000
     1.0000   1.0000   1.0000   1.0000   1.0000   1.0000   1.0000   1.0000
     1.0000   1.0000   1.0000   1.0000   1.0000   0.0000   0.0000   0.0000
     0.0000   0.0000   0.0000   0.0000   0.0000   0.0000   0.0000   0.0000
     0.0000   0.0000   0.0000   0.0000   0.0000   0.0000   0.0000   0.0000
     0.0000

     the Fermi energy is    -1.6652 ev

!    total energy              =    -625.60890232 Ry
     Harris-Foulkes estimate   =    -625.60890253 Ry
     estimated scf accuracy    <       0.00000008 Ry

     The total energy is the sum of the following terms:

     one-electron contribution =   -3935.58550418 Ry
     hartree contribution      =    2004.88226465 Ry
     xc contribution           =    -235.33873975 Ry
     ewald contribution        =    1540.43307696 Ry
     smearing contrib. (-TS)   =       0.00000000 Ry

     convergence has been achieved in  10 iterations

     Writing output data file rotate-45.save/

     init_run     :     63.57s CPU     64.82s WALL (       1 calls)
     electrons    :    903.31s CPU    918.76s WALL (       1 calls)

     Called by init_run:
     wfcinit      :     34.46s CPU     34.73s WALL (       1 calls)
     wfcinit:atom :      0.05s CPU      0.08s WALL (       1 calls)
     wfcinit:wfcr :     34.14s CPU     34.34s WALL (       1 calls)
     potinit      :     15.07s CPU     15.65s WALL (       1 calls)
     hinit0       :      7.16s CPU      7.19s WALL (       1 calls)

     Called by electrons:
     c_bands      :    600.80s CPU    604.44s WALL (      10 calls)
     sum_band     :    145.77s CPU    149.21s WALL (      10 calls)
     v_of_rho     :    109.17s CPU    115.03s WALL (      11 calls)
     v_h          :      1.27s CPU      1.32s WALL (      11 calls)
     v_xc         :    107.90s CPU    113.71s WALL (      11 calls)
     newd         :     58.71s CPU     61.89s WALL (      11 calls)
     mix_rho      :      2.85s CPU      2.93s WALL (      10 calls)

     Called by c_bands:
     init_us_2    :      1.49s CPU      1.52s WALL (      21 calls)
     cegterg      :    597.81s CPU    601.43s WALL (      10 calls)

     Called by sum_band:
     sum_band:bec :      0.01s CPU      0.01s WALL (      10 calls)
     addusdens    :     81.60s CPU     84.54s WALL (      10 calls)

     Called by *egterg:
     h_psi        :    326.43s CPU    328.95s WALL (      64 calls)
     s_psi        :    102.55s CPU    102.65s WALL (      64 calls)
     g_psi        :      0.36s CPU      0.36s WALL (      53 calls)
     cdiaghg      :      6.20s CPU      6.21s WALL (      63 calls)
     cegterg:over :     82.35s CPU     82.44s WALL (      53 calls)
     cegterg:upda :     54.11s CPU     54.45s WALL (      53 calls)
     cegterg:last :     28.44s CPU     28.46s WALL (      10 calls)

     Called by h_psi:
     h_psi:pot    :    326.02s CPU    328.14s WALL (      64 calls)
     h_psi:calbec :    102.77s CPU    102.83s WALL (      64 calls)
     vloc_psi     :    121.19s CPU    123.18s WALL (      64 calls)
     add_vuspsi   :    102.06s CPU    102.13s WALL (      64 calls)

     General routines
     calbec       :    138.78s CPU    138.86s WALL (      74 calls)
     fft          :     62.60s CPU     64.80s WALL (     691 calls)
     ffts         :      0.70s CPU      0.73s WALL (      21 calls)
     fftw         :    121.83s CPU    123.95s WALL (    8196 calls)
     interpolate  :      1.58s CPU      1.61s WALL (      11 calls)

     Parallel routines
     fft_scatt_xy :     38.54s CPU     38.74s WALL (    8908 calls)
     fft_scatt_yz :     53.28s CPU     56.76s WALL (    8908 calls)

     PWSCF        :  16m 7.54s CPU  16m24.56s WALL


   This run was terminated on:  19: 7:55  18Jul2022            

=------------------------------------------------------------------------------=
   JOB DONE.
=------------------------------------------------------------------------------=
