
     Program PWSCF v.6.4.1 starts on  5Sep2022 at  2:51: 5 

     This program is part of the open-source Quantum ESPRESSO suite
     for quantum simulation of materials; please cite
         "P. Giannozzi et al., J. Phys.:Condens. Matter 21 395502 (2009);
         "P. Giannozzi et al., J. Phys.:Condens. Matter 29 465901 (2017);
          URL http://www.quantum-espresso.org", 
     in publications or presentations arising from this work. More details at
     http://www.quantum-espresso.org/quote

     Parallel version (MPI), running on     6 processors

     MPI processes distributed on     1 nodes
     R & G space division:  proc/nbgrp/npool/nimage =       6
     Reading input from distance-2.4.in

     Current dimensions of program PWSCF are:
     Max number of different atomic species (ntypx) = 10
     Max number of k-points (npk) =  40000
     Max angular momentum in pseudopotentials (lmaxx) =  3

     IMPORTANT: XC functional enforced from input :
     Exchange-correlation      = RVV10 ( 1  4 13  4 3 0)
     Any further DFT definition will be discarded
     Please, verify this is what you really want

               file H.pbe-rrkjus.UPF: wavefunction(s)  1S renormalized
               file Cu.pbe-dn-rrkjus_psl.1.0.0.UPF: wavefunction(s)  3D renormalized

     Subspace diagonalization in iterative solution of the eigenvalue problem:
     a serial algorithm will be used


     Parallelization info
     --------------------
     sticks:   dense  smooth     PW     G-vecs:    dense   smooth      PW
     Min        3051    1746    432               270999   117096   14629
     Max        3053    1747    437               271001   117099   14630
     Sum       18313   10477   2611              1626001   702581   87777



     bravais-lattice index     =            4
     lattice parameter (alat)  =      23.2937  a.u.
     unit-cell volume          =    8879.8548 (a.u.)^3
     number of atoms/cell      =           52
     number of atomic types    =            3
     number of electrons       =       209.00
     number of Kohn-Sham states=          126
     kinetic-energy cutoff     =      70.0000  Ry
     charge density cutoff     =     490.0000  Ry
     convergence threshold     =      1.0E-06
     mixing beta               =       0.7000
     number of iterations used =            8  plain     mixing
     Exchange-correlation      = RVV10 ( 1  4 13  4 3 0)

     celldm(1)=  23.293684  celldm(2)=   0.000000  celldm(3)=   0.811261
     celldm(4)=   0.000000  celldm(5)=   0.000000  celldm(6)=   0.000000

     crystal axes: (cart. coord. in units of alat)
               a(1) = (   1.000000   0.000000   0.000000 )  
               a(2) = (  -0.500000   0.866025   0.000000 )  
               a(3) = (   0.000000   0.000000   0.811261 )  

     reciprocal axes: (cart. coord. in units 2 pi/alat)
               b(1) = (  1.000000  0.577350 -0.000000 )  
               b(2) = (  0.000000  1.154701  0.000000 )  
               b(3) = (  0.000000 -0.000000  1.232649 )  


     PseudoPot. # 1 for H  read from file:
     /home/cristian/Escritorio/Proyecto_Grafeno/pseudopotenciales/H.pbe-rrkjus.UPF
     MD5 check sum: 7cc9d459525c9a0585f487a71c3c9563
     Pseudo is Ultrasoft, Zval =  1.0
     Generated by new atomic code, or converted to UPF format
     Using radial grid of 1061 points,  2 beta functions with: 
                l(1) =   0
                l(2) =   0
     Q(r) pseudized with 0 coefficients 


     PseudoPot. # 2 for C  read from file:
     /home/cristian/Escritorio/Proyecto_Grafeno/pseudopotenciales/C.pbe-n-rrkjus_psl.1.0.0.UPF
     MD5 check sum: 1fdd950c42eb37d8afe3dd2f8d12311e
     Pseudo is Ultrasoft + core correction, Zval =  4.0
     Generated using "atomic" code by A. Dal Corso v.6.3MaX
     Using radial grid of 1073 points,  4 beta functions with: 
                l(1) =   0
                l(2) =   0
                l(3) =   1
                l(4) =   1
     Q(r) pseudized with 0 coefficients 


     PseudoPot. # 3 for Cu read from file:
     /home/cristian/Escritorio/Proyecto_Grafeno/pseudopotenciales/Cu.pbe-dn-rrkjus_psl.1.0.0.UPF
     MD5 check sum: ba3d6c84e19846e79d48cdc68ff7152b
     Pseudo is Ultrasoft + core correction, Zval = 11.0
     Generated using "atomic" code by A. Dal Corso v.6.3
     Using radial grid of 1199 points,  6 beta functions with: 
                l(1) =   0
                l(2) =   0
                l(3) =   1
                l(4) =   1
                l(5) =   2
                l(6) =   2
     Q(r) pseudized with 0 coefficients 


     vdW kernel table read from file rVV10_kernel_table
     MD5 check sum: b8e2538accc0c0b3206b45ba4daaba6c

     atomic species   valence    mass     pseudopotential
        H              1.00     1.00794     H ( 1.00)
        C              4.00    12.01070     C ( 1.00)
        Cu            11.00    63.54600     Cu( 1.00)

     Starting magnetic structure 
     atomic species   magnetization
        H            0.500
        C            0.300
        Cu           0.800

      2 Sym. Ops. (no inversion) found


                                    s                        frac. trans.

      isym =  1     identity                                     

 cryst.   s( 1) = (     1          0          0      )
                  (     0          1          0      )
                  (     0          0          1      )

 cart.    s( 1) = (  1.0000000  0.0000000  0.0000000 )
                  (  0.0000000  1.0000000  0.0000000 )
                  (  0.0000000  0.0000000  1.0000000 )


      isym =  2     inv. 180 deg rotation - cryst. axis [1,1,0]  

 cryst.   s( 2) = (     0         -1          0      )
                  (    -1          0          0      )
                  (     0          0          1      )

 cart.    s( 2) = (  0.5000000 -0.8660254  0.0000000 )
                  ( -0.8660254 -0.5000000  0.0000000 )
                  (  0.0000000  0.0000000  1.0000000 )


     point group C_s (m)    
     there are  2 classes
     the character table:

       E     s    
A'     1.00  1.00
A''    1.00 -1.00

     the symmetry operations in each class and the name of the first element:

     E        1
          identity                                               
     s        2
          inv. 180 deg rotation - cryst. axis [1,1,0]            

   Cartesian axes

     site n.     atom                  positions (alat units)
         1           H   tau(   1) = (   0.2000000   0.4618802   0.1947027  )
         2           H   tau(   2) = (   0.2000000   0.4618802   0.2557154  )
         3           C   tau(   3) = (   0.0000000   0.0000000   0.0000000  )
         4           C   tau(   4) = (   0.0000000   0.1154701   0.0000000  )
         5           C   tau(   5) = (  -0.1000000   0.1732051   0.0000000  )
         6           C   tau(   6) = (  -0.1000000   0.2886751   0.0000000  )
         7           C   tau(   7) = (  -0.2000000   0.3464102   0.0000000  )
         8           C   tau(   8) = (  -0.2000000   0.4618802   0.0000000  )
         9           C   tau(   9) = (  -0.3000000   0.5196152   0.0000000  )
        10           C   tau(  10) = (  -0.3000000   0.6350853   0.0000000  )
        11           C   tau(  11) = (  -0.4000000   0.6928203   0.0000000  )
        12           C   tau(  12) = (  -0.4000000   0.8082904   0.0000000  )
        13           C   tau(  13) = (   0.2000000   0.0000000   0.0000000  )
        14           C   tau(  14) = (   0.2000000   0.1154701   0.0000000  )
        15           C   tau(  15) = (   0.1000000   0.1732051   0.0000000  )
        16           C   tau(  16) = (   0.1000000   0.2886751   0.0000000  )
        17           C   tau(  17) = (   0.0000000   0.3464102   0.0000000  )
        18           C   tau(  18) = (   0.0000000   0.4618802   0.0000000  )
        19           C   tau(  19) = (  -0.1000000   0.5196152   0.0000000  )
        20           C   tau(  20) = (  -0.1000000   0.6350853   0.0000000  )
        21           C   tau(  21) = (  -0.2000000   0.6928203   0.0000000  )
        22           C   tau(  22) = (  -0.2000000   0.8082904   0.0000000  )
        23           C   tau(  23) = (   0.4000000   0.0000000   0.0000000  )
        24           C   tau(  24) = (   0.4000000   0.1154701   0.0000000  )
        25           C   tau(  25) = (   0.3000000   0.1732051   0.0000000  )
        26           C   tau(  26) = (   0.3000000   0.2886751   0.0000000  )
        27           C   tau(  27) = (   0.2000000   0.3464102   0.0000000  )
        28           Cu  tau(  28) = (   0.2000000   0.4618802   0.0000000  )
        29           C   tau(  29) = (   0.1000000   0.5196152   0.0000000  )
        30           C   tau(  30) = (   0.1000000   0.6350853   0.0000000  )
        31           C   tau(  31) = (   0.0000000   0.6928203   0.0000000  )
        32           C   tau(  32) = (   0.0000000   0.8082904   0.0000000  )
        33           C   tau(  33) = (   0.6000000   0.0000000   0.0000000  )
        34           C   tau(  34) = (   0.6000000   0.1154701   0.0000000  )
        35           C   tau(  35) = (   0.5000000   0.1732051   0.0000000  )
        36           C   tau(  36) = (   0.5000000   0.2886751   0.0000000  )
        37           C   tau(  37) = (   0.4000000   0.3464102   0.0000000  )
        38           C   tau(  38) = (   0.4000000   0.4618802   0.0000000  )
        39           C   tau(  39) = (   0.3000000   0.5196152   0.0000000  )
        40           C   tau(  40) = (   0.3000000   0.6350853   0.0000000  )
        41           C   tau(  41) = (   0.2000000   0.6928203   0.0000000  )
        42           C   tau(  42) = (   0.2000000   0.8082904   0.0000000  )
        43           C   tau(  43) = (   0.8000000   0.0000000   0.0000000  )
        44           C   tau(  44) = (   0.8000000   0.1154701   0.0000000  )
        45           C   tau(  45) = (   0.7000000   0.1732051   0.0000000  )
        46           C   tau(  46) = (   0.7000000   0.2886751   0.0000000  )
        47           C   tau(  47) = (   0.6000000   0.3464102   0.0000000  )
        48           C   tau(  48) = (   0.6000000   0.4618802   0.0000000  )
        49           C   tau(  49) = (   0.5000000   0.5196152   0.0000000  )
        50           C   tau(  50) = (   0.5000000   0.6350853   0.0000000  )
        51           C   tau(  51) = (   0.4000000   0.6928203   0.0000000  )
        52           C   tau(  52) = (   0.4000000   0.8082904   0.0000000  )

   Crystallographic axes

     site n.     atom                  positions (cryst. coord.)
         1           H   tau(   1) = (  0.4666667  0.5333333  0.2400000  )
         2           H   tau(   2) = (  0.4666667  0.5333333  0.3152072  )
         3           C   tau(   3) = (  0.0000000  0.0000000  0.0000000  )
         4           C   tau(   4) = (  0.0666667  0.1333333  0.0000000  )
         5           C   tau(   5) = (  0.0000000  0.2000000  0.0000000  )
         6           C   tau(   6) = (  0.0666667  0.3333333  0.0000000  )
         7           C   tau(   7) = (  0.0000000  0.4000000  0.0000000  )
         8           C   tau(   8) = (  0.0666667  0.5333333  0.0000000  )
         9           C   tau(   9) = (  0.0000000  0.6000000  0.0000000  )
        10           C   tau(  10) = (  0.0666667  0.7333333  0.0000000  )
        11           C   tau(  11) = (  0.0000000  0.8000000  0.0000000  )
        12           C   tau(  12) = (  0.0666667  0.9333333  0.0000000  )
        13           C   tau(  13) = (  0.2000000  0.0000000  0.0000000  )
        14           C   tau(  14) = (  0.2666667  0.1333333  0.0000000  )
        15           C   tau(  15) = (  0.2000000  0.2000000  0.0000000  )
        16           C   tau(  16) = (  0.2666667  0.3333333  0.0000000  )
        17           C   tau(  17) = (  0.2000000  0.4000000  0.0000000  )
        18           C   tau(  18) = (  0.2666667  0.5333333  0.0000000  )
        19           C   tau(  19) = (  0.2000000  0.6000000  0.0000000  )
        20           C   tau(  20) = (  0.2666667  0.7333333  0.0000000  )
        21           C   tau(  21) = (  0.2000000  0.8000000  0.0000000  )
        22           C   tau(  22) = (  0.2666667  0.9333333  0.0000000  )
        23           C   tau(  23) = (  0.4000000  0.0000000  0.0000000  )
        24           C   tau(  24) = (  0.4666667  0.1333333  0.0000000  )
        25           C   tau(  25) = (  0.4000000  0.2000000  0.0000000  )
        26           C   tau(  26) = (  0.4666667  0.3333333  0.0000000  )
        27           C   tau(  27) = (  0.4000000  0.4000000  0.0000000  )
        28           Cu  tau(  28) = (  0.4666667  0.5333333  0.0000000  )
        29           C   tau(  29) = (  0.4000000  0.6000000  0.0000000  )
        30           C   tau(  30) = (  0.4666667  0.7333333  0.0000000  )
        31           C   tau(  31) = (  0.4000000  0.8000000  0.0000000  )
        32           C   tau(  32) = (  0.4666667  0.9333333  0.0000000  )
        33           C   tau(  33) = (  0.6000000  0.0000000  0.0000000  )
        34           C   tau(  34) = (  0.6666667  0.1333333  0.0000000  )
        35           C   tau(  35) = (  0.6000000  0.2000000  0.0000000  )
        36           C   tau(  36) = (  0.6666667  0.3333333  0.0000000  )
        37           C   tau(  37) = (  0.6000000  0.4000000  0.0000000  )
        38           C   tau(  38) = (  0.6666667  0.5333333  0.0000000  )
        39           C   tau(  39) = (  0.6000000  0.6000000  0.0000000  )
        40           C   tau(  40) = (  0.6666667  0.7333333  0.0000000  )
        41           C   tau(  41) = (  0.6000000  0.8000000  0.0000000  )
        42           C   tau(  42) = (  0.6666667  0.9333333  0.0000000  )
        43           C   tau(  43) = (  0.8000000  0.0000000  0.0000000  )
        44           C   tau(  44) = (  0.8666667  0.1333333  0.0000000  )
        45           C   tau(  45) = (  0.8000000  0.2000000  0.0000000  )
        46           C   tau(  46) = (  0.8666667  0.3333333  0.0000000  )
        47           C   tau(  47) = (  0.8000000  0.4000000  0.0000000  )
        48           C   tau(  48) = (  0.8666667  0.5333333  0.0000000  )
        49           C   tau(  49) = (  0.8000000  0.6000000  0.0000000  )
        50           C   tau(  50) = (  0.8666667  0.7333333  0.0000000  )
        51           C   tau(  51) = (  0.8000000  0.8000000  0.0000000  )
        52           C   tau(  52) = (  0.8666667  0.9333333  0.0000000  )

     number of k points=     1  Marzari-Vanderbilt smearing, width (Ry)=  0.0010
                       cart. coord. in units 2pi/alat
        k(    1) = (   0.0000000   0.0000000   0.0000000), wk =   1.0000000

                       cryst. coord.
        k(    1) = (   0.0000000   0.0000000   0.0000000), wk =   1.0000000

     Dense  grid:  1626001 G-vectors     FFT dimensions: ( 180, 180, 135)

     Smooth grid:   702581 G-vectors     FFT dimensions: ( 125, 125, 108)

     Dynamical RAM for                 wfc:      28.14 MB

     Dynamical RAM for     wfc (w. buffer):      84.42 MB

     Dynamical RAM for           str. fact:      12.41 MB

     Dynamical RAM for           local pot:       0.00 MB

     Dynamical RAM for          nlocal pot:      92.46 MB

     Dynamical RAM for                qrad:      19.73 MB

     Dynamical RAM for          rho,v,vnew:      58.92 MB

     Dynamical RAM for               rhoin:      19.64 MB

     Dynamical RAM for            rho*nmix:     132.32 MB

     Dynamical RAM for           G-vectors:      16.40 MB

     Dynamical RAM for          h,s,v(r/c):      11.63 MB

     Dynamical RAM for          <psi|beta>:       0.80 MB

     Dynamical RAM for                 psi:     112.56 MB

     Dynamical RAM for                hpsi:     112.56 MB

     Dynamical RAM for                spsi:     112.56 MB

     Dynamical RAM for      wfcinit/wfcrot:      93.45 MB

     Dynamical RAM for           addusdens:     975.89 MB

     Estimated static dynamical RAM per process >     486.96 MB

     Estimated max dynamical RAM per process >       1.43 GB

     Estimated total dynamical RAM >       8.57 GB
     Generating pointlists ...
     new r_m :   0.0252 (alat units)  0.5862 (a.u.) for type    1
     new r_m :   0.0476 (alat units)  1.1095 (a.u.) for type    2
     new r_m :   0.0476 (alat units)  1.1095 (a.u.) for type    3

     Check: negative core charge=   -0.000002

     Initial potential from superposition of free atoms

     starting charge  208.80532, renormalised to  209.00000

     negative rho (up, down):  6.555E-05 1.174E-02


---------------------------------------------------------------------------------
Carrying out rVV10 run using the following parameters:
Nqs =      20    Nr_points =    1024   r_max =   100.000
b_value =  6.30000    beta =  0.00901
     q_mesh =  0.00010000  0.00030000  0.00058939  0.00100810
               0.00161396  0.00249058  0.00375900  0.00559430
               0.00824984  0.01209221  0.01765183  0.02569619
               0.03733578  0.05417739  0.07854596  0.11380545
               0.16482331  0.23864234  0.34545298  0.50000000

Gradients computed in Reciprocal space

---------------------------------------------------------------------------------


     Starting wfcs are  207 randomized atomic wfcs

     total cpu time spent up to now is       74.1 secs

     Self-consistent Calculation

     iteration #  1     ecut=    70.00 Ry     beta= 0.70
     Davidson diagonalization with overlap
     ethr =  1.00E-02,  avg # of iterations =  2.0

     negative rho (up, down):  1.568E-04 1.165E-02

     total cpu time spent up to now is      201.2 secs

     total energy              =    -730.26324748 Ry
     Harris-Foulkes estimate   =    -734.82825482 Ry
     estimated scf accuracy    <      11.44702019 Ry

     total magnetization       =     4.91 Bohr mag/cell
     absolute magnetization    =     5.81 Bohr mag/cell

     iteration #  2     ecut=    70.00 Ry     beta= 0.70
     Davidson diagonalization with overlap
     ethr =  5.48E-03,  avg # of iterations =  4.0

     negative rho (up, down):  1.871E-04 1.015E-02

     total cpu time spent up to now is      320.3 secs

     total energy              =    -730.88322857 Ry
     Harris-Foulkes estimate   =    -739.34300445 Ry
     estimated scf accuracy    <      19.10642613 Ry

     total magnetization       =     3.00 Bohr mag/cell
     absolute magnetization    =     3.20 Bohr mag/cell

     iteration #  3     ecut=    70.00 Ry     beta= 0.70
     Davidson diagonalization with overlap
     ethr =  5.48E-03,  avg # of iterations =  4.5

     negative rho (up, down):  2.328E-04 7.716E-03

     total cpu time spent up to now is      422.6 secs

     total energy              =    -732.64202800 Ry
     Harris-Foulkes estimate   =    -735.72408071 Ry
     estimated scf accuracy    <       8.56314096 Ry

     total magnetization       =     1.00 Bohr mag/cell
     absolute magnetization    =     1.79 Bohr mag/cell

     iteration #  4     ecut=    70.00 Ry     beta= 0.70
     Davidson diagonalization with overlap
     ethr =  4.10E-03,  avg # of iterations =  3.0

     negative rho (up, down):  2.782E-04 7.343E-03

     total cpu time spent up to now is      526.1 secs

     total energy              =    -733.78562946 Ry
     Harris-Foulkes estimate   =    -735.37815974 Ry
     estimated scf accuracy    <       7.06253923 Ry

     total magnetization       =     3.00 Bohr mag/cell
     absolute magnetization    =     3.13 Bohr mag/cell

     iteration #  5     ecut=    70.00 Ry     beta= 0.70
     Davidson diagonalization with overlap
     ethr =  3.38E-03,  avg # of iterations =  2.0

     negative rho (up, down):  3.397E-04 1.253E-02

     total cpu time spent up to now is      619.0 secs

     total energy              =    -734.67276160 Ry
     Harris-Foulkes estimate   =    -734.81191594 Ry
     estimated scf accuracy    <       0.44801003 Ry

     total magnetization       =     1.00 Bohr mag/cell
     absolute magnetization    =     1.29 Bohr mag/cell

     iteration #  6     ecut=    70.00 Ry     beta= 0.70
     Davidson diagonalization with overlap
     ethr =  2.14E-04,  avg # of iterations =  6.0

     negative rho (up, down):  4.704E-04 1.133E-02

     total cpu time spent up to now is      729.3 secs

     total energy              =    -734.73089255 Ry
     Harris-Foulkes estimate   =    -734.77702627 Ry
     estimated scf accuracy    <       0.15787918 Ry

     total magnetization       =     1.00 Bohr mag/cell
     absolute magnetization    =     1.20 Bohr mag/cell

     iteration #  7     ecut=    70.00 Ry     beta= 0.70
     Davidson diagonalization with overlap
     ethr =  7.55E-05,  avg # of iterations =  9.0

     negative rho (up, down):  5.780E-04 4.298E-03

     total cpu time spent up to now is      836.9 secs

     total energy              =    -734.74275408 Ry
     Harris-Foulkes estimate   =    -734.76940734 Ry
     estimated scf accuracy    <       0.11197815 Ry

     total magnetization       =     1.00 Bohr mag/cell
     absolute magnetization    =     1.15 Bohr mag/cell

     iteration #  8     ecut=    70.00 Ry     beta= 0.70
     Davidson diagonalization with overlap
     ethr =  5.36E-05,  avg # of iterations =  8.0

     negative rho (up, down):  6.335E-04 3.483E-03

     total cpu time spent up to now is      936.2 secs

     total energy              =    -734.74977141 Ry
     Harris-Foulkes estimate   =    -734.76212366 Ry
     estimated scf accuracy    <       0.06207567 Ry

     total magnetization       =     1.00 Bohr mag/cell
     absolute magnetization    =     1.14 Bohr mag/cell

     iteration #  9     ecut=    70.00 Ry     beta= 0.70
     Davidson diagonalization with overlap
     ethr =  2.97E-05,  avg # of iterations =  2.0

     negative rho (up, down):  6.530E-04 3.841E-03

     total cpu time spent up to now is     1029.1 secs

     total energy              =    -734.75383412 Ry
     Harris-Foulkes estimate   =    -734.75575435 Ry
     estimated scf accuracy    <       0.02322268 Ry

     total magnetization       =     1.00 Bohr mag/cell
     absolute magnetization    =     1.12 Bohr mag/cell

     iteration # 10     ecut=    70.00 Ry     beta= 0.70
     Davidson diagonalization with overlap
     ethr =  1.11E-05,  avg # of iterations =  6.0

     negative rho (up, down):  6.538E-04 3.012E-03

     total cpu time spent up to now is     1124.4 secs

     total energy              =    -734.75458606 Ry
     Harris-Foulkes estimate   =    -734.75494401 Ry
     estimated scf accuracy    <       0.00153557 Ry

     total magnetization       =     1.00 Bohr mag/cell
     absolute magnetization    =     1.09 Bohr mag/cell

     iteration # 11     ecut=    70.00 Ry     beta= 0.70
     Davidson diagonalization with overlap
     ethr =  7.35E-07,  avg # of iterations =  7.0

     negative rho (up, down):  6.481E-04 2.488E-03

     total cpu time spent up to now is     1233.8 secs

     total energy              =    -734.75479799 Ry
     Harris-Foulkes estimate   =    -734.75495824 Ry
     estimated scf accuracy    <       0.00204702 Ry

     total magnetization       =     1.00 Bohr mag/cell
     absolute magnetization    =     1.08 Bohr mag/cell

     iteration # 12     ecut=    70.00 Ry     beta= 0.70
     Davidson diagonalization with overlap
     ethr =  7.35E-07,  avg # of iterations =  1.5

     negative rho (up, down):  6.430E-04 2.184E-03

     total cpu time spent up to now is     1326.0 secs

     total energy              =    -734.75485121 Ry
     Harris-Foulkes estimate   =    -734.75489645 Ry
     estimated scf accuracy    <       0.00096039 Ry

     total magnetization       =     1.00 Bohr mag/cell
     absolute magnetization    =     1.08 Bohr mag/cell

     iteration # 13     ecut=    70.00 Ry     beta= 0.70
     Davidson diagonalization with overlap
     ethr =  4.60E-07,  avg # of iterations =  1.0

     negative rho (up, down):  6.346E-04 1.689E-03

     total cpu time spent up to now is     1417.9 secs

     total energy              =    -734.75488205 Ry
     Harris-Foulkes estimate   =    -734.75488935 Ry
     estimated scf accuracy    <       0.00002931 Ry

     total magnetization       =     1.00 Bohr mag/cell
     absolute magnetization    =     1.07 Bohr mag/cell

     iteration # 14     ecut=    70.00 Ry     beta= 0.70
     Davidson diagonalization with overlap
     ethr =  1.40E-08,  avg # of iterations =  3.0

     negative rho (up, down):  6.340E-04 1.690E-03

     total cpu time spent up to now is     1529.4 secs

     total energy              =    -734.75488940 Ry
     Harris-Foulkes estimate   =    -734.75489538 Ry
     estimated scf accuracy    <       0.00013496 Ry

     total magnetization       =     1.00 Bohr mag/cell
     absolute magnetization    =     1.07 Bohr mag/cell

     iteration # 15     ecut=    70.00 Ry     beta= 0.70
     Davidson diagonalization with overlap
     ethr =  1.40E-08,  avg # of iterations =  2.0

     negative rho (up, down):  6.326E-04 1.651E-03

     total cpu time spent up to now is     1623.5 secs

     total energy              =    -734.75489334 Ry
     Harris-Foulkes estimate   =    -734.75489315 Ry
     estimated scf accuracy    <       0.00000230 Ry

     total magnetization       =     1.00 Bohr mag/cell
     absolute magnetization    =     1.07 Bohr mag/cell

     iteration # 16     ecut=    70.00 Ry     beta= 0.70
     Davidson diagonalization with overlap
     ethr =  1.10E-09,  avg # of iterations =  3.0

     negative rho (up, down):  6.317E-04 1.661E-03

     total cpu time spent up to now is     1739.1 secs

     total energy              =    -734.75489444 Ry
     Harris-Foulkes estimate   =    -734.75489449 Ry
     estimated scf accuracy    <       0.00002021 Ry

     total magnetization       =     1.00 Bohr mag/cell
     absolute magnetization    =     1.07 Bohr mag/cell

     iteration # 17     ecut=    70.00 Ry     beta= 0.70
     Davidson diagonalization with overlap
     ethr =  1.10E-09,  avg # of iterations =  2.5

     negative rho (up, down):  6.314E-04 1.669E-03

     total cpu time spent up to now is     1833.5 secs

     total energy              =    -734.75489458 Ry
     Harris-Foulkes estimate   =    -734.75489470 Ry
     estimated scf accuracy    <       0.00000647 Ry

     total magnetization       =     1.00 Bohr mag/cell
     absolute magnetization    =     1.07 Bohr mag/cell

     iteration # 18     ecut=    70.00 Ry     beta= 0.70
     Davidson diagonalization with overlap
     ethr =  1.10E-09,  avg # of iterations =  1.5

     negative rho (up, down):  6.315E-04 1.666E-03

     Magnetic moment per site:
     atom:    1    charge:    0.2122    magn:    0.0000    constr:    0.0000
     atom:    2    charge:    0.2126    magn:   -0.0001    constr:    0.0000
     atom:    3    charge:    1.7158    magn:    0.0016    constr:    0.0000
     atom:    4    charge:    1.7153    magn:    0.0018    constr:    0.0000
     atom:    5    charge:    1.7170    magn:   -0.0001    constr:    0.0000
     atom:    6    charge:    1.7146    magn:    0.0001    constr:    0.0000
     atom:    7    charge:    1.7169    magn:   -0.0001    constr:    0.0000
     atom:    8    charge:    1.7153    magn:    0.0018    constr:    0.0000
     atom:    9    charge:    1.7157    magn:    0.0016    constr:    0.0000
     atom:   10    charge:    1.7170    magn:   -0.0010    constr:    0.0000
     atom:   11    charge:    1.7160    magn:    0.0006    constr:    0.0000
     atom:   12    charge:    1.7170    magn:   -0.0010    constr:    0.0000
     atom:   13    charge:    1.7160    magn:    0.0006    constr:    0.0000
     atom:   14    charge:    1.7168    magn:   -0.0009    constr:    0.0000
     atom:   15    charge:    1.7130    magn:    0.0072    constr:    0.0000
     atom:   16    charge:    1.7107    magn:    0.0134    constr:    0.0000
     atom:   17    charge:    1.7213    magn:    0.0029    constr:    0.0000
     atom:   18    charge:    1.7107    magn:    0.0134    constr:    0.0000
     atom:   19    charge:    1.7129    magn:    0.0071    constr:    0.0000
     atom:   20    charge:    1.7168    magn:   -0.0009    constr:    0.0000
     atom:   21    charge:    1.7159    magn:    0.0006    constr:    0.0000
     atom:   22    charge:    1.7170    magn:   -0.0010    constr:    0.0000
     atom:   23    charge:    1.7157    magn:    0.0016    constr:    0.0000
     atom:   24    charge:    1.7153    magn:    0.0018    constr:    0.0000
     atom:   25    charge:    1.7129    magn:    0.0071    constr:    0.0000
     atom:   26    charge:    1.7107    magn:    0.0132    constr:    0.0000
     atom:   27    charge:    1.8179    magn:    0.0796    constr:    0.0000
     atom:   28    charge:    7.0292    magn:    0.1545    constr:    0.0000
     atom:   29    charge:    1.8179    magn:    0.0786    constr:    0.0000
     atom:   30    charge:    1.7107    magn:    0.0134    constr:    0.0000
     atom:   31    charge:    1.7129    magn:    0.0071    constr:    0.0000
     atom:   32    charge:    1.7153    magn:    0.0018    constr:    0.0000
     atom:   33    charge:    1.7169    magn:   -0.0001    constr:    0.0000
     atom:   34    charge:    1.7153    magn:    0.0001    constr:    0.0000
     atom:   35    charge:    1.7169    magn:   -0.0001    constr:    0.0000
     atom:   36    charge:    1.7146    magn:    0.0001    constr:    0.0000
     atom:   37    charge:    1.7213    magn:    0.0030    constr:    0.0000
     atom:   38    charge:    1.7107    magn:    0.0132    constr:    0.0000
     atom:   39    charge:    1.8179    magn:    0.0796    constr:    0.0000
     atom:   40    charge:    1.7107    magn:    0.0134    constr:    0.0000
     atom:   41    charge:    1.7213    magn:    0.0029    constr:    0.0000
     atom:   42    charge:    1.7146    magn:    0.0001    constr:    0.0000
     atom:   43    charge:    1.7170    magn:   -0.0001    constr:    0.0000
     atom:   44    charge:    1.7153    magn:    0.0001    constr:    0.0000
     atom:   45    charge:    1.7211    magn:   -0.0008    constr:    0.0000
     atom:   46    charge:    1.7153    magn:    0.0001    constr:    0.0000
     atom:   47    charge:    1.7169    magn:   -0.0001    constr:    0.0000
     atom:   48    charge:    1.7153    magn:    0.0018    constr:    0.0000
     atom:   49    charge:    1.7129    magn:    0.0071    constr:    0.0000
     atom:   50    charge:    1.7168    magn:   -0.0009    constr:    0.0000
     atom:   51    charge:    1.7130    magn:    0.0072    constr:    0.0000
     atom:   52    charge:    1.7153    magn:    0.0018    constr:    0.0000

     total cpu time spent up to now is     1925.8 secs

     End of self-consistent calculation

 ------ SPIN UP ------------


          k = 0.0000 0.0000 0.0000 ( 87777 PWs)   bands (ev):

   -19.8525 -19.0102 -19.0098 -18.9146 -18.9146 -18.8528 -18.7786 -17.1807
   -17.1806 -17.1429 -17.0996 -17.0994 -16.8217 -16.3401 -16.3398 -16.1943
   -16.1941 -16.1717 -15.7827 -14.4383 -14.4380 -14.1410 -14.0451 -14.0451
   -13.5895 -13.1783 -13.1783 -13.0911 -12.9495 -12.9493 -12.6449 -12.3308
   -12.3306 -11.7258 -11.6205 -11.6205 -11.2006 -10.9523 -10.9521  -9.5363
    -9.3756  -9.3756  -9.2538  -9.2444  -9.2444  -9.2354  -9.1416  -9.1407
    -9.0729  -9.0727  -8.9828  -8.7292  -8.7291  -7.9970  -7.9080  -7.8598
    -7.6758  -7.6755  -7.5457  -7.5456  -7.2246  -6.8693  -6.8517  -6.8517
    -6.8293  -6.7900  -6.7267  -6.7264  -6.6303  -6.6301  -6.5853  -6.5784
    -6.5783  -6.5328  -6.4100  -6.4097  -6.3626  -5.6250  -5.6250  -5.0399
    -4.9679  -4.9242  -4.8972  -4.8970  -4.7722  -4.7358  -4.7358  -4.5530
    -4.5527  -4.4543  -3.8624  -3.8621  -3.8298  -3.8298  -3.7926  -3.6526
    -3.6523  -3.3898  -1.8934  -1.8368  -1.8368  -1.7459  -1.7458  -1.2266
    -0.8604  -0.8603   0.9009   0.9373   0.9373   1.0807   1.0808   1.4815
     2.4893   2.7824   2.7826   2.8286   2.9147   2.9150   3.3685   3.6104
     3.6105   3.7307   3.7308   3.7494   3.8997   4.2529

     occupation numbers 
     1.0000   1.0000   1.0000   1.0000   1.0000   1.0000   1.0000   1.0000
     1.0000   1.0000   1.0000   1.0000   1.0000   1.0000   1.0000   1.0000
     1.0000   1.0000   1.0000   1.0000   1.0000   1.0000   1.0000   1.0000
     1.0000   1.0000   1.0000   1.0000   1.0000   1.0000   1.0000   1.0000
     1.0000   1.0000   1.0000   1.0000   1.0000   1.0000   1.0000   1.0000
     1.0000   1.0000   1.0000   1.0000   1.0000   1.0000   1.0000   1.0000
     1.0000   1.0000   1.0000   1.0000   1.0000   1.0000   1.0000   1.0000
     1.0000   1.0000   1.0000   1.0000   1.0000   1.0000   1.0000   1.0000
     1.0000   1.0000   1.0000   1.0000   1.0000   1.0000   1.0000   1.0000
     1.0000   1.0000   1.0000   1.0000   1.0000   1.0000   1.0000   1.0000
     1.0000   1.0000   1.0000   1.0000   1.0000   1.0000   1.0000   1.0000
     1.0000   1.0000   1.0000   1.0000   1.0000   1.0000   1.0000   1.0000
     1.0000   1.0000   1.0000   1.0000   1.0000   1.0000   1.0000   1.0000
     0.5035   0.4965   0.0000   0.0000   0.0000   0.0000   0.0000   0.0000
     0.0000   0.0000   0.0000   0.0000   0.0000   0.0000   0.0000   0.0000
     0.0000   0.0000   0.0000   0.0000   0.0000   0.0000

 ------ SPIN DOWN ----------


          k = 0.0000 0.0000 0.0000 ( 87777 PWs)   bands (ev):

   -19.8272 -18.9777 -18.9771 -18.9078 -18.9077 -18.8496 -18.7034 -17.1409
   -17.1409 -17.1269 -17.0779 -17.0774 -16.7881 -16.3026 -16.3023 -16.1729
   -16.1724 -16.1648 -15.7073 -14.3482 -14.3480 -14.1166 -14.0369 -14.0369
   -13.5474 -13.1528 -13.1528 -13.0782 -12.9129 -12.9124 -12.5802 -12.2197
   -12.2195 -11.7061 -11.5861 -11.5857 -11.0957 -10.8229 -10.8226  -9.4953
    -9.3561  -9.3560  -9.2462  -9.2356  -9.2356  -9.2228  -9.0165  -9.0164
    -8.9704  -8.9682  -8.8587  -8.6879  -8.6875  -7.9839  -7.8836  -7.8377
    -7.6270  -7.6268  -7.5281  -7.5279  -7.1953  -6.8507  -6.8506  -6.8291
    -6.7887  -6.7883  -6.7138  -6.7134  -6.6082  -6.6081  -6.5775  -6.5744
    -6.5743  -6.5267  -6.3691  -6.3689  -6.3401  -5.5975  -5.5972  -5.0209
    -4.9580  -4.8772  -4.8771  -4.7674  -4.7347  -4.7347  -4.7235  -4.5432
    -4.5429  -4.4367  -3.8582  -3.8579  -3.8043  -3.8042  -3.7936  -3.6343
    -3.6340  -3.3509  -1.8896  -1.8345  -1.8345  -1.7242  -1.7239  -1.1902
    -0.4626  -0.4577   0.9039   0.9408   0.9408   1.1036   1.1041   1.4939
     2.4893   2.7845   2.7847   2.8294   2.9417   2.9422   3.3771   3.6118
     3.6119   3.7296   3.7297   3.7480   3.9062   4.2519

     occupation numbers 
     1.0000   1.0000   1.0000   1.0000   1.0000   1.0000   1.0000   1.0000
     1.0000   1.0000   1.0000   1.0000   1.0000   1.0000   1.0000   1.0000
     1.0000   1.0000   1.0000   1.0000   1.0000   1.0000   1.0000   1.0000
     1.0000   1.0000   1.0000   1.0000   1.0000   1.0000   1.0000   1.0000
     1.0000   1.0000   1.0000   1.0000   1.0000   1.0000   1.0000   1.0000
     1.0000   1.0000   1.0000   1.0000   1.0000   1.0000   1.0000   1.0000
     1.0000   1.0000   1.0000   1.0000   1.0000   1.0000   1.0000   1.0000
     1.0000   1.0000   1.0000   1.0000   1.0000   1.0000   1.0000   1.0000
     1.0000   1.0000   1.0000   1.0000   1.0000   1.0000   1.0000   1.0000
     1.0000   1.0000   1.0000   1.0000   1.0000   1.0000   1.0000   1.0000
     1.0000   1.0000   1.0000   1.0000   1.0000   1.0000   1.0000   1.0000
     1.0000   1.0000   1.0000   1.0000   1.0000   1.0000   1.0000   1.0000
     1.0000   1.0000   1.0000   1.0000   1.0000   1.0000   1.0000   1.0000
     0.0000   0.0000   0.0000   0.0000   0.0000   0.0000   0.0000   0.0000
     0.0000   0.0000   0.0000   0.0000   0.0000   0.0000   0.0000   0.0000
     0.0000   0.0000   0.0000   0.0000   0.0000   0.0000

     the Fermi energy is    -0.8584 ev

!    total energy              =    -734.75489474 Ry
     Harris-Foulkes estimate   =    -734.75489479 Ry
     estimated scf accuracy    <       0.00000020 Ry

     The total energy is the sum of the following terms:

     one-electron contribution =   -2497.65504758 Ry
     hartree contribution      =    1304.47996793 Ry
     xc contribution           =    -275.94763492 Ry
     ewald contribution        =     734.36814800 Ry
     smearing contrib. (-TS)   =      -0.00032817 Ry

     total magnetization       =     1.00 Bohr mag/cell
     absolute magnetization    =     1.07 Bohr mag/cell

     convergence has been achieved in  18 iterations

     Writing output data file cobre-top-2.4.save/

     init_run     :     71.86s CPU     73.05s WALL (       1 calls)
     electrons    :   1820.08s CPU   1851.85s WALL (       1 calls)

     Called by init_run:
     wfcinit      :     41.79s CPU     41.98s WALL (       1 calls)
     wfcinit:atom :      0.06s CPU      0.09s WALL (       2 calls)
     wfcinit:wfcr :     41.35s CPU     41.50s WALL (       2 calls)
     potinit      :     12.47s CPU     12.91s WALL (       1 calls)
     hinit0       :      8.82s CPU      8.86s WALL (       1 calls)

     Called by electrons:
     c_bands      :   1157.08s CPU   1162.83s WALL (      18 calls)
     sum_band     :    384.42s CPU    395.16s WALL (      18 calls)
     v_of_rho     :    137.26s CPU    143.49s WALL (      19 calls)
     v_h          :      1.40s CPU      1.46s WALL (      19 calls)
     v_xc         :    135.87s CPU    142.03s WALL (      19 calls)
     newd         :    143.85s CPU    153.58s WALL (      19 calls)
     mix_rho      :      7.71s CPU      7.79s WALL (      18 calls)

     Called by c_bands:
     init_us_2    :      3.42s CPU      3.43s WALL (      74 calls)
     cegterg      :   1148.79s CPU   1154.48s WALL (      36 calls)

     Called by sum_band:
     sum_band:bec :      0.03s CPU      0.03s WALL (      36 calls)
     addusdens    :    241.65s CPU    251.60s WALL (      18 calls)

     Called by *egterg:
     h_psi        :    608.46s CPU    612.36s WALL (     174 calls)
     s_psi        :    205.61s CPU    205.72s WALL (     174 calls)
     g_psi        :      0.66s CPU      0.66s WALL (     136 calls)
     cdiaghg      :     11.44s CPU     11.44s WALL (     172 calls)
     cegterg:over :    145.97s CPU    146.04s WALL (     136 calls)
     cegterg:upda :     88.69s CPU     89.20s WALL (     136 calls)
     cegterg:last :     61.54s CPU     61.56s WALL (      36 calls)

     Called by h_psi:
     h_psi:pot    :    607.76s CPU    610.88s WALL (     174 calls)
     h_psi:calbec :    205.02s CPU    205.10s WALL (     174 calls)
     vloc_psi     :    196.90s CPU    199.87s WALL (     174 calls)
     add_vuspsi   :    205.85s CPU    205.90s WALL (     174 calls)

     General routines
     calbec       :    290.66s CPU    290.78s WALL (     210 calls)
     fft          :     78.85s CPU     81.26s WALL (    1419 calls)
     ffts         :      1.40s CPU      1.42s WALL (      74 calls)
     fftw         :    209.33s CPU    212.52s WALL (   26320 calls)
     interpolate  :      3.26s CPU      3.31s WALL (      38 calls)

     Parallel routines
     fft_scatt_xy :     51.35s CPU     51.90s WALL (   27813 calls)
     fft_scatt_yz :     98.51s CPU    102.65s WALL (   27813 calls)

     PWSCF        :  31m33.22s CPU  32m 6.50s WALL


   This run was terminated on:   3:23:12   5Sep2022            

=------------------------------------------------------------------------------=
   JOB DONE.
=------------------------------------------------------------------------------=
