
     Program PWSCF v.6.4.1 starts on  4Sep2022 at 22:47:51 

     This program is part of the open-source Quantum ESPRESSO suite
     for quantum simulation of materials; please cite
         "P. Giannozzi et al., J. Phys.:Condens. Matter 21 395502 (2009);
         "P. Giannozzi et al., J. Phys.:Condens. Matter 29 465901 (2017);
          URL http://www.quantum-espresso.org", 
     in publications or presentations arising from this work. More details at
     http://www.quantum-espresso.org/quote

     Parallel version (MPI), running on     6 processors

     MPI processes distributed on     1 nodes
     R & G space division:  proc/nbgrp/npool/nimage =       6
     Reading input from distance-4.5.in

     Current dimensions of program PWSCF are:
     Max number of different atomic species (ntypx) = 10
     Max number of k-points (npk) =  40000
     Max angular momentum in pseudopotentials (lmaxx) =  3

     IMPORTANT: XC functional enforced from input :
     Exchange-correlation      = RVV10 ( 1  4 13  4 3 0)
     Any further DFT definition will be discarded
     Please, verify this is what you really want

               file H.pbe-rrkjus.UPF: wavefunction(s)  1S renormalized
               file Cu.pbe-dn-rrkjus_psl.1.0.0.UPF: wavefunction(s)  3D renormalized

     Subspace diagonalization in iterative solution of the eigenvalue problem:
     a serial algorithm will be used


     Parallelization info
     --------------------
     sticks:   dense  smooth     PW     G-vecs:    dense   smooth      PW
     Min        3051    1746    432               270999   117096   14629
     Max        3053    1747    437               271001   117099   14630
     Sum       18313   10477   2611              1626001   702581   87777



     bravais-lattice index     =            4
     lattice parameter (alat)  =      23.2937  a.u.
     unit-cell volume          =    8879.8548 (a.u.)^3
     number of atoms/cell      =           52
     number of atomic types    =            3
     number of electrons       =       209.00
     number of Kohn-Sham states=          126
     kinetic-energy cutoff     =      70.0000  Ry
     charge density cutoff     =     490.0000  Ry
     convergence threshold     =      1.0E-06
     mixing beta               =       0.7000
     number of iterations used =            8  plain     mixing
     Exchange-correlation      = RVV10 ( 1  4 13  4 3 0)

     celldm(1)=  23.293684  celldm(2)=   0.000000  celldm(3)=   0.811261
     celldm(4)=   0.000000  celldm(5)=   0.000000  celldm(6)=   0.000000

     crystal axes: (cart. coord. in units of alat)
               a(1) = (   1.000000   0.000000   0.000000 )  
               a(2) = (  -0.500000   0.866025   0.000000 )  
               a(3) = (   0.000000   0.000000   0.811261 )  

     reciprocal axes: (cart. coord. in units 2 pi/alat)
               b(1) = (  1.000000  0.577350 -0.000000 )  
               b(2) = (  0.000000  1.154701  0.000000 )  
               b(3) = (  0.000000 -0.000000  1.232649 )  


     PseudoPot. # 1 for H  read from file:
     /home/cristian/Escritorio/Proyecto_Grafeno/pseudopotenciales/H.pbe-rrkjus.UPF
     MD5 check sum: 7cc9d459525c9a0585f487a71c3c9563
     Pseudo is Ultrasoft, Zval =  1.0
     Generated by new atomic code, or converted to UPF format
     Using radial grid of 1061 points,  2 beta functions with: 
                l(1) =   0
                l(2) =   0
     Q(r) pseudized with 0 coefficients 


     PseudoPot. # 2 for C  read from file:
     /home/cristian/Escritorio/Proyecto_Grafeno/pseudopotenciales/C.pbe-n-rrkjus_psl.1.0.0.UPF
     MD5 check sum: 1fdd950c42eb37d8afe3dd2f8d12311e
     Pseudo is Ultrasoft + core correction, Zval =  4.0
     Generated using "atomic" code by A. Dal Corso v.6.3MaX
     Using radial grid of 1073 points,  4 beta functions with: 
                l(1) =   0
                l(2) =   0
                l(3) =   1
                l(4) =   1
     Q(r) pseudized with 0 coefficients 


     PseudoPot. # 3 for Cu read from file:
     /home/cristian/Escritorio/Proyecto_Grafeno/pseudopotenciales/Cu.pbe-dn-rrkjus_psl.1.0.0.UPF
     MD5 check sum: ba3d6c84e19846e79d48cdc68ff7152b
     Pseudo is Ultrasoft + core correction, Zval = 11.0
     Generated using "atomic" code by A. Dal Corso v.6.3
     Using radial grid of 1199 points,  6 beta functions with: 
                l(1) =   0
                l(2) =   0
                l(3) =   1
                l(4) =   1
                l(5) =   2
                l(6) =   2
     Q(r) pseudized with 0 coefficients 


     vdW kernel table read from file rVV10_kernel_table
     MD5 check sum: b8e2538accc0c0b3206b45ba4daaba6c

     atomic species   valence    mass     pseudopotential
        H              1.00     1.00794     H ( 1.00)
        C              4.00    12.01070     C ( 1.00)
        Cu            11.00    63.54600     Cu( 1.00)

     Starting magnetic structure 
     atomic species   magnetization
        H            0.500
        C            0.300
        Cu           0.800

      2 Sym. Ops. (no inversion) found


                                    s                        frac. trans.

      isym =  1     identity                                     

 cryst.   s( 1) = (     1          0          0      )
                  (     0          1          0      )
                  (     0          0          1      )

 cart.    s( 1) = (  1.0000000  0.0000000  0.0000000 )
                  (  0.0000000  1.0000000  0.0000000 )
                  (  0.0000000  0.0000000  1.0000000 )


      isym =  2     inv. 180 deg rotation - cryst. axis [1,1,0]  

 cryst.   s( 2) = (     0         -1          0      )
                  (    -1          0          0      )
                  (     0          0          1      )

 cart.    s( 2) = (  0.5000000 -0.8660254  0.0000000 )
                  ( -0.8660254 -0.5000000  0.0000000 )
                  (  0.0000000  0.0000000  1.0000000 )


     point group C_s (m)    
     there are  2 classes
     the character table:

       E     s    
A'     1.00  1.00
A''    1.00 -1.00

     the symmetry operations in each class and the name of the first element:

     E        1
          identity                                               
     s        2
          inv. 180 deg rotation - cryst. axis [1,1,0]            

   Cartesian axes

     site n.     atom                  positions (alat units)
         1           H   tau(   1) = (   0.2000000   0.4618802   0.3650675  )
         2           H   tau(   2) = (   0.2000000   0.4618802   0.4260802  )
         3           C   tau(   3) = (   0.0000000   0.0000000   0.0000000  )
         4           C   tau(   4) = (   0.0000000   0.1154701   0.0000000  )
         5           C   tau(   5) = (  -0.1000000   0.1732051   0.0000000  )
         6           C   tau(   6) = (  -0.1000000   0.2886751   0.0000000  )
         7           C   tau(   7) = (  -0.2000000   0.3464102   0.0000000  )
         8           C   tau(   8) = (  -0.2000000   0.4618802   0.0000000  )
         9           C   tau(   9) = (  -0.3000000   0.5196152   0.0000000  )
        10           C   tau(  10) = (  -0.3000000   0.6350853   0.0000000  )
        11           C   tau(  11) = (  -0.4000000   0.6928203   0.0000000  )
        12           C   tau(  12) = (  -0.4000000   0.8082904   0.0000000  )
        13           C   tau(  13) = (   0.2000000   0.0000000   0.0000000  )
        14           C   tau(  14) = (   0.2000000   0.1154701   0.0000000  )
        15           C   tau(  15) = (   0.1000000   0.1732051   0.0000000  )
        16           C   tau(  16) = (   0.1000000   0.2886751   0.0000000  )
        17           C   tau(  17) = (   0.0000000   0.3464102   0.0000000  )
        18           C   tau(  18) = (   0.0000000   0.4618802   0.0000000  )
        19           C   tau(  19) = (  -0.1000000   0.5196152   0.0000000  )
        20           C   tau(  20) = (  -0.1000000   0.6350853   0.0000000  )
        21           C   tau(  21) = (  -0.2000000   0.6928203   0.0000000  )
        22           C   tau(  22) = (  -0.2000000   0.8082904   0.0000000  )
        23           C   tau(  23) = (   0.4000000   0.0000000   0.0000000  )
        24           C   tau(  24) = (   0.4000000   0.1154701   0.0000000  )
        25           C   tau(  25) = (   0.3000000   0.1732051   0.0000000  )
        26           C   tau(  26) = (   0.3000000   0.2886751   0.0000000  )
        27           C   tau(  27) = (   0.2000000   0.3464102   0.0000000  )
        28           Cu  tau(  28) = (   0.2000000   0.4618802   0.0000000  )
        29           C   tau(  29) = (   0.1000000   0.5196152   0.0000000  )
        30           C   tau(  30) = (   0.1000000   0.6350853   0.0000000  )
        31           C   tau(  31) = (   0.0000000   0.6928203   0.0000000  )
        32           C   tau(  32) = (   0.0000000   0.8082904   0.0000000  )
        33           C   tau(  33) = (   0.6000000   0.0000000   0.0000000  )
        34           C   tau(  34) = (   0.6000000   0.1154701   0.0000000  )
        35           C   tau(  35) = (   0.5000000   0.1732051   0.0000000  )
        36           C   tau(  36) = (   0.5000000   0.2886751   0.0000000  )
        37           C   tau(  37) = (   0.4000000   0.3464102   0.0000000  )
        38           C   tau(  38) = (   0.4000000   0.4618802   0.0000000  )
        39           C   tau(  39) = (   0.3000000   0.5196152   0.0000000  )
        40           C   tau(  40) = (   0.3000000   0.6350853   0.0000000  )
        41           C   tau(  41) = (   0.2000000   0.6928203   0.0000000  )
        42           C   tau(  42) = (   0.2000000   0.8082904   0.0000000  )
        43           C   tau(  43) = (   0.8000000   0.0000000   0.0000000  )
        44           C   tau(  44) = (   0.8000000   0.1154701   0.0000000  )
        45           C   tau(  45) = (   0.7000000   0.1732051   0.0000000  )
        46           C   tau(  46) = (   0.7000000   0.2886751   0.0000000  )
        47           C   tau(  47) = (   0.6000000   0.3464102   0.0000000  )
        48           C   tau(  48) = (   0.6000000   0.4618802   0.0000000  )
        49           C   tau(  49) = (   0.5000000   0.5196152   0.0000000  )
        50           C   tau(  50) = (   0.5000000   0.6350853   0.0000000  )
        51           C   tau(  51) = (   0.4000000   0.6928203   0.0000000  )
        52           C   tau(  52) = (   0.4000000   0.8082904   0.0000000  )

   Crystallographic axes

     site n.     atom                  positions (cryst. coord.)
         1           H   tau(   1) = (  0.4666667  0.5333333  0.4500000  )
         2           H   tau(   2) = (  0.4666667  0.5333333  0.5252072  )
         3           C   tau(   3) = (  0.0000000  0.0000000  0.0000000  )
         4           C   tau(   4) = (  0.0666667  0.1333333  0.0000000  )
         5           C   tau(   5) = (  0.0000000  0.2000000  0.0000000  )
         6           C   tau(   6) = (  0.0666667  0.3333333  0.0000000  )
         7           C   tau(   7) = (  0.0000000  0.4000000  0.0000000  )
         8           C   tau(   8) = (  0.0666667  0.5333333  0.0000000  )
         9           C   tau(   9) = (  0.0000000  0.6000000  0.0000000  )
        10           C   tau(  10) = (  0.0666667  0.7333333  0.0000000  )
        11           C   tau(  11) = (  0.0000000  0.8000000  0.0000000  )
        12           C   tau(  12) = (  0.0666667  0.9333333  0.0000000  )
        13           C   tau(  13) = (  0.2000000  0.0000000  0.0000000  )
        14           C   tau(  14) = (  0.2666667  0.1333333  0.0000000  )
        15           C   tau(  15) = (  0.2000000  0.2000000  0.0000000  )
        16           C   tau(  16) = (  0.2666667  0.3333333  0.0000000  )
        17           C   tau(  17) = (  0.2000000  0.4000000  0.0000000  )
        18           C   tau(  18) = (  0.2666667  0.5333333  0.0000000  )
        19           C   tau(  19) = (  0.2000000  0.6000000  0.0000000  )
        20           C   tau(  20) = (  0.2666667  0.7333333  0.0000000  )
        21           C   tau(  21) = (  0.2000000  0.8000000  0.0000000  )
        22           C   tau(  22) = (  0.2666667  0.9333333  0.0000000  )
        23           C   tau(  23) = (  0.4000000  0.0000000  0.0000000  )
        24           C   tau(  24) = (  0.4666667  0.1333333  0.0000000  )
        25           C   tau(  25) = (  0.4000000  0.2000000  0.0000000  )
        26           C   tau(  26) = (  0.4666667  0.3333333  0.0000000  )
        27           C   tau(  27) = (  0.4000000  0.4000000  0.0000000  )
        28           Cu  tau(  28) = (  0.4666667  0.5333333  0.0000000  )
        29           C   tau(  29) = (  0.4000000  0.6000000  0.0000000  )
        30           C   tau(  30) = (  0.4666667  0.7333333  0.0000000  )
        31           C   tau(  31) = (  0.4000000  0.8000000  0.0000000  )
        32           C   tau(  32) = (  0.4666667  0.9333333  0.0000000  )
        33           C   tau(  33) = (  0.6000000  0.0000000  0.0000000  )
        34           C   tau(  34) = (  0.6666667  0.1333333  0.0000000  )
        35           C   tau(  35) = (  0.6000000  0.2000000  0.0000000  )
        36           C   tau(  36) = (  0.6666667  0.3333333  0.0000000  )
        37           C   tau(  37) = (  0.6000000  0.4000000  0.0000000  )
        38           C   tau(  38) = (  0.6666667  0.5333333  0.0000000  )
        39           C   tau(  39) = (  0.6000000  0.6000000  0.0000000  )
        40           C   tau(  40) = (  0.6666667  0.7333333  0.0000000  )
        41           C   tau(  41) = (  0.6000000  0.8000000  0.0000000  )
        42           C   tau(  42) = (  0.6666667  0.9333333  0.0000000  )
        43           C   tau(  43) = (  0.8000000  0.0000000  0.0000000  )
        44           C   tau(  44) = (  0.8666667  0.1333333  0.0000000  )
        45           C   tau(  45) = (  0.8000000  0.2000000  0.0000000  )
        46           C   tau(  46) = (  0.8666667  0.3333333  0.0000000  )
        47           C   tau(  47) = (  0.8000000  0.4000000  0.0000000  )
        48           C   tau(  48) = (  0.8666667  0.5333333  0.0000000  )
        49           C   tau(  49) = (  0.8000000  0.6000000  0.0000000  )
        50           C   tau(  50) = (  0.8666667  0.7333333  0.0000000  )
        51           C   tau(  51) = (  0.8000000  0.8000000  0.0000000  )
        52           C   tau(  52) = (  0.8666667  0.9333333  0.0000000  )

     number of k points=     1  Marzari-Vanderbilt smearing, width (Ry)=  0.0010
                       cart. coord. in units 2pi/alat
        k(    1) = (   0.0000000   0.0000000   0.0000000), wk =   1.0000000

                       cryst. coord.
        k(    1) = (   0.0000000   0.0000000   0.0000000), wk =   1.0000000

     Dense  grid:  1626001 G-vectors     FFT dimensions: ( 180, 180, 135)

     Smooth grid:   702581 G-vectors     FFT dimensions: ( 125, 125, 108)

     Dynamical RAM for                 wfc:      28.14 MB

     Dynamical RAM for     wfc (w. buffer):      84.42 MB

     Dynamical RAM for           str. fact:      12.41 MB

     Dynamical RAM for           local pot:       0.00 MB

     Dynamical RAM for          nlocal pot:      92.46 MB

     Dynamical RAM for                qrad:      19.73 MB

     Dynamical RAM for          rho,v,vnew:      58.92 MB

     Dynamical RAM for               rhoin:      19.64 MB

     Dynamical RAM for            rho*nmix:     132.32 MB

     Dynamical RAM for           G-vectors:      16.40 MB

     Dynamical RAM for          h,s,v(r/c):      11.63 MB

     Dynamical RAM for          <psi|beta>:       0.80 MB

     Dynamical RAM for                 psi:     112.56 MB

     Dynamical RAM for                hpsi:     112.56 MB

     Dynamical RAM for                spsi:     112.56 MB

     Dynamical RAM for      wfcinit/wfcrot:      93.45 MB

     Dynamical RAM for           addusdens:     975.89 MB

     Estimated static dynamical RAM per process >     486.96 MB

     Estimated max dynamical RAM per process >       1.43 GB

     Estimated total dynamical RAM >       8.57 GB
     Generating pointlists ...
     new r_m :   0.0252 (alat units)  0.5862 (a.u.) for type    1
     new r_m :   0.0476 (alat units)  1.1095 (a.u.) for type    2
     new r_m :   0.0476 (alat units)  1.1095 (a.u.) for type    3

     Check: negative core charge=   -0.000002

     Initial potential from superposition of free atoms

     starting charge  208.80532, renormalised to  209.00000

     negative rho (up, down):  7.054E-05 9.193E-03


---------------------------------------------------------------------------------
Carrying out rVV10 run using the following parameters:
Nqs =      20    Nr_points =    1024   r_max =   100.000
b_value =  6.30000    beta =  0.00901
     q_mesh =  0.00010000  0.00030000  0.00058939  0.00100810
               0.00161396  0.00249058  0.00375900  0.00559430
               0.00824984  0.01209221  0.01765183  0.02569619
               0.03733578  0.05417739  0.07854596  0.11380545
               0.16482331  0.23864234  0.34545298  0.50000000

Gradients computed in Reciprocal space

---------------------------------------------------------------------------------


     Starting wfcs are  207 randomized atomic wfcs

     total cpu time spent up to now is       80.9 secs

     Self-consistent Calculation

     iteration #  1     ecut=    70.00 Ry     beta= 0.70
     Davidson diagonalization with overlap
     ethr =  1.00E-02,  avg # of iterations =  2.5

     negative rho (up, down):  1.314E-04 9.672E-03

     total cpu time spent up to now is      238.3 secs

     total energy              =    -726.91863069 Ry
     Harris-Foulkes estimate   =    -734.96442769 Ry
     estimated scf accuracy    <      14.81024719 Ry

     total magnetization       =     7.00 Bohr mag/cell
     absolute magnetization    =     7.38 Bohr mag/cell

     iteration #  2     ecut=    70.00 Ry     beta= 0.70
     Davidson diagonalization with overlap
     ethr =  7.09E-03,  avg # of iterations =  4.5

     negative rho (up, down):  1.386E-04 8.388E-03

     total cpu time spent up to now is      392.2 secs

     total energy              =    -726.85227259 Ry
     Harris-Foulkes estimate   =    -745.90181611 Ry
     estimated scf accuracy    <      52.25771678 Ry

     total magnetization       =     1.22 Bohr mag/cell
     absolute magnetization    =     1.81 Bohr mag/cell

     iteration #  3     ecut=    70.00 Ry     beta= 0.70
     Davidson diagonalization with overlap
     ethr =  7.09E-03,  avg # of iterations =  4.0

     negative rho (up, down):  1.676E-04 7.397E-03

     total cpu time spent up to now is      523.4 secs

     total energy              =    -731.89712642 Ry
     Harris-Foulkes estimate   =    -736.57205673 Ry
     estimated scf accuracy    <      13.61802709 Ry

     total magnetization       =     3.00 Bohr mag/cell
     absolute magnetization    =     3.22 Bohr mag/cell

     iteration #  4     ecut=    70.00 Ry     beta= 0.70
     Davidson diagonalization with overlap
     ethr =  6.52E-03,  avg # of iterations =  2.5

     negative rho (up, down):  2.106E-04 4.970E-03

     total cpu time spent up to now is      634.0 secs

     total energy              =    -733.78972797 Ry
     Harris-Foulkes estimate   =    -734.87030898 Ry
     estimated scf accuracy    <       4.72197030 Ry

     total magnetization       =     3.00 Bohr mag/cell
     absolute magnetization    =     3.16 Bohr mag/cell

     iteration #  5     ecut=    70.00 Ry     beta= 0.70
     Davidson diagonalization with overlap
     ethr =  2.26E-03,  avg # of iterations =  2.0

     negative rho (up, down):  2.404E-04 8.337E-03

     total cpu time spent up to now is      746.8 secs

     total energy              =    -734.29817537 Ry
     Harris-Foulkes estimate   =    -735.09141820 Ry
     estimated scf accuracy    <       3.77671067 Ry

     total magnetization       =     1.00 Bohr mag/cell
     absolute magnetization    =     1.42 Bohr mag/cell

     iteration #  6     ecut=    70.00 Ry     beta= 0.70
     Davidson diagonalization with overlap
     ethr =  1.81E-03,  avg # of iterations =  2.0

     negative rho (up, down):  3.210E-04 1.466E-02

     total cpu time spent up to now is      855.7 secs

     total energy              =    -734.71635864 Ry
     Harris-Foulkes estimate   =    -734.75940515 Ry
     estimated scf accuracy    <       0.12808595 Ry

     total magnetization       =     1.00 Bohr mag/cell
     absolute magnetization    =     1.31 Bohr mag/cell

     iteration #  7     ecut=    70.00 Ry     beta= 0.70
     Davidson diagonalization with overlap
     ethr =  6.13E-05,  avg # of iterations =  8.5

     negative rho (up, down):  4.349E-04 1.066E-02

     total cpu time spent up to now is      999.9 secs

     total energy              =    -734.72941836 Ry
     Harris-Foulkes estimate   =    -734.77997992 Ry
     estimated scf accuracy    <       0.16301391 Ry

     total magnetization       =     1.00 Bohr mag/cell
     absolute magnetization    =     1.23 Bohr mag/cell

     iteration #  8     ecut=    70.00 Ry     beta= 0.70
     Davidson diagonalization with overlap
     ethr =  6.13E-05,  avg # of iterations =  3.5

     negative rho (up, down):  4.941E-04 5.888E-03

     total cpu time spent up to now is     1125.7 secs

     total energy              =    -734.74956941 Ry
     Harris-Foulkes estimate   =    -734.76665010 Ry
     estimated scf accuracy    <       0.07320879 Ry

     total magnetization       =     1.00 Bohr mag/cell
     absolute magnetization    =     1.19 Bohr mag/cell

     iteration #  9     ecut=    70.00 Ry     beta= 0.70
     Davidson diagonalization with overlap
     ethr =  3.50E-05,  avg # of iterations = 11.0

     negative rho (up, down):  5.678E-04 2.630E-03

     total cpu time spent up to now is     1243.2 secs

     total energy              =    -734.75576667 Ry
     Harris-Foulkes estimate   =    -734.76031317 Ry
     estimated scf accuracy    <       0.03673808 Ry

     total magnetization       =     1.00 Bohr mag/cell
     absolute magnetization    =     1.16 Bohr mag/cell

     iteration # 10     ecut=    70.00 Ry     beta= 0.70
     Davidson diagonalization with overlap
     ethr =  1.76E-05,  avg # of iterations =  1.5

     negative rho (up, down):  5.760E-04 2.278E-03

     total cpu time spent up to now is     1351.7 secs

     total energy              =    -734.75781373 Ry
     Harris-Foulkes estimate   =    -734.75804953 Ry
     estimated scf accuracy    <       0.00441684 Ry

     total magnetization       =     1.00 Bohr mag/cell
     absolute magnetization    =     1.11 Bohr mag/cell

     iteration # 11     ecut=    70.00 Ry     beta= 0.70
     Davidson diagonalization with overlap
     ethr =  2.11E-06,  avg # of iterations =  4.0

     negative rho (up, down):  5.762E-04 2.171E-03

     total cpu time spent up to now is     1462.2 secs

     total energy              =    -734.75791878 Ry
     Harris-Foulkes estimate   =    -734.75813540 Ry
     estimated scf accuracy    <       0.00272942 Ry

     total magnetization       =     1.00 Bohr mag/cell
     absolute magnetization    =     1.10 Bohr mag/cell

     iteration # 12     ecut=    70.00 Ry     beta= 0.70
     Davidson diagonalization with overlap
     ethr =  1.31E-06,  avg # of iterations =  1.5

     negative rho (up, down):  5.732E-04 1.733E-03

     total cpu time spent up to now is     1571.5 secs

     total energy              =    -734.75801172 Ry
     Harris-Foulkes estimate   =    -734.75806471 Ry
     estimated scf accuracy    <       0.00061918 Ry

     total magnetization       =     1.00 Bohr mag/cell
     absolute magnetization    =     1.09 Bohr mag/cell

     iteration # 13     ecut=    70.00 Ry     beta= 0.70
     Davidson diagonalization with overlap
     ethr =  2.96E-07,  avg # of iterations =  2.0

     negative rho (up, down):  5.709E-04 1.543E-03

     total cpu time spent up to now is     1673.4 secs

     total energy              =    -734.75806126 Ry
     Harris-Foulkes estimate   =    -734.75807148 Ry
     estimated scf accuracy    <       0.00024940 Ry

     total magnetization       =     1.00 Bohr mag/cell
     absolute magnetization    =     1.08 Bohr mag/cell

     iteration # 14     ecut=    70.00 Ry     beta= 0.70
     Davidson diagonalization with overlap
     ethr =  1.19E-07,  avg # of iterations =  1.5

     negative rho (up, down):  5.668E-04 1.440E-03

     total cpu time spent up to now is     1776.5 secs

     total energy              =    -734.75806726 Ry
     Harris-Foulkes estimate   =    -734.75807077 Ry
     estimated scf accuracy    <       0.00006812 Ry

     total magnetization       =     1.00 Bohr mag/cell
     absolute magnetization    =     1.08 Bohr mag/cell

     iteration # 15     ecut=    70.00 Ry     beta= 0.70
     Davidson diagonalization with overlap
     ethr =  3.26E-08,  avg # of iterations =  2.0

     negative rho (up, down):  5.659E-04 1.438E-03

     total cpu time spent up to now is     1883.3 secs

     total energy              =    -734.75807237 Ry
     Harris-Foulkes estimate   =    -734.75807309 Ry
     estimated scf accuracy    <       0.00002597 Ry

     total magnetization       =     1.00 Bohr mag/cell
     absolute magnetization    =     1.07 Bohr mag/cell

     iteration # 16     ecut=    70.00 Ry     beta= 0.70
     Davidson diagonalization with overlap
     ethr =  1.24E-08,  avg # of iterations =  1.5

     negative rho (up, down):  5.648E-04 1.450E-03

     total cpu time spent up to now is     1988.2 secs

     total energy              =    -734.75807317 Ry
     Harris-Foulkes estimate   =    -734.75807348 Ry
     estimated scf accuracy    <       0.00002959 Ry

     total magnetization       =     1.00 Bohr mag/cell
     absolute magnetization    =     1.07 Bohr mag/cell

     iteration # 17     ecut=    70.00 Ry     beta= 0.70
     Davidson diagonalization with overlap
     ethr =  1.24E-08,  avg # of iterations =  1.0

     negative rho (up, down):  5.638E-04 1.465E-03

     total cpu time spent up to now is     2092.5 secs

     total energy              =    -734.75807397 Ry
     Harris-Foulkes estimate   =    -734.75807376 Ry
     estimated scf accuracy    <       0.00000330 Ry

     total magnetization       =     1.00 Bohr mag/cell
     absolute magnetization    =     1.07 Bohr mag/cell

     iteration # 18     ecut=    70.00 Ry     beta= 0.70
     Davidson diagonalization with overlap
     ethr =  1.58E-09,  avg # of iterations =  3.0

     negative rho (up, down):  5.636E-04 1.474E-03

     total cpu time spent up to now is     2204.3 secs

     total energy              =    -734.75807448 Ry
     Harris-Foulkes estimate   =    -734.75807438 Ry
     estimated scf accuracy    <       0.00000139 Ry

     total magnetization       =     1.00 Bohr mag/cell
     absolute magnetization    =     1.07 Bohr mag/cell

     iteration # 19     ecut=    70.00 Ry     beta= 0.70
     Davidson diagonalization with overlap
     ethr =  6.66E-10,  avg # of iterations =  2.0

     negative rho (up, down):  5.635E-04 1.477E-03

     total cpu time spent up to now is     2307.9 secs

     total energy              =    -734.75807463 Ry
     Harris-Foulkes estimate   =    -734.75807458 Ry
     estimated scf accuracy    <       0.00000265 Ry

     total magnetization       =     1.00 Bohr mag/cell
     absolute magnetization    =     1.06 Bohr mag/cell

     iteration # 20     ecut=    70.00 Ry     beta= 0.70
     Davidson diagonalization with overlap
     ethr =  6.66E-10,  avg # of iterations =  1.5

     negative rho (up, down):  5.636E-04 1.470E-03

     total cpu time spent up to now is     2413.6 secs

     total energy              =    -734.75807464 Ry
     Harris-Foulkes estimate   =    -734.75807469 Ry
     estimated scf accuracy    <       0.00000420 Ry

     total magnetization       =     1.00 Bohr mag/cell
     absolute magnetization    =     1.06 Bohr mag/cell

     iteration # 21     ecut=    70.00 Ry     beta= 0.70
     Davidson diagonalization with overlap
     ethr =  6.66E-10,  avg # of iterations =  1.5

     negative rho (up, down):  5.636E-04 1.469E-03

     total cpu time spent up to now is     2519.4 secs

     total energy              =    -734.75807471 Ry
     Harris-Foulkes estimate   =    -734.75807473 Ry
     estimated scf accuracy    <       0.00000113 Ry

     total magnetization       =     1.00 Bohr mag/cell
     absolute magnetization    =     1.06 Bohr mag/cell

     iteration # 22     ecut=    70.00 Ry     beta= 0.70
     Davidson diagonalization with overlap
     ethr =  5.40E-10,  avg # of iterations =  1.0

     negative rho (up, down):  5.636E-04 1.471E-03

     total cpu time spent up to now is     2624.1 secs

     total energy              =    -734.75807471 Ry
     Harris-Foulkes estimate   =    -734.75807474 Ry
     estimated scf accuracy    <       0.00000108 Ry

     total magnetization       =     1.00 Bohr mag/cell
     absolute magnetization    =     1.06 Bohr mag/cell

     iteration # 23     ecut=    70.00 Ry     beta= 0.70
     Davidson diagonalization with overlap
     ethr =  5.15E-10,  avg # of iterations =  1.5

     negative rho (up, down):  5.637E-04 1.472E-03

     Magnetic moment per site:
     atom:    1    charge:    0.2114    magn:   -0.0000    constr:    0.0000
     atom:    2    charge:    0.2112    magn:   -0.0000    constr:    0.0000
     atom:    3    charge:    1.7158    magn:    0.0016    constr:    0.0000
     atom:    4    charge:    1.7153    magn:    0.0018    constr:    0.0000
     atom:    5    charge:    1.7170    magn:   -0.0000    constr:    0.0000
     atom:    6    charge:    1.7146    magn:   -0.0000    constr:    0.0000
     atom:    7    charge:    1.7170    magn:   -0.0000    constr:    0.0000
     atom:    8    charge:    1.7153    magn:    0.0018    constr:    0.0000
     atom:    9    charge:    1.7158    magn:    0.0016    constr:    0.0000
     atom:   10    charge:    1.7170    magn:   -0.0009    constr:    0.0000
     atom:   11    charge:    1.7160    magn:    0.0006    constr:    0.0000
     atom:   12    charge:    1.7170    magn:   -0.0009    constr:    0.0000
     atom:   13    charge:    1.7160    magn:    0.0006    constr:    0.0000
     atom:   14    charge:    1.7169    magn:   -0.0010    constr:    0.0000
     atom:   15    charge:    1.7130    magn:    0.0072    constr:    0.0000
     atom:   16    charge:    1.7108    magn:    0.0132    constr:    0.0000
     atom:   17    charge:    1.7214    magn:    0.0030    constr:    0.0000
     atom:   18    charge:    1.7108    magn:    0.0132    constr:    0.0000
     atom:   19    charge:    1.7130    magn:    0.0072    constr:    0.0000
     atom:   20    charge:    1.7169    magn:   -0.0010    constr:    0.0000
     atom:   21    charge:    1.7160    magn:    0.0006    constr:    0.0000
     atom:   22    charge:    1.7170    magn:   -0.0009    constr:    0.0000
     atom:   23    charge:    1.7158    magn:    0.0016    constr:    0.0000
     atom:   24    charge:    1.7153    magn:    0.0018    constr:    0.0000
     atom:   25    charge:    1.7130    magn:    0.0072    constr:    0.0000
     atom:   26    charge:    1.7108    magn:    0.0132    constr:    0.0000
     atom:   27    charge:    1.8172    magn:    0.0796    constr:    0.0000
     atom:   28    charge:    7.0284    magn:    0.1548    constr:    0.0000
     atom:   29    charge:    1.8175    magn:    0.0794    constr:    0.0000
     atom:   30    charge:    1.7108    magn:    0.0132    constr:    0.0000
     atom:   31    charge:    1.7130    magn:    0.0072    constr:    0.0000
     atom:   32    charge:    1.7153    magn:    0.0018    constr:    0.0000
     atom:   33    charge:    1.7170    magn:   -0.0000    constr:    0.0000
     atom:   34    charge:    1.7153    magn:    0.0000    constr:    0.0000
     atom:   35    charge:    1.7169    magn:   -0.0000    constr:    0.0000
     atom:   36    charge:    1.7146    magn:   -0.0000    constr:    0.0000
     atom:   37    charge:    1.7214    magn:    0.0030    constr:    0.0000
     atom:   38    charge:    1.7108    magn:    0.0132    constr:    0.0000
     atom:   39    charge:    1.8172    magn:    0.0796    constr:    0.0000
     atom:   40    charge:    1.7108    magn:    0.0132    constr:    0.0000
     atom:   41    charge:    1.7214    magn:    0.0030    constr:    0.0000
     atom:   42    charge:    1.7146    magn:   -0.0000    constr:    0.0000
     atom:   43    charge:    1.7170    magn:   -0.0000    constr:    0.0000
     atom:   44    charge:    1.7153    magn:    0.0000    constr:    0.0000
     atom:   45    charge:    1.7211    magn:   -0.0007    constr:    0.0000
     atom:   46    charge:    1.7153    magn:    0.0000    constr:    0.0000
     atom:   47    charge:    1.7169    magn:   -0.0000    constr:    0.0000
     atom:   48    charge:    1.7153    magn:    0.0018    constr:    0.0000
     atom:   49    charge:    1.7130    magn:    0.0072    constr:    0.0000
     atom:   50    charge:    1.7169    magn:   -0.0010    constr:    0.0000
     atom:   51    charge:    1.7130    magn:    0.0072    constr:    0.0000
     atom:   52    charge:    1.7153    magn:    0.0018    constr:    0.0000

     total cpu time spent up to now is     2726.4 secs

     End of self-consistent calculation

 ------ SPIN UP ------------


          k = 0.0000 0.0000 0.0000 ( 87777 PWs)   bands (ev):

   -19.8485 -19.0066 -19.0063 -18.9109 -18.9109 -18.8490 -18.7735 -17.1771
   -17.1770 -17.1393 -17.0955 -17.0953 -16.8171 -16.3363 -16.3362 -16.1903
   -16.1902 -16.1680 -15.7770 -14.4335 -14.4334 -14.1374 -14.0415 -14.0414
   -13.5846 -13.1743 -13.1743 -13.0875 -12.9452 -12.9451 -12.6400 -12.3255
   -12.3254 -11.7220 -11.6163 -11.6162 -11.1953 -10.9468 -10.9467  -9.5327
    -9.3718  -9.3718  -9.2503  -9.2406  -9.2406  -9.2313  -9.1213  -9.1207
    -9.0688  -9.0687  -8.9700  -8.7250  -8.7249  -7.9642  -7.9041  -7.8468
    -7.6717  -7.6716  -7.5417  -7.5416  -6.9476  -6.8485  -6.8484  -6.8257
    -6.7967  -6.7228  -6.7226  -6.7193  -6.6262  -6.6261  -6.5815  -6.5748
    -6.5748  -6.5474  -6.5290  -6.4059  -6.4058  -5.6207  -5.6207  -5.0362
    -5.0260  -4.9641  -4.8932  -4.8932  -4.7694  -4.7325  -4.7325  -4.5485
    -4.5484  -4.4770  -3.8590  -3.8588  -3.8256  -3.8255  -3.7896  -3.6474
    -3.6472  -3.4155  -1.8905  -1.8335  -1.8335  -1.7409  -1.7408  -1.2308
    -0.8480  -0.8480   0.9041   0.9409   0.9409   1.0874   1.0875   1.4890
     2.4740   2.7869   2.7870   2.8307   2.9241   2.9242   3.3544   3.5996
     3.5996   3.7315   3.7315   3.7466   3.7514   3.8790

     occupation numbers 
     1.0000   1.0000   1.0000   1.0000   1.0000   1.0000   1.0000   1.0000
     1.0000   1.0000   1.0000   1.0000   1.0000   1.0000   1.0000   1.0000
     1.0000   1.0000   1.0000   1.0000   1.0000   1.0000   1.0000   1.0000
     1.0000   1.0000   1.0000   1.0000   1.0000   1.0000   1.0000   1.0000
     1.0000   1.0000   1.0000   1.0000   1.0000   1.0000   1.0000   1.0000
     1.0000   1.0000   1.0000   1.0000   1.0000   1.0000   1.0000   1.0000
     1.0000   1.0000   1.0000   1.0000   1.0000   1.0000   1.0000   1.0000
     1.0000   1.0000   1.0000   1.0000   1.0000   1.0000   1.0000   1.0000
     1.0000   1.0000   1.0000   1.0000   1.0000   1.0000   1.0000   1.0000
     1.0000   1.0000   1.0000   1.0000   1.0000   1.0000   1.0000   1.0000
     1.0000   1.0000   1.0000   1.0000   1.0000   1.0000   1.0000   1.0000
     1.0000   1.0000   1.0000   1.0000   1.0000   1.0000   1.0000   1.0000
     1.0000   1.0000   1.0000   1.0000   1.0000   1.0000   1.0000   1.0000
     0.5002   0.4998   0.0000   0.0000   0.0000   0.0000   0.0000   0.0000
     0.0000   0.0000   0.0000   0.0000   0.0000   0.0000   0.0000   0.0000
     0.0000   0.0000   0.0000   0.0000   0.0000   0.0000

 ------ SPIN DOWN ----------


          k = 0.0000 0.0000 0.0000 ( 87777 PWs)   bands (ev):

   -19.8234 -18.9741 -18.9736 -18.9041 -18.9040 -18.8459 -18.6982 -17.1373
   -17.1373 -17.1233 -17.0738 -17.0735 -16.7836 -16.2989 -16.2988 -16.1688
   -16.1686 -16.1611 -15.7014 -14.3433 -14.3432 -14.1132 -14.0333 -14.0333
   -13.5423 -13.1488 -13.1488 -13.0745 -12.9085 -12.9083 -12.5751 -12.2142
   -12.2141 -11.7023 -11.5817 -11.5816 -11.0900 -10.8168 -10.8166  -9.4918
    -9.3523  -9.3522  -9.2427  -9.2318  -9.2318  -9.2189  -9.0123  -9.0122
    -8.9497  -8.9486  -8.8453  -8.6836  -8.6834  -7.9540  -7.8799  -7.8249
    -7.6228  -7.6227  -7.5241  -7.5240  -6.8977  -6.8474  -6.8473  -6.7962
    -6.7851  -6.7097  -6.7095  -6.6819  -6.6042  -6.6041  -6.5737  -6.5709
    -6.5708  -6.5474  -6.5229  -6.3651  -6.3649  -5.5932  -5.5930  -5.0172
    -4.9543  -4.8733  -4.8733  -4.8124  -4.7645  -4.7314  -4.7314  -4.5388
    -4.5386  -4.4609  -3.8548  -3.8547  -3.8001  -3.8000  -3.7905  -3.6290
    -3.6288  -3.3775  -1.8866  -1.8314  -1.8313  -1.7188  -1.7187  -1.1948
    -0.4475  -0.4450   0.9072   0.9443   0.9443   1.1105   1.1108   1.5011
     2.4752   2.7890   2.7891   2.8318   2.9515   2.9517   3.3619   3.6005
     3.6005   3.7306   3.7306   3.7505   3.7540   3.8918

     occupation numbers 
     1.0000   1.0000   1.0000   1.0000   1.0000   1.0000   1.0000   1.0000
     1.0000   1.0000   1.0000   1.0000   1.0000   1.0000   1.0000   1.0000
     1.0000   1.0000   1.0000   1.0000   1.0000   1.0000   1.0000   1.0000
     1.0000   1.0000   1.0000   1.0000   1.0000   1.0000   1.0000   1.0000
     1.0000   1.0000   1.0000   1.0000   1.0000   1.0000   1.0000   1.0000
     1.0000   1.0000   1.0000   1.0000   1.0000   1.0000   1.0000   1.0000
     1.0000   1.0000   1.0000   1.0000   1.0000   1.0000   1.0000   1.0000
     1.0000   1.0000   1.0000   1.0000   1.0000   1.0000   1.0000   1.0000
     1.0000   1.0000   1.0000   1.0000   1.0000   1.0000   1.0000   1.0000
     1.0000   1.0000   1.0000   1.0000   1.0000   1.0000   1.0000   1.0000
     1.0000   1.0000   1.0000   1.0000   1.0000   1.0000   1.0000   1.0000
     1.0000   1.0000   1.0000   1.0000   1.0000   1.0000   1.0000   1.0000
     1.0000   1.0000   1.0000   1.0000   1.0000   1.0000   1.0000   1.0000
     0.0000   0.0000   0.0000   0.0000   0.0000   0.0000   0.0000   0.0000
     0.0000   0.0000   0.0000   0.0000   0.0000   0.0000   0.0000   0.0000
     0.0000   0.0000   0.0000   0.0000   0.0000   0.0000

     the Fermi energy is    -0.8461 ev

!    total energy              =    -734.75807456 Ry
     Harris-Foulkes estimate   =    -734.75807475 Ry
     estimated scf accuracy    <       0.00000040 Ry

     The total energy is the sum of the following terms:

     one-electron contribution =   -2474.62274642 Ry
     hartree contribution      =    1292.98453032 Ry
     xc contribution           =    -275.91880440 Ry
     ewald contribution        =     722.79927413 Ry
     smearing contrib. (-TS)   =      -0.00032818 Ry

     total magnetization       =     1.00 Bohr mag/cell
     absolute magnetization    =     1.06 Bohr mag/cell

     convergence has been achieved in  23 iterations

     Writing output data file cobre-top-4.5.save/

     init_run     :     78.33s CPU     79.73s WALL (       1 calls)
     electrons    :   2598.42s CPU   2645.63s WALL (       1 calls)

     Called by init_run:
     wfcinit      :     49.24s CPU     49.50s WALL (       1 calls)
     wfcinit:atom :      0.07s CPU      0.10s WALL (       2 calls)
     wfcinit:wfcr :     48.79s CPU     48.96s WALL (       2 calls)
     potinit      :     11.91s CPU     12.39s WALL (       1 calls)
     hinit0       :      7.05s CPU      7.09s WALL (       1 calls)

     Called by electrons:
     c_bands      :   1606.27s CPU   1614.43s WALL (      23 calls)
     sum_band     :    586.29s CPU    601.82s WALL (      23 calls)
     v_of_rho     :    191.40s CPU    201.63s WALL (      24 calls)
     v_h          :      2.14s CPU      2.21s WALL (      24 calls)
     v_xc         :    189.25s CPU    199.42s WALL (      24 calls)
     newd         :    212.91s CPU    226.81s WALL (      24 calls)
     mix_rho      :     11.86s CPU     12.05s WALL (      23 calls)

     Called by c_bands:
     init_us_2    :      5.08s CPU      5.11s WALL (      94 calls)
     cegterg      :   1594.24s CPU   1602.33s WALL (      46 calls)

     Called by sum_band:
     sum_band:bec :      0.04s CPU      0.04s WALL (      46 calls)
     addusdens    :    383.36s CPU    397.56s WALL (      23 calls)

     Called by *egterg:
     h_psi        :    870.57s CPU    876.25s WALL (     180 calls)
     s_psi        :    282.95s CPU    283.08s WALL (     180 calls)
     g_psi        :      0.82s CPU      0.82s WALL (     132 calls)
     cdiaghg      :     11.99s CPU     11.99s WALL (     178 calls)
     cegterg:over :    190.35s CPU    190.45s WALL (     132 calls)
     cegterg:upda :    109.48s CPU    110.11s WALL (     132 calls)
     cegterg:last :     83.12s CPU     83.15s WALL (      46 calls)

     Called by h_psi:
     h_psi:pot    :    869.66s CPU    874.26s WALL (     180 calls)
     h_psi:calbec :    283.05s CPU    283.15s WALL (     180 calls)
     vloc_psi     :    303.42s CPU    307.80s WALL (     180 calls)
     add_vuspsi   :    283.18s CPU    283.31s WALL (     180 calls)

     General routines
     calbec       :    406.46s CPU    406.62s WALL (     226 calls)
     fft          :    112.62s CPU    116.76s WALL (    1794 calls)
     ffts         :      2.10s CPU      2.15s WALL (      94 calls)
     fftw         :    319.38s CPU    324.17s WALL (   32112 calls)
     interpolate  :      4.88s CPU      5.00s WALL (      48 calls)

     Parallel routines
     fft_scatt_xy :     86.10s CPU     86.92s WALL (   34000 calls)
     fft_scatt_yz :    124.93s CPU    131.36s WALL (   34000 calls)

     PWSCF        :  44m38.24s CPU  45m27.23s WALL


   This run was terminated on:  23:33:18   4Sep2022            

=------------------------------------------------------------------------------=
   JOB DONE.
=------------------------------------------------------------------------------=
