
     Program PWSCF v.6.4.1 starts on  5Sep2022 at  0:58:25 

     This program is part of the open-source Quantum ESPRESSO suite
     for quantum simulation of materials; please cite
         "P. Giannozzi et al., J. Phys.:Condens. Matter 21 395502 (2009);
         "P. Giannozzi et al., J. Phys.:Condens. Matter 29 465901 (2017);
          URL http://www.quantum-espresso.org", 
     in publications or presentations arising from this work. More details at
     http://www.quantum-espresso.org/quote

     Parallel version (MPI), running on     6 processors

     MPI processes distributed on     1 nodes
     R & G space division:  proc/nbgrp/npool/nimage =       6
     Reading input from distance-3.0.in

     Current dimensions of program PWSCF are:
     Max number of different atomic species (ntypx) = 10
     Max number of k-points (npk) =  40000
     Max angular momentum in pseudopotentials (lmaxx) =  3

     IMPORTANT: XC functional enforced from input :
     Exchange-correlation      = RVV10 ( 1  4 13  4 3 0)
     Any further DFT definition will be discarded
     Please, verify this is what you really want

               file H.pbe-rrkjus.UPF: wavefunction(s)  1S renormalized
               file Cu.pbe-dn-rrkjus_psl.1.0.0.UPF: wavefunction(s)  3D renormalized

     Subspace diagonalization in iterative solution of the eigenvalue problem:
     a serial algorithm will be used


     Parallelization info
     --------------------
     sticks:   dense  smooth     PW     G-vecs:    dense   smooth      PW
     Min        3051    1746    432               270999   117096   14629
     Max        3053    1747    437               271001   117099   14630
     Sum       18313   10477   2611              1626001   702581   87777



     bravais-lattice index     =            4
     lattice parameter (alat)  =      23.2937  a.u.
     unit-cell volume          =    8879.8548 (a.u.)^3
     number of atoms/cell      =           52
     number of atomic types    =            3
     number of electrons       =       209.00
     number of Kohn-Sham states=          126
     kinetic-energy cutoff     =      70.0000  Ry
     charge density cutoff     =     490.0000  Ry
     convergence threshold     =      1.0E-06
     mixing beta               =       0.7000
     number of iterations used =            8  plain     mixing
     Exchange-correlation      = RVV10 ( 1  4 13  4 3 0)

     celldm(1)=  23.293684  celldm(2)=   0.000000  celldm(3)=   0.811261
     celldm(4)=   0.000000  celldm(5)=   0.000000  celldm(6)=   0.000000

     crystal axes: (cart. coord. in units of alat)
               a(1) = (   1.000000   0.000000   0.000000 )  
               a(2) = (  -0.500000   0.866025   0.000000 )  
               a(3) = (   0.000000   0.000000   0.811261 )  

     reciprocal axes: (cart. coord. in units 2 pi/alat)
               b(1) = (  1.000000  0.577350 -0.000000 )  
               b(2) = (  0.000000  1.154701  0.000000 )  
               b(3) = (  0.000000 -0.000000  1.232649 )  


     PseudoPot. # 1 for H  read from file:
     /home/cristian/Escritorio/Proyecto_Grafeno/pseudopotenciales/H.pbe-rrkjus.UPF
     MD5 check sum: 7cc9d459525c9a0585f487a71c3c9563
     Pseudo is Ultrasoft, Zval =  1.0
     Generated by new atomic code, or converted to UPF format
     Using radial grid of 1061 points,  2 beta functions with: 
                l(1) =   0
                l(2) =   0
     Q(r) pseudized with 0 coefficients 


     PseudoPot. # 2 for C  read from file:
     /home/cristian/Escritorio/Proyecto_Grafeno/pseudopotenciales/C.pbe-n-rrkjus_psl.1.0.0.UPF
     MD5 check sum: 1fdd950c42eb37d8afe3dd2f8d12311e
     Pseudo is Ultrasoft + core correction, Zval =  4.0
     Generated using "atomic" code by A. Dal Corso v.6.3MaX
     Using radial grid of 1073 points,  4 beta functions with: 
                l(1) =   0
                l(2) =   0
                l(3) =   1
                l(4) =   1
     Q(r) pseudized with 0 coefficients 


     PseudoPot. # 3 for Cu read from file:
     /home/cristian/Escritorio/Proyecto_Grafeno/pseudopotenciales/Cu.pbe-dn-rrkjus_psl.1.0.0.UPF
     MD5 check sum: ba3d6c84e19846e79d48cdc68ff7152b
     Pseudo is Ultrasoft + core correction, Zval = 11.0
     Generated using "atomic" code by A. Dal Corso v.6.3
     Using radial grid of 1199 points,  6 beta functions with: 
                l(1) =   0
                l(2) =   0
                l(3) =   1
                l(4) =   1
                l(5) =   2
                l(6) =   2
     Q(r) pseudized with 0 coefficients 


     vdW kernel table read from file rVV10_kernel_table
     MD5 check sum: b8e2538accc0c0b3206b45ba4daaba6c

     atomic species   valence    mass     pseudopotential
        H              1.00     1.00794     H ( 1.00)
        C              4.00    12.01070     C ( 1.00)
        Cu            11.00    63.54600     Cu( 1.00)

     Starting magnetic structure 
     atomic species   magnetization
        H            0.500
        C            0.300
        Cu           0.800

      2 Sym. Ops. (no inversion) found


                                    s                        frac. trans.

      isym =  1     identity                                     

 cryst.   s( 1) = (     1          0          0      )
                  (     0          1          0      )
                  (     0          0          1      )

 cart.    s( 1) = (  1.0000000  0.0000000  0.0000000 )
                  (  0.0000000  1.0000000  0.0000000 )
                  (  0.0000000  0.0000000  1.0000000 )


      isym =  2     inv. 180 deg rotation - cryst. axis [1,1,0]  

 cryst.   s( 2) = (     0         -1          0      )
                  (    -1          0          0      )
                  (     0          0          1      )

 cart.    s( 2) = (  0.5000000 -0.8660254  0.0000000 )
                  ( -0.8660254 -0.5000000  0.0000000 )
                  (  0.0000000  0.0000000  1.0000000 )


     point group C_s (m)    
     there are  2 classes
     the character table:

       E     s    
A'     1.00  1.00
A''    1.00 -1.00

     the symmetry operations in each class and the name of the first element:

     E        1
          identity                                               
     s        2
          inv. 180 deg rotation - cryst. axis [1,1,0]            

   Cartesian axes

     site n.     atom                  positions (alat units)
         1           H   tau(   1) = (   0.2000000   0.4618802   0.2433783  )
         2           H   tau(   2) = (   0.2000000   0.4618802   0.3043910  )
         3           C   tau(   3) = (   0.0000000   0.0000000   0.0000000  )
         4           C   tau(   4) = (   0.0000000   0.1154701   0.0000000  )
         5           C   tau(   5) = (  -0.1000000   0.1732051   0.0000000  )
         6           C   tau(   6) = (  -0.1000000   0.2886751   0.0000000  )
         7           C   tau(   7) = (  -0.2000000   0.3464102   0.0000000  )
         8           C   tau(   8) = (  -0.2000000   0.4618802   0.0000000  )
         9           C   tau(   9) = (  -0.3000000   0.5196152   0.0000000  )
        10           C   tau(  10) = (  -0.3000000   0.6350853   0.0000000  )
        11           C   tau(  11) = (  -0.4000000   0.6928203   0.0000000  )
        12           C   tau(  12) = (  -0.4000000   0.8082904   0.0000000  )
        13           C   tau(  13) = (   0.2000000   0.0000000   0.0000000  )
        14           C   tau(  14) = (   0.2000000   0.1154701   0.0000000  )
        15           C   tau(  15) = (   0.1000000   0.1732051   0.0000000  )
        16           C   tau(  16) = (   0.1000000   0.2886751   0.0000000  )
        17           C   tau(  17) = (   0.0000000   0.3464102   0.0000000  )
        18           C   tau(  18) = (   0.0000000   0.4618802   0.0000000  )
        19           C   tau(  19) = (  -0.1000000   0.5196152   0.0000000  )
        20           C   tau(  20) = (  -0.1000000   0.6350853   0.0000000  )
        21           C   tau(  21) = (  -0.2000000   0.6928203   0.0000000  )
        22           C   tau(  22) = (  -0.2000000   0.8082904   0.0000000  )
        23           C   tau(  23) = (   0.4000000   0.0000000   0.0000000  )
        24           C   tau(  24) = (   0.4000000   0.1154701   0.0000000  )
        25           C   tau(  25) = (   0.3000000   0.1732051   0.0000000  )
        26           C   tau(  26) = (   0.3000000   0.2886751   0.0000000  )
        27           C   tau(  27) = (   0.2000000   0.3464102   0.0000000  )
        28           Cu  tau(  28) = (   0.2000000   0.4618802   0.0000000  )
        29           C   tau(  29) = (   0.1000000   0.5196152   0.0000000  )
        30           C   tau(  30) = (   0.1000000   0.6350853   0.0000000  )
        31           C   tau(  31) = (   0.0000000   0.6928203   0.0000000  )
        32           C   tau(  32) = (   0.0000000   0.8082904   0.0000000  )
        33           C   tau(  33) = (   0.6000000   0.0000000   0.0000000  )
        34           C   tau(  34) = (   0.6000000   0.1154701   0.0000000  )
        35           C   tau(  35) = (   0.5000000   0.1732051   0.0000000  )
        36           C   tau(  36) = (   0.5000000   0.2886751   0.0000000  )
        37           C   tau(  37) = (   0.4000000   0.3464102   0.0000000  )
        38           C   tau(  38) = (   0.4000000   0.4618802   0.0000000  )
        39           C   tau(  39) = (   0.3000000   0.5196152   0.0000000  )
        40           C   tau(  40) = (   0.3000000   0.6350853   0.0000000  )
        41           C   tau(  41) = (   0.2000000   0.6928203   0.0000000  )
        42           C   tau(  42) = (   0.2000000   0.8082904   0.0000000  )
        43           C   tau(  43) = (   0.8000000   0.0000000   0.0000000  )
        44           C   tau(  44) = (   0.8000000   0.1154701   0.0000000  )
        45           C   tau(  45) = (   0.7000000   0.1732051   0.0000000  )
        46           C   tau(  46) = (   0.7000000   0.2886751   0.0000000  )
        47           C   tau(  47) = (   0.6000000   0.3464102   0.0000000  )
        48           C   tau(  48) = (   0.6000000   0.4618802   0.0000000  )
        49           C   tau(  49) = (   0.5000000   0.5196152   0.0000000  )
        50           C   tau(  50) = (   0.5000000   0.6350853   0.0000000  )
        51           C   tau(  51) = (   0.4000000   0.6928203   0.0000000  )
        52           C   tau(  52) = (   0.4000000   0.8082904   0.0000000  )

   Crystallographic axes

     site n.     atom                  positions (cryst. coord.)
         1           H   tau(   1) = (  0.4666667  0.5333333  0.3000000  )
         2           H   tau(   2) = (  0.4666667  0.5333333  0.3752072  )
         3           C   tau(   3) = (  0.0000000  0.0000000  0.0000000  )
         4           C   tau(   4) = (  0.0666667  0.1333333  0.0000000  )
         5           C   tau(   5) = (  0.0000000  0.2000000  0.0000000  )
         6           C   tau(   6) = (  0.0666667  0.3333333  0.0000000  )
         7           C   tau(   7) = (  0.0000000  0.4000000  0.0000000  )
         8           C   tau(   8) = (  0.0666667  0.5333333  0.0000000  )
         9           C   tau(   9) = (  0.0000000  0.6000000  0.0000000  )
        10           C   tau(  10) = (  0.0666667  0.7333333  0.0000000  )
        11           C   tau(  11) = (  0.0000000  0.8000000  0.0000000  )
        12           C   tau(  12) = (  0.0666667  0.9333333  0.0000000  )
        13           C   tau(  13) = (  0.2000000  0.0000000  0.0000000  )
        14           C   tau(  14) = (  0.2666667  0.1333333  0.0000000  )
        15           C   tau(  15) = (  0.2000000  0.2000000  0.0000000  )
        16           C   tau(  16) = (  0.2666667  0.3333333  0.0000000  )
        17           C   tau(  17) = (  0.2000000  0.4000000  0.0000000  )
        18           C   tau(  18) = (  0.2666667  0.5333333  0.0000000  )
        19           C   tau(  19) = (  0.2000000  0.6000000  0.0000000  )
        20           C   tau(  20) = (  0.2666667  0.7333333  0.0000000  )
        21           C   tau(  21) = (  0.2000000  0.8000000  0.0000000  )
        22           C   tau(  22) = (  0.2666667  0.9333333  0.0000000  )
        23           C   tau(  23) = (  0.4000000  0.0000000  0.0000000  )
        24           C   tau(  24) = (  0.4666667  0.1333333  0.0000000  )
        25           C   tau(  25) = (  0.4000000  0.2000000  0.0000000  )
        26           C   tau(  26) = (  0.4666667  0.3333333  0.0000000  )
        27           C   tau(  27) = (  0.4000000  0.4000000  0.0000000  )
        28           Cu  tau(  28) = (  0.4666667  0.5333333  0.0000000  )
        29           C   tau(  29) = (  0.4000000  0.6000000  0.0000000  )
        30           C   tau(  30) = (  0.4666667  0.7333333  0.0000000  )
        31           C   tau(  31) = (  0.4000000  0.8000000  0.0000000  )
        32           C   tau(  32) = (  0.4666667  0.9333333  0.0000000  )
        33           C   tau(  33) = (  0.6000000  0.0000000  0.0000000  )
        34           C   tau(  34) = (  0.6666667  0.1333333  0.0000000  )
        35           C   tau(  35) = (  0.6000000  0.2000000  0.0000000  )
        36           C   tau(  36) = (  0.6666667  0.3333333  0.0000000  )
        37           C   tau(  37) = (  0.6000000  0.4000000  0.0000000  )
        38           C   tau(  38) = (  0.6666667  0.5333333  0.0000000  )
        39           C   tau(  39) = (  0.6000000  0.6000000  0.0000000  )
        40           C   tau(  40) = (  0.6666667  0.7333333  0.0000000  )
        41           C   tau(  41) = (  0.6000000  0.8000000  0.0000000  )
        42           C   tau(  42) = (  0.6666667  0.9333333  0.0000000  )
        43           C   tau(  43) = (  0.8000000  0.0000000  0.0000000  )
        44           C   tau(  44) = (  0.8666667  0.1333333  0.0000000  )
        45           C   tau(  45) = (  0.8000000  0.2000000  0.0000000  )
        46           C   tau(  46) = (  0.8666667  0.3333333  0.0000000  )
        47           C   tau(  47) = (  0.8000000  0.4000000  0.0000000  )
        48           C   tau(  48) = (  0.8666667  0.5333333  0.0000000  )
        49           C   tau(  49) = (  0.8000000  0.6000000  0.0000000  )
        50           C   tau(  50) = (  0.8666667  0.7333333  0.0000000  )
        51           C   tau(  51) = (  0.8000000  0.8000000  0.0000000  )
        52           C   tau(  52) = (  0.8666667  0.9333333  0.0000000  )

     number of k points=     1  Marzari-Vanderbilt smearing, width (Ry)=  0.0010
                       cart. coord. in units 2pi/alat
        k(    1) = (   0.0000000   0.0000000   0.0000000), wk =   1.0000000

                       cryst. coord.
        k(    1) = (   0.0000000   0.0000000   0.0000000), wk =   1.0000000

     Dense  grid:  1626001 G-vectors     FFT dimensions: ( 180, 180, 135)

     Smooth grid:   702581 G-vectors     FFT dimensions: ( 125, 125, 108)

     Dynamical RAM for                 wfc:      28.14 MB

     Dynamical RAM for     wfc (w. buffer):      84.42 MB

     Dynamical RAM for           str. fact:      12.41 MB

     Dynamical RAM for           local pot:       0.00 MB

     Dynamical RAM for          nlocal pot:      92.46 MB

     Dynamical RAM for                qrad:      19.73 MB

     Dynamical RAM for          rho,v,vnew:      58.92 MB

     Dynamical RAM for               rhoin:      19.64 MB

     Dynamical RAM for            rho*nmix:     132.32 MB

     Dynamical RAM for           G-vectors:      16.40 MB

     Dynamical RAM for          h,s,v(r/c):      11.63 MB

     Dynamical RAM for          <psi|beta>:       0.80 MB

     Dynamical RAM for                 psi:     112.56 MB

     Dynamical RAM for                hpsi:     112.56 MB

     Dynamical RAM for                spsi:     112.56 MB

     Dynamical RAM for      wfcinit/wfcrot:      93.45 MB

     Dynamical RAM for           addusdens:     975.89 MB

     Estimated static dynamical RAM per process >     486.96 MB

     Estimated max dynamical RAM per process >       1.43 GB

     Estimated total dynamical RAM >       8.57 GB
     Generating pointlists ...
     new r_m :   0.0252 (alat units)  0.5862 (a.u.) for type    1
     new r_m :   0.0476 (alat units)  1.1095 (a.u.) for type    2
     new r_m :   0.0476 (alat units)  1.1095 (a.u.) for type    3

     Check: negative core charge=   -0.000002

     Initial potential from superposition of free atoms

     starting charge  208.80532, renormalised to  209.00000

     negative rho (up, down):  6.250E-05 1.028E-02


---------------------------------------------------------------------------------
Carrying out rVV10 run using the following parameters:
Nqs =      20    Nr_points =    1024   r_max =   100.000
b_value =  6.30000    beta =  0.00901
     q_mesh =  0.00010000  0.00030000  0.00058939  0.00100810
               0.00161396  0.00249058  0.00375900  0.00559430
               0.00824984  0.01209221  0.01765183  0.02569619
               0.03733578  0.05417739  0.07854596  0.11380545
               0.16482331  0.23864234  0.34545298  0.50000000

Gradients computed in Reciprocal space

---------------------------------------------------------------------------------


     Starting wfcs are  207 randomized atomic wfcs

     total cpu time spent up to now is       74.0 secs

     Self-consistent Calculation

     iteration #  1     ecut=    70.00 Ry     beta= 0.70
     Davidson diagonalization with overlap
     ethr =  1.00E-02,  avg # of iterations =  2.0

     negative rho (up, down):  1.429E-04 1.083E-02

     total cpu time spent up to now is      199.7 secs

     total energy              =    -727.56009684 Ry
     Harris-Foulkes estimate   =    -734.87922142 Ry
     estimated scf accuracy    <      14.02951788 Ry

     total magnetization       =     7.00 Bohr mag/cell
     absolute magnetization    =     7.38 Bohr mag/cell

     iteration #  2     ecut=    70.00 Ry     beta= 0.70
     Davidson diagonalization with overlap
     ethr =  6.71E-03,  avg # of iterations =  4.0

     negative rho (up, down):  1.561E-04 9.653E-03

     total cpu time spent up to now is      321.2 secs

     total energy              =    -728.66017762 Ry
     Harris-Foulkes estimate   =    -744.50458896 Ry
     estimated scf accuracy    <      40.90751538 Ry

     total magnetization       =     4.83 Bohr mag/cell
     absolute magnetization    =     4.92 Bohr mag/cell

     iteration #  3     ecut=    70.00 Ry     beta= 0.70
     Davidson diagonalization with overlap
     ethr =  6.71E-03,  avg # of iterations =  4.5

     negative rho (up, down):  1.817E-04 7.717E-03

     total cpu time spent up to now is      426.3 secs

     total energy              =    -732.29652683 Ry
     Harris-Foulkes estimate   =    -736.03743215 Ry
     estimated scf accuracy    <      10.28699132 Ry

     total magnetization       =     1.49 Bohr mag/cell
     absolute magnetization    =     1.90 Bohr mag/cell

     iteration #  4     ecut=    70.00 Ry     beta= 0.70
     Davidson diagonalization with overlap
     ethr =  4.92E-03,  avg # of iterations =  3.0

     negative rho (up, down):  2.291E-04 6.461E-03

     total cpu time spent up to now is      526.1 secs

     total energy              =    -733.73300790 Ry
     Harris-Foulkes estimate   =    -735.06248196 Ry
     estimated scf accuracy    <       5.75943305 Ry

     total magnetization       =     3.00 Bohr mag/cell
     absolute magnetization    =     3.16 Bohr mag/cell

     iteration #  5     ecut=    70.00 Ry     beta= 0.70
     Davidson diagonalization with overlap
     ethr =  2.76E-03,  avg # of iterations =  2.0

     negative rho (up, down):  2.715E-04 1.014E-02

     total cpu time spent up to now is      618.3 secs

     total energy              =    -734.35935927 Ry
     Harris-Foulkes estimate   =    -735.02588325 Ry
     estimated scf accuracy    <       3.12442721 Ry

     total magnetization       =     1.00 Bohr mag/cell
     absolute magnetization    =     1.41 Bohr mag/cell

     iteration #  6     ecut=    70.00 Ry     beta= 0.70
     Davidson diagonalization with overlap
     ethr =  1.49E-03,  avg # of iterations =  2.0

     negative rho (up, down):  3.974E-04 1.463E-02

     total cpu time spent up to now is      711.5 secs

     total energy              =    -734.72669548 Ry
     Harris-Foulkes estimate   =    -734.76280306 Ry
     estimated scf accuracy    <       0.11391363 Ry

     total magnetization       =     1.00 Bohr mag/cell
     absolute magnetization    =     1.31 Bohr mag/cell

     iteration #  7     ecut=    70.00 Ry     beta= 0.70
     Davidson diagonalization with overlap
     ethr =  5.45E-05,  avg # of iterations = 11.0

     negative rho (up, down):  5.049E-04 8.190E-03

     total cpu time spent up to now is      836.9 secs

     total energy              =    -734.73513217 Ry
     Harris-Foulkes estimate   =    -734.78165342 Ry
     estimated scf accuracy    <       0.15412214 Ry

     total magnetization       =     1.00 Bohr mag/cell
     absolute magnetization    =     1.23 Bohr mag/cell

     iteration #  8     ecut=    70.00 Ry     beta= 0.70
     Davidson diagonalization with overlap
     ethr =  5.45E-05,  avg # of iterations =  3.0

     negative rho (up, down):  5.482E-04 5.041E-03

     total cpu time spent up to now is      938.0 secs

     total energy              =    -734.75315131 Ry
     Harris-Foulkes estimate   =    -734.76588061 Ry
     estimated scf accuracy    <       0.05974534 Ry

     total magnetization       =     1.00 Bohr mag/cell
     absolute magnetization    =     1.19 Bohr mag/cell

     iteration #  9     ecut=    70.00 Ry     beta= 0.70
     Davidson diagonalization with overlap
     ethr =  2.86E-05,  avg # of iterations =  2.0

     negative rho (up, down):  6.034E-04 2.461E-03

     total cpu time spent up to now is     1029.9 secs

     total energy              =    -734.75866538 Ry
     Harris-Foulkes estimate   =    -734.76150102 Ry
     estimated scf accuracy    <       0.03254863 Ry

     total magnetization       =     1.00 Bohr mag/cell
     absolute magnetization    =     1.18 Bohr mag/cell

     iteration # 10     ecut=    70.00 Ry     beta= 0.70
     Davidson diagonalization with overlap
     ethr =  1.56E-05,  avg # of iterations =  1.0

     negative rho (up, down):  6.172E-04 2.075E-03

     total cpu time spent up to now is     1120.4 secs

     total energy              =    -734.75991676 Ry
     Harris-Foulkes estimate   =    -734.76017578 Ry
     estimated scf accuracy    <       0.00123129 Ry

     total magnetization       =     1.00 Bohr mag/cell
     absolute magnetization    =     1.13 Bohr mag/cell

     iteration # 11     ecut=    70.00 Ry     beta= 0.70
     Davidson diagonalization with overlap
     ethr =  5.89E-07,  avg # of iterations =  6.5

     negative rho (up, down):  6.189E-04 2.048E-03

     total cpu time spent up to now is     1229.8 secs

     total energy              =    -734.76017781 Ry
     Harris-Foulkes estimate   =    -734.76031525 Ry
     estimated scf accuracy    <       0.00183640 Ry

     total magnetization       =     1.00 Bohr mag/cell
     absolute magnetization    =     1.11 Bohr mag/cell

     iteration # 12     ecut=    70.00 Ry     beta= 0.70
     Davidson diagonalization with overlap
     ethr =  5.89E-07,  avg # of iterations =  2.0

     negative rho (up, down):  6.168E-04 1.890E-03

     total cpu time spent up to now is     1321.1 secs

     total energy              =    -734.76024732 Ry
     Harris-Foulkes estimate   =    -734.76028953 Ry
     estimated scf accuracy    <       0.00106616 Ry

     total magnetization       =     1.00 Bohr mag/cell
     absolute magnetization    =     1.10 Bohr mag/cell

     iteration # 13     ecut=    70.00 Ry     beta= 0.70
     Davidson diagonalization with overlap
     ethr =  5.10E-07,  avg # of iterations =  1.0

     negative rho (up, down):  6.107E-04 1.576E-03

     total cpu time spent up to now is     1411.4 secs

     total energy              =    -734.76029517 Ry
     Harris-Foulkes estimate   =    -734.76029238 Ry
     estimated scf accuracy    <       0.00003246 Ry

     total magnetization       =     1.00 Bohr mag/cell
     absolute magnetization    =     1.09 Bohr mag/cell

     iteration # 14     ecut=    70.00 Ry     beta= 0.70
     Davidson diagonalization with overlap
     ethr =  1.55E-08,  avg # of iterations =  3.0

     negative rho (up, down):  6.095E-04 1.562E-03

     total cpu time spent up to now is     1521.9 secs

     total energy              =    -734.76030188 Ry
     Harris-Foulkes estimate   =    -734.76030594 Ry
     estimated scf accuracy    <       0.00014373 Ry

     total magnetization       =     1.00 Bohr mag/cell
     absolute magnetization    =     1.08 Bohr mag/cell

     iteration # 15     ecut=    70.00 Ry     beta= 0.70
     Davidson diagonalization with overlap
     ethr =  1.55E-08,  avg # of iterations =  1.5

     negative rho (up, down):  6.090E-04 1.548E-03

     total cpu time spent up to now is     1612.9 secs

     total energy              =    -734.76030477 Ry
     Harris-Foulkes estimate   =    -734.76030575 Ry
     estimated scf accuracy    <       0.00000897 Ry

     total magnetization       =     1.00 Bohr mag/cell
     absolute magnetization    =     1.07 Bohr mag/cell

     iteration # 16     ecut=    70.00 Ry     beta= 0.70
     Davidson diagonalization with overlap
     ethr =  4.29E-09,  avg # of iterations =  2.0

     negative rho (up, down):  6.076E-04 1.546E-03

     total cpu time spent up to now is     1708.1 secs

     total energy              =    -734.76030699 Ry
     Harris-Foulkes estimate   =    -734.76030646 Ry
     estimated scf accuracy    <       0.00001330 Ry

     total magnetization       =     1.00 Bohr mag/cell
     absolute magnetization    =     1.07 Bohr mag/cell

     iteration # 17     ecut=    70.00 Ry     beta= 0.70
     Davidson diagonalization with overlap
     ethr =  4.29E-09,  avg # of iterations =  2.0

     negative rho (up, down):  6.074E-04 1.554E-03

     total cpu time spent up to now is     1799.9 secs

     total energy              =    -734.76030713 Ry
     Harris-Foulkes estimate   =    -734.76030765 Ry
     estimated scf accuracy    <       0.00001588 Ry

     total magnetization       =     1.00 Bohr mag/cell
     absolute magnetization    =     1.07 Bohr mag/cell

     iteration # 18     ecut=    70.00 Ry     beta= 0.70
     Davidson diagonalization with overlap
     ethr =  4.29E-09,  avg # of iterations =  1.0

     negative rho (up, down):  6.072E-04 1.544E-03

     total cpu time spent up to now is     1890.8 secs

     total energy              =    -734.76030756 Ry
     Harris-Foulkes estimate   =    -734.76030753 Ry
     estimated scf accuracy    <       0.00000116 Ry

     total magnetization       =     1.00 Bohr mag/cell
     absolute magnetization    =     1.07 Bohr mag/cell

     iteration # 19     ecut=    70.00 Ry     beta= 0.70
     Davidson diagonalization with overlap
     ethr =  5.54E-10,  avg # of iterations =  2.5

     negative rho (up, down):  6.071E-04 1.538E-03

     Magnetic moment per site:
     atom:    1    charge:    0.2115    magn:    0.0000    constr:    0.0000
     atom:    2    charge:    0.2111    magn:   -0.0000    constr:    0.0000
     atom:    3    charge:    1.7158    magn:    0.0016    constr:    0.0000
     atom:    4    charge:    1.7153    magn:    0.0018    constr:    0.0000
     atom:    5    charge:    1.7169    magn:   -0.0001    constr:    0.0000
     atom:    6    charge:    1.7146    magn:    0.0001    constr:    0.0000
     atom:    7    charge:    1.7169    magn:   -0.0001    constr:    0.0000
     atom:    8    charge:    1.7153    magn:    0.0018    constr:    0.0000
     atom:    9    charge:    1.7158    magn:    0.0016    constr:    0.0000
     atom:   10    charge:    1.7170    magn:   -0.0010    constr:    0.0000
     atom:   11    charge:    1.7160    magn:    0.0006    constr:    0.0000
     atom:   12    charge:    1.7170    magn:   -0.0010    constr:    0.0000
     atom:   13    charge:    1.7160    magn:    0.0006    constr:    0.0000
     atom:   14    charge:    1.7168    magn:   -0.0009    constr:    0.0000
     atom:   15    charge:    1.7130    magn:    0.0071    constr:    0.0000
     atom:   16    charge:    1.7108    magn:    0.0133    constr:    0.0000
     atom:   17    charge:    1.7213    magn:    0.0029    constr:    0.0000
     atom:   18    charge:    1.7107    magn:    0.0133    constr:    0.0000
     atom:   19    charge:    1.7129    magn:    0.0072    constr:    0.0000
     atom:   20    charge:    1.7168    magn:   -0.0010    constr:    0.0000
     atom:   21    charge:    1.7160    magn:    0.0006    constr:    0.0000
     atom:   22    charge:    1.7170    magn:   -0.0010    constr:    0.0000
     atom:   23    charge:    1.7158    magn:    0.0016    constr:    0.0000
     atom:   24    charge:    1.7153    magn:    0.0018    constr:    0.0000
     atom:   25    charge:    1.7130    magn:    0.0071    constr:    0.0000
     atom:   26    charge:    1.7107    magn:    0.0134    constr:    0.0000
     atom:   27    charge:    1.8174    magn:    0.0794    constr:    0.0000
     atom:   28    charge:    7.0284    magn:    0.1547    constr:    0.0000
     atom:   29    charge:    1.8171    magn:    0.0797    constr:    0.0000
     atom:   30    charge:    1.7107    magn:    0.0133    constr:    0.0000
     atom:   31    charge:    1.7129    magn:    0.0072    constr:    0.0000
     atom:   32    charge:    1.7153    magn:    0.0018    constr:    0.0000
     atom:   33    charge:    1.7169    magn:   -0.0001    constr:    0.0000
     atom:   34    charge:    1.7153    magn:    0.0002    constr:    0.0000
     atom:   35    charge:    1.7170    magn:   -0.0001    constr:    0.0000
     atom:   36    charge:    1.7146    magn:    0.0001    constr:    0.0000
     atom:   37    charge:    1.7213    magn:    0.0029    constr:    0.0000
     atom:   38    charge:    1.7107    magn:    0.0134    constr:    0.0000
     atom:   39    charge:    1.8174    magn:    0.0794    constr:    0.0000
     atom:   40    charge:    1.7108    magn:    0.0133    constr:    0.0000
     atom:   41    charge:    1.7213    magn:    0.0029    constr:    0.0000
     atom:   42    charge:    1.7146    magn:    0.0001    constr:    0.0000
     atom:   43    charge:    1.7169    magn:   -0.0001    constr:    0.0000
     atom:   44    charge:    1.7153    magn:    0.0002    constr:    0.0000
     atom:   45    charge:    1.7211    magn:   -0.0009    constr:    0.0000
     atom:   46    charge:    1.7153    magn:    0.0002    constr:    0.0000
     atom:   47    charge:    1.7170    magn:   -0.0001    constr:    0.0000
     atom:   48    charge:    1.7153    magn:    0.0018    constr:    0.0000
     atom:   49    charge:    1.7130    magn:    0.0071    constr:    0.0000
     atom:   50    charge:    1.7168    magn:   -0.0009    constr:    0.0000
     atom:   51    charge:    1.7130    magn:    0.0071    constr:    0.0000
     atom:   52    charge:    1.7153    magn:    0.0018    constr:    0.0000

     total cpu time spent up to now is     1987.0 secs

     End of self-consistent calculation

 ------ SPIN UP ------------


          k = 0.0000 0.0000 0.0000 ( 87777 PWs)   bands (ev):

   -19.8495 -19.0075 -19.0070 -18.9120 -18.9118 -18.8502 -18.7751 -17.1781
   -17.1781 -17.1401 -17.0966 -17.0965 -16.8185 -16.3374 -16.3372 -16.1914
   -16.1913 -16.1690 -15.7785 -14.4349 -14.4347 -14.1383 -14.0425 -14.0425
   -13.5861 -13.1753 -13.1753 -13.0884 -12.9465 -12.9464 -12.6413 -12.3271
   -12.3270 -11.7231 -11.6175 -11.6174 -11.1968 -10.9485 -10.9483  -9.5338
    -9.3728  -9.3728  -9.2513  -9.2417  -9.2416  -9.2325  -9.1262  -9.1255
    -9.0701  -9.0700  -8.9727  -8.7263  -8.7262  -7.9695  -7.9053  -7.8492
    -7.6730  -7.6728  -7.5428  -7.5427  -6.9819  -6.8492  -6.8491  -6.8268
    -6.8228  -6.7793  -6.7235  -6.7232  -6.6272  -6.6272  -6.5826  -6.5758
    -6.5757  -6.5301  -6.4894  -6.4074  -6.4071  -5.6220  -5.6219  -5.0372
    -5.0143  -4.9652  -4.8944  -4.8944  -4.7697  -4.7331  -4.7331  -4.5497
    -4.5496  -4.4746  -3.8597  -3.8595  -3.8269  -3.8268  -3.7903  -3.6488
    -3.6486  -3.4131  -1.8909  -1.8344  -1.8344  -1.7420  -1.7420  -1.2324
    -0.8515  -0.8515   0.9036   0.9400   0.9400   1.0855   1.0856   1.4853
     2.4887   2.7857   2.7858   2.8303   2.9213   2.9214   3.3713   3.5993
     3.5994   3.7308   3.7309   3.7505   3.8778   4.1499

     occupation numbers 
     1.0000   1.0000   1.0000   1.0000   1.0000   1.0000   1.0000   1.0000
     1.0000   1.0000   1.0000   1.0000   1.0000   1.0000   1.0000   1.0000
     1.0000   1.0000   1.0000   1.0000   1.0000   1.0000   1.0000   1.0000
     1.0000   1.0000   1.0000   1.0000   1.0000   1.0000   1.0000   1.0000
     1.0000   1.0000   1.0000   1.0000   1.0000   1.0000   1.0000   1.0000
     1.0000   1.0000   1.0000   1.0000   1.0000   1.0000   1.0000   1.0000
     1.0000   1.0000   1.0000   1.0000   1.0000   1.0000   1.0000   1.0000
     1.0000   1.0000   1.0000   1.0000   1.0000   1.0000   1.0000   1.0000
     1.0000   1.0000   1.0000   1.0000   1.0000   1.0000   1.0000   1.0000
     1.0000   1.0000   1.0000   1.0000   1.0000   1.0000   1.0000   1.0000
     1.0000   1.0000   1.0000   1.0000   1.0000   1.0000   1.0000   1.0000
     1.0000   1.0000   1.0000   1.0000   1.0000   1.0000   1.0000   1.0000
     1.0000   1.0000   1.0000   1.0000   1.0000   1.0000   1.0000   1.0000
     0.5004   0.4996   0.0000   0.0000   0.0000   0.0000   0.0000   0.0000
     0.0000   0.0000   0.0000   0.0000   0.0000   0.0000   0.0000   0.0000
     0.0000   0.0000   0.0000   0.0000   0.0000   0.0000

 ------ SPIN DOWN ----------


          k = 0.0000 0.0000 0.0000 ( 87777 PWs)   bands (ev):

   -19.8244 -18.9750 -18.9744 -18.9052 -18.9049 -18.8471 -18.6996 -17.1383
   -17.1383 -17.1241 -17.0750 -17.0746 -16.7849 -16.2999 -16.2997 -16.1700
   -16.1697 -16.1622 -15.7029 -14.3447 -14.3447 -14.1141 -14.0342 -14.0342
   -13.5441 -13.1498 -13.1498 -13.0755 -12.9098 -12.9095 -12.5764 -12.2160
   -12.2157 -11.7034 -11.5829 -11.5827 -11.0915 -10.8186 -10.8184  -9.4927
    -9.3533  -9.3532  -9.2438  -9.2329  -9.2329  -9.2201  -9.0135  -9.0135
    -8.9548  -8.9534  -8.8482  -8.6849  -8.6846  -7.9590  -7.8810  -7.8273
    -7.6241  -7.6240  -7.5252  -7.5251  -6.9375  -6.8483  -6.8481  -6.8057
    -6.7862  -6.7651  -6.7106  -6.7102  -6.6052  -6.6052  -6.5748  -6.5719
    -6.5718  -6.5240  -6.4767  -6.3665  -6.3663  -5.5944  -5.5943  -5.0182
    -4.9553  -4.8745  -4.8744  -4.8023  -4.7650  -4.7320  -4.7320  -4.5400
    -4.5399  -4.4586  -3.8555  -3.8554  -3.8013  -3.8013  -3.7914  -3.6305
    -3.6302  -3.3749  -1.8873  -1.8320  -1.8320  -1.7203  -1.7202  -1.1970
    -0.4516  -0.4484   0.9064   0.9436   0.9436   1.1085   1.1087   1.4974
     2.4892   2.7877   2.7878   2.8311   2.9484   2.9488   3.3798   3.6006
     3.6007   3.7299   3.7300   3.7494   3.8842   4.1620

     occupation numbers 
     1.0000   1.0000   1.0000   1.0000   1.0000   1.0000   1.0000   1.0000
     1.0000   1.0000   1.0000   1.0000   1.0000   1.0000   1.0000   1.0000
     1.0000   1.0000   1.0000   1.0000   1.0000   1.0000   1.0000   1.0000
     1.0000   1.0000   1.0000   1.0000   1.0000   1.0000   1.0000   1.0000
     1.0000   1.0000   1.0000   1.0000   1.0000   1.0000   1.0000   1.0000
     1.0000   1.0000   1.0000   1.0000   1.0000   1.0000   1.0000   1.0000
     1.0000   1.0000   1.0000   1.0000   1.0000   1.0000   1.0000   1.0000
     1.0000   1.0000   1.0000   1.0000   1.0000   1.0000   1.0000   1.0000
     1.0000   1.0000   1.0000   1.0000   1.0000   1.0000   1.0000   1.0000
     1.0000   1.0000   1.0000   1.0000   1.0000   1.0000   1.0000   1.0000
     1.0000   1.0000   1.0000   1.0000   1.0000   1.0000   1.0000   1.0000
     1.0000   1.0000   1.0000   1.0000   1.0000   1.0000   1.0000   1.0000
     1.0000   1.0000   1.0000   1.0000   1.0000   1.0000   1.0000   1.0000
     0.0000   0.0000   0.0000   0.0000   0.0000   0.0000   0.0000   0.0000
     0.0000   0.0000   0.0000   0.0000   0.0000   0.0000   0.0000   0.0000
     0.0000   0.0000   0.0000   0.0000   0.0000   0.0000

     the Fermi energy is    -0.8496 ev

!    total energy              =    -734.76030753 Ry
     Harris-Foulkes estimate   =    -734.76030770 Ry
     estimated scf accuracy    <       0.00000057 Ry

     The total energy is the sum of the following terms:

     one-electron contribution =   -2486.71916808 Ry
     hartree contribution      =    1299.02370247 Ry
     xc contribution           =    -275.92420391 Ry
     ewald contribution        =     728.85969018 Ry
     smearing contrib. (-TS)   =      -0.00032818 Ry

     total magnetization       =     1.00 Bohr mag/cell
     absolute magnetization    =     1.07 Bohr mag/cell

     convergence has been achieved in  19 iterations

     Writing output data file cobre-top-3.0.save/

     init_run     :     71.67s CPU     72.84s WALL (       1 calls)
     electrons    :   1879.12s CPU   1913.08s WALL (       1 calls)

     Called by init_run:
     wfcinit      :     41.50s CPU     41.71s WALL (       1 calls)
     wfcinit:atom :      0.06s CPU      0.08s WALL (       2 calls)
     wfcinit:wfcr :     41.08s CPU     41.22s WALL (       2 calls)
     potinit      :     12.39s CPU     12.81s WALL (       1 calls)
     hinit0       :      8.76s CPU      8.77s WALL (       1 calls)

     Called by electrons:
     c_bands      :   1195.05s CPU   1200.78s WALL (      19 calls)
     sum_band     :    395.71s CPU    407.15s WALL (      19 calls)
     v_of_rho     :    142.36s CPU    149.86s WALL (      20 calls)
     v_h          :      1.42s CPU      1.49s WALL (      20 calls)
     v_xc         :    140.94s CPU    148.37s WALL (      20 calls)
     newd         :    148.31s CPU    158.16s WALL (      20 calls)
     mix_rho      :      8.06s CPU      8.19s WALL (      19 calls)

     Called by c_bands:
     init_us_2    :      3.50s CPU      3.53s WALL (      78 calls)
     cegterg      :   1186.65s CPU   1192.34s WALL (      38 calls)

     Called by sum_band:
     sum_band:bec :      0.03s CPU      0.03s WALL (      38 calls)
     addusdens    :    247.97s CPU    258.50s WALL (      19 calls)

     Called by *egterg:
     h_psi        :    629.69s CPU    633.48s WALL (     152 calls)
     s_psi        :    212.55s CPU    212.66s WALL (     152 calls)
     g_psi        :      0.67s CPU      0.67s WALL (     112 calls)
     cdiaghg      :     10.37s CPU     10.37s WALL (     150 calls)
     cegterg:over :    150.59s CPU    150.66s WALL (     112 calls)
     cegterg:upda :     89.96s CPU     90.55s WALL (     112 calls)
     cegterg:last :     63.82s CPU     63.83s WALL (      38 calls)

     Called by h_psi:
     h_psi:pot    :    628.93s CPU    632.00s WALL (     152 calls)
     h_psi:calbec :    212.84s CPU    212.93s WALL (     152 calls)
     vloc_psi     :    203.69s CPU    206.61s WALL (     152 calls)
     add_vuspsi   :    212.40s CPU    212.47s WALL (     152 calls)

     General routines
     calbec       :    302.46s CPU    302.57s WALL (     190 calls)
     fft          :     81.51s CPU     84.39s WALL (    1494 calls)
     ffts         :      1.41s CPU      1.44s WALL (      78 calls)
     fftw         :    216.19s CPU    219.41s WALL (   27570 calls)
     interpolate  :      3.32s CPU      3.42s WALL (      40 calls)

     Parallel routines
     fft_scatt_xy :     52.88s CPU     53.42s WALL (   29142 calls)
     fft_scatt_yz :    100.81s CPU    105.20s WALL (   29142 calls)

     PWSCF        :  32m32.20s CPU  33m 7.67s WALL


   This run was terminated on:   1:31:32   5Sep2022            

=------------------------------------------------------------------------------=
   JOB DONE.
=------------------------------------------------------------------------------=
