
     Program PWSCF v.6.4.1 starts on 22Oct2022 at 19:18:29 

     This program is part of the open-source Quantum ESPRESSO suite
     for quantum simulation of materials; please cite
         "P. Giannozzi et al., J. Phys.:Condens. Matter 21 395502 (2009);
         "P. Giannozzi et al., J. Phys.:Condens. Matter 29 465901 (2017);
          URL http://www.quantum-espresso.org", 
     in publications or presentations arising from this work. More details at
     http://www.quantum-espresso.org/quote

     Parallel version (MPI), running on     6 processors

     MPI processes distributed on     1 nodes
     R & G space division:  proc/nbgrp/npool/nimage =       6
     Reading input from v-vcrelax.in

     Current dimensions of program PWSCF are:
     Max number of different atomic species (ntypx) = 10
     Max number of k-points (npk) =  40000
     Max angular momentum in pseudopotentials (lmaxx) =  3
               file H.pbe-rrkjus.UPF: wavefunction(s)  1S renormalized
               file V.pbe-spnl-rrkjus_psl.1.0.0.UPF: wavefunction(s)  3P 3D renormalized

     Subspace diagonalization in iterative solution of the eigenvalue problem:
     a serial algorithm will be used


     Parallelization info
     --------------------
     sticks:   dense  smooth     PW     G-vecs:    dense   smooth      PW
     Min        3051    1746    432               270999   117096   14629
     Max        3053    1747    437               271001   117099   14630
     Sum       18313   10477   2611              1626001   702581   87777



     bravais-lattice index     =            4
     lattice parameter (alat)  =      23.2937  a.u.
     unit-cell volume          =    8879.8548 (a.u.)^3
     number of atoms/cell      =           52
     number of atomic types    =            3
     number of electrons       =       211.00
     number of Kohn-Sham states=          127
     kinetic-energy cutoff     =      70.0000  Ry
     charge density cutoff     =     490.0000  Ry
     convergence threshold     =      1.0E-10
     mixing beta               =       0.3000
     number of iterations used =            4  plain     mixing
     Exchange-correlation      = PBE ( 1  4  3  4 0 0)
     nstep                     =           50


     celldm(1)=  23.293684  celldm(2)=   0.000000  celldm(3)=   0.811261
     celldm(4)=   0.000000  celldm(5)=   0.000000  celldm(6)=   0.000000

     crystal axes: (cart. coord. in units of alat)
               a(1) = (   1.000000   0.000000   0.000000 )  
               a(2) = (  -0.500000   0.866025   0.000000 )  
               a(3) = (   0.000000   0.000000   0.811261 )  

     reciprocal axes: (cart. coord. in units 2 pi/alat)
               b(1) = (  1.000000  0.577350 -0.000000 )  
               b(2) = (  0.000000  1.154701  0.000000 )  
               b(3) = (  0.000000 -0.000000  1.232649 )  


     PseudoPot. # 1 for H  read from file:
     /home/cristian/Escritorio/Proyecto_Grafeno/pseudopotenciales/H.pbe-rrkjus.UPF
     MD5 check sum: 7cc9d459525c9a0585f487a71c3c9563
     Pseudo is Ultrasoft, Zval =  1.0
     Generated by new atomic code, or converted to UPF format
     Using radial grid of 1061 points,  2 beta functions with: 
                l(1) =   0
                l(2) =   0
     Q(r) pseudized with 0 coefficients 


     PseudoPot. # 2 for C  read from file:
     /home/cristian/Escritorio/Proyecto_Grafeno/pseudopotenciales/C.pbe-n-rrkjus_psl.1.0.0.UPF
     MD5 check sum: 1fdd950c42eb37d8afe3dd2f8d12311e
     Pseudo is Ultrasoft + core correction, Zval =  4.0
     Generated using "atomic" code by A. Dal Corso v.6.3MaX
     Using radial grid of 1073 points,  4 beta functions with: 
                l(1) =   0
                l(2) =   0
                l(3) =   1
                l(4) =   1
     Q(r) pseudized with 0 coefficients 


     PseudoPot. # 3 for V  read from file:
     /home/cristian/Escritorio/Proyecto_Grafeno/pseudopotenciales/V.pbe-spnl-rrkjus_psl.1.0.0.UPF
     MD5 check sum: 79b3eb63147daf0b665d9f1bcc691206
     Pseudo is Ultrasoft + core correction, Zval = 13.0
     Generated using "atomic" code by A. Dal Corso v.6.2.2
     Using radial grid of 1181 points,  6 beta functions with: 
                l(1) =   0
                l(2) =   0
                l(3) =   1
                l(4) =   1
                l(5) =   2
                l(6) =   2
     Q(r) pseudized with 0 coefficients 


     atomic species   valence    mass     pseudopotential
        H              1.00     1.00794     H ( 1.00)
        C              4.00    12.01070     C ( 1.00)
        V             13.00    50.94150     V ( 1.00)

     Starting magnetic structure 
     atomic species   magnetization
        H            0.500
        C            0.300
        V            0.800

      2 Sym. Ops. (no inversion) found


                                    s                        frac. trans.

      isym =  1     identity                                     

 cryst.   s( 1) = (     1          0          0      )
                  (     0          1          0      )
                  (     0          0          1      )

 cart.    s( 1) = (  1.0000000  0.0000000  0.0000000 )
                  (  0.0000000  1.0000000  0.0000000 )
                  (  0.0000000  0.0000000  1.0000000 )


      isym =  2     inv. 180 deg rotation - cryst. axis [1,1,0]  

 cryst.   s( 2) = (     0         -1          0      )
                  (    -1          0          0      )
                  (     0          0          1      )

 cart.    s( 2) = (  0.5000000 -0.8660254  0.0000000 )
                  ( -0.8660254 -0.5000000  0.0000000 )
                  (  0.0000000  0.0000000  1.0000000 )


     point group C_s (m)    
     there are  2 classes
     the character table:

       E     s    
A'     1.00  1.00
A''    1.00 -1.00

     the symmetry operations in each class and the name of the first element:

     E        1
          identity                                               
     s        2
          inv. 180 deg rotation - cryst. axis [1,1,0]            

   Cartesian axes

     site n.     atom                  positions (alat units)
         1           H   tau(   1) = (   0.2000000   0.4618802   0.1703648  )
         2           H   tau(   2) = (   0.2000000   0.4618802   0.2313775  )
         3           C   tau(   3) = (   0.0000000   0.0000000   0.0000000  )
         4           C   tau(   4) = (   0.0000000   0.1154701   0.0000000  )
         5           C   tau(   5) = (  -0.1000000   0.1732051   0.0000000  )
         6           C   tau(   6) = (  -0.1000000   0.2886751   0.0000000  )
         7           C   tau(   7) = (  -0.2000000   0.3464102   0.0000000  )
         8           C   tau(   8) = (  -0.2000000   0.4618802   0.0000000  )
         9           C   tau(   9) = (  -0.3000000   0.5196152   0.0000000  )
        10           C   tau(  10) = (  -0.3000000   0.6350853   0.0000000  )
        11           C   tau(  11) = (  -0.4000000   0.6928203   0.0000000  )
        12           C   tau(  12) = (  -0.4000000   0.8082904   0.0000000  )
        13           C   tau(  13) = (   0.2000000   0.0000000   0.0000000  )
        14           C   tau(  14) = (   0.2000000   0.1154701   0.0000000  )
        15           C   tau(  15) = (   0.1000000   0.1732051   0.0000000  )
        16           C   tau(  16) = (   0.1000000   0.2886751   0.0000000  )
        17           C   tau(  17) = (   0.0000000   0.3464102   0.0000000  )
        18           C   tau(  18) = (   0.0000000   0.4618802   0.0000000  )
        19           C   tau(  19) = (  -0.1000000   0.5196152   0.0000000  )
        20           C   tau(  20) = (  -0.1000000   0.6350853   0.0000000  )
        21           C   tau(  21) = (  -0.2000000   0.6928203   0.0000000  )
        22           C   tau(  22) = (  -0.2000000   0.8082904   0.0000000  )
        23           C   tau(  23) = (   0.4000000   0.0000000   0.0000000  )
        24           C   tau(  24) = (   0.4000000   0.1154701   0.0000000  )
        25           C   tau(  25) = (   0.3000000   0.1732051   0.0000000  )
        26           C   tau(  26) = (   0.3000000   0.2886751   0.0000000  )
        27           C   tau(  27) = (   0.2000000   0.3464102   0.0000000  )
        28           V   tau(  28) = (   0.2000000   0.4618802   0.0000000  )
        29           C   tau(  29) = (   0.1000000   0.5196152   0.0000000  )
        30           C   tau(  30) = (   0.1000000   0.6350853   0.0000000  )
        31           C   tau(  31) = (   0.0000000   0.6928203   0.0000000  )
        32           C   tau(  32) = (   0.0000000   0.8082904   0.0000000  )
        33           C   tau(  33) = (   0.6000000   0.0000000   0.0000000  )
        34           C   tau(  34) = (   0.6000000   0.1154701   0.0000000  )
        35           C   tau(  35) = (   0.5000000   0.1732051   0.0000000  )
        36           C   tau(  36) = (   0.5000000   0.2886751   0.0000000  )
        37           C   tau(  37) = (   0.4000000   0.3464102   0.0000000  )
        38           C   tau(  38) = (   0.4000000   0.4618802   0.0000000  )
        39           C   tau(  39) = (   0.3000000   0.5196152   0.0000000  )
        40           C   tau(  40) = (   0.3000000   0.6350853   0.0000000  )
        41           C   tau(  41) = (   0.2000000   0.6928203   0.0000000  )
        42           C   tau(  42) = (   0.2000000   0.8082904   0.0000000  )
        43           C   tau(  43) = (   0.8000000   0.0000000   0.0000000  )
        44           C   tau(  44) = (   0.8000000   0.1154701   0.0000000  )
        45           C   tau(  45) = (   0.7000000   0.1732051   0.0000000  )
        46           C   tau(  46) = (   0.7000000   0.2886751   0.0000000  )
        47           C   tau(  47) = (   0.6000000   0.3464102   0.0000000  )
        48           C   tau(  48) = (   0.6000000   0.4618802   0.0000000  )
        49           C   tau(  49) = (   0.5000000   0.5196152   0.0000000  )
        50           C   tau(  50) = (   0.5000000   0.6350853   0.0000000  )
        51           C   tau(  51) = (   0.4000000   0.6928203   0.0000000  )
        52           C   tau(  52) = (   0.4000000   0.8082904   0.0000000  )

   Crystallographic axes

     site n.     atom                  positions (cryst. coord.)
         1           H   tau(   1) = (  0.4666667  0.5333333  0.2100000  )
         2           H   tau(   2) = (  0.4666667  0.5333333  0.2852072  )
         3           C   tau(   3) = (  0.0000000  0.0000000  0.0000000  )
         4           C   tau(   4) = (  0.0666667  0.1333333  0.0000000  )
         5           C   tau(   5) = (  0.0000000  0.2000000  0.0000000  )
         6           C   tau(   6) = (  0.0666667  0.3333333  0.0000000  )
         7           C   tau(   7) = (  0.0000000  0.4000000  0.0000000  )
         8           C   tau(   8) = (  0.0666667  0.5333333  0.0000000  )
         9           C   tau(   9) = (  0.0000000  0.6000000  0.0000000  )
        10           C   tau(  10) = (  0.0666667  0.7333333  0.0000000  )
        11           C   tau(  11) = (  0.0000000  0.8000000  0.0000000  )
        12           C   tau(  12) = (  0.0666667  0.9333333  0.0000000  )
        13           C   tau(  13) = (  0.2000000  0.0000000  0.0000000  )
        14           C   tau(  14) = (  0.2666667  0.1333333  0.0000000  )
        15           C   tau(  15) = (  0.2000000  0.2000000  0.0000000  )
        16           C   tau(  16) = (  0.2666667  0.3333333  0.0000000  )
        17           C   tau(  17) = (  0.2000000  0.4000000  0.0000000  )
        18           C   tau(  18) = (  0.2666667  0.5333333  0.0000000  )
        19           C   tau(  19) = (  0.2000000  0.6000000  0.0000000  )
        20           C   tau(  20) = (  0.2666667  0.7333333  0.0000000  )
        21           C   tau(  21) = (  0.2000000  0.8000000  0.0000000  )
        22           C   tau(  22) = (  0.2666667  0.9333333  0.0000000  )
        23           C   tau(  23) = (  0.4000000  0.0000000  0.0000000  )
        24           C   tau(  24) = (  0.4666667  0.1333333  0.0000000  )
        25           C   tau(  25) = (  0.4000000  0.2000000  0.0000000  )
        26           C   tau(  26) = (  0.4666667  0.3333333  0.0000000  )
        27           C   tau(  27) = (  0.4000000  0.4000000  0.0000000  )
        28           V   tau(  28) = (  0.4666667  0.5333333  0.0000000  )
        29           C   tau(  29) = (  0.4000000  0.6000000  0.0000000  )
        30           C   tau(  30) = (  0.4666667  0.7333333  0.0000000  )
        31           C   tau(  31) = (  0.4000000  0.8000000  0.0000000  )
        32           C   tau(  32) = (  0.4666667  0.9333333  0.0000000  )
        33           C   tau(  33) = (  0.6000000  0.0000000  0.0000000  )
        34           C   tau(  34) = (  0.6666667  0.1333333  0.0000000  )
        35           C   tau(  35) = (  0.6000000  0.2000000  0.0000000  )
        36           C   tau(  36) = (  0.6666667  0.3333333  0.0000000  )
        37           C   tau(  37) = (  0.6000000  0.4000000  0.0000000  )
        38           C   tau(  38) = (  0.6666667  0.5333333  0.0000000  )
        39           C   tau(  39) = (  0.6000000  0.6000000  0.0000000  )
        40           C   tau(  40) = (  0.6666667  0.7333333  0.0000000  )
        41           C   tau(  41) = (  0.6000000  0.8000000  0.0000000  )
        42           C   tau(  42) = (  0.6666667  0.9333333  0.0000000  )
        43           C   tau(  43) = (  0.8000000  0.0000000  0.0000000  )
        44           C   tau(  44) = (  0.8666667  0.1333333  0.0000000  )
        45           C   tau(  45) = (  0.8000000  0.2000000  0.0000000  )
        46           C   tau(  46) = (  0.8666667  0.3333333  0.0000000  )
        47           C   tau(  47) = (  0.8000000  0.4000000  0.0000000  )
        48           C   tau(  48) = (  0.8666667  0.5333333  0.0000000  )
        49           C   tau(  49) = (  0.8000000  0.6000000  0.0000000  )
        50           C   tau(  50) = (  0.8666667  0.7333333  0.0000000  )
        51           C   tau(  51) = (  0.8000000  0.8000000  0.0000000  )
        52           C   tau(  52) = (  0.8666667  0.9333333  0.0000000  )

     number of k points=     1  Marzari-Vanderbilt smearing, width (Ry)=  0.0010
                       cart. coord. in units 2pi/alat
        k(    1) = (   0.0000000   0.0000000   0.0000000), wk =   1.0000000

                       cryst. coord.
        k(    1) = (   0.0000000   0.0000000   0.0000000), wk =   1.0000000

     Dense  grid:  1626001 G-vectors     FFT dimensions: ( 180, 180, 135)

     Smooth grid:   702581 G-vectors     FFT dimensions: ( 125, 125, 108)

     Dynamical RAM for                 wfc:      28.36 MB

     Dynamical RAM for     wfc (w. buffer):      85.09 MB

     Dynamical RAM for           str. fact:      12.41 MB

     Dynamical RAM for           local pot:       0.00 MB

     Dynamical RAM for          nlocal pot:      92.46 MB

     Dynamical RAM for                qrad:      19.73 MB

     Dynamical RAM for          rho,v,vnew:      58.92 MB

     Dynamical RAM for               rhoin:      19.64 MB

     Dynamical RAM for            rho*nmix:      66.16 MB

     Dynamical RAM for           G-vectors:      16.40 MB

     Dynamical RAM for          h,s,v(r/c):      11.81 MB

     Dynamical RAM for          <psi|beta>:       0.80 MB

     Dynamical RAM for                 psi:     113.46 MB

     Dynamical RAM for                hpsi:     113.46 MB

     Dynamical RAM for                spsi:     113.46 MB

     Dynamical RAM for      wfcinit/wfcrot:      93.90 MB

     Dynamical RAM for           addusdens:     975.89 MB

     Dynamical RAM for          addusforce:    1410.48 MB

     Estimated static dynamical RAM per process >     421.47 MB

     Estimated max dynamical RAM per process >       1.79 GB

     Estimated total dynamical RAM >      10.73 GB
     Generating pointlists ...
     new r_m :   0.0252 (alat units)  0.5862 (a.u.) for type    1
     new r_m :   0.0476 (alat units)  1.1095 (a.u.) for type    2
     new r_m :   0.0476 (alat units)  1.1095 (a.u.) for type    3

     Check: negative core charge=   -0.000002

     Initial potential from superposition of free atoms

     starting charge  210.80465, renormalised to  211.00000

     negative rho (up, down):  1.288E-04 1.735E-02
     Starting wfcs are  208 randomized atomic wfcs

     total cpu time spent up to now is       61.5 secs

     Self-consistent Calculation

     iteration #  1     ecut=    70.00 Ry     beta= 0.30
     Davidson diagonalization with overlap
     ethr =  1.00E-02,  avg # of iterations =  3.0

     negative rho (up, down):  1.604E-04 1.517E-02

     total cpu time spent up to now is      164.4 secs

     total energy              =    -752.71586065 Ry
     Harris-Foulkes estimate   =    -754.99275157 Ry
     estimated scf accuracy    <      12.25758322 Ry

     total magnetization       =     5.00 Bohr mag/cell
     absolute magnetization    =     5.99 Bohr mag/cell

     iteration #  2     ecut=    70.00 Ry     beta= 0.30
     Davidson diagonalization with overlap
     ethr =  5.81E-03,  avg # of iterations =  5.5

     negative rho (up, down):  1.422E-03 8.116E-02

     total cpu time spent up to now is      241.8 secs

     total energy              =    -752.53260069 Ry
     Harris-Foulkes estimate   =    -755.57946924 Ry
     estimated scf accuracy    <      15.60492096 Ry

     total magnetization       =     9.00 Bohr mag/cell
     absolute magnetization    =     9.07 Bohr mag/cell

     iteration #  3     ecut=    70.00 Ry     beta= 0.30
     Davidson diagonalization with overlap
     ethr =  5.81E-03,  avg # of iterations =  3.5

     negative rho (up, down):  6.148E-03 9.357E-02

     total cpu time spent up to now is      316.0 secs

     total energy              =    -754.58681276 Ry
     Harris-Foulkes estimate   =    -754.62466310 Ry
     estimated scf accuracy    <       3.83512181 Ry

     total magnetization       =     5.00 Bohr mag/cell
     absolute magnetization    =     5.58 Bohr mag/cell

     iteration #  4     ecut=    70.00 Ry     beta= 0.30
     Davidson diagonalization with overlap
     ethr =  1.82E-03,  avg # of iterations =  3.5

     negative rho (up, down):  6.355E-03 1.086E-01

     total cpu time spent up to now is      396.4 secs

     total energy              =    -755.24999327 Ry
     Harris-Foulkes estimate   =    -755.13629608 Ry
     estimated scf accuracy    <       0.26774825 Ry

     total magnetization       =     3.00 Bohr mag/cell
     absolute magnetization    =     3.36 Bohr mag/cell

     iteration #  5     ecut=    70.00 Ry     beta= 0.30
     Davidson diagonalization with overlap
     ethr =  1.27E-04,  avg # of iterations =  7.0

     negative rho (up, down):  5.081E-02 1.083E-02

     total cpu time spent up to now is      475.8 secs

     total energy              =    -755.34521203 Ry
     Harris-Foulkes estimate   =    -755.26683401 Ry
     estimated scf accuracy    <       0.11343290 Ry

     total magnetization       =     3.00 Bohr mag/cell
     absolute magnetization    =     3.32 Bohr mag/cell

     iteration #  6     ecut=    70.00 Ry     beta= 0.30
     Davidson diagonalization with overlap
     ethr =  5.38E-05,  avg # of iterations =  3.0

     negative rho (up, down):  3.090E-02 1.490E-02

     total cpu time spent up to now is      553.8 secs

     total energy              =    -755.37101432 Ry
     Harris-Foulkes estimate   =    -755.37373176 Ry
     estimated scf accuracy    <       0.09230205 Ry

     total magnetization       =     1.00 Bohr mag/cell
     absolute magnetization    =     1.64 Bohr mag/cell

     iteration #  7     ecut=    70.00 Ry     beta= 0.30
     Davidson diagonalization with overlap
     ethr =  4.37E-05,  avg # of iterations =  2.0

     negative rho (up, down):  2.548E-02 1.291E-02

     total cpu time spent up to now is      627.5 secs

     total energy              =    -755.38062049 Ry
     Harris-Foulkes estimate   =    -755.37741810 Ry
     estimated scf accuracy    <       0.05148174 Ry

     total magnetization       =     1.00 Bohr mag/cell
     absolute magnetization    =     1.61 Bohr mag/cell

     iteration #  8     ecut=    70.00 Ry     beta= 0.30
     Davidson diagonalization with overlap
     ethr =  2.44E-05,  avg # of iterations =  3.0

     negative rho (up, down):  3.862E-02 1.151E-02

     total cpu time spent up to now is      701.6 secs

     total energy              =    -755.38958170 Ry
     Harris-Foulkes estimate   =    -755.38587828 Ry
     estimated scf accuracy    <       0.03623711 Ry

     total magnetization       =     1.00 Bohr mag/cell
     absolute magnetization    =     1.58 Bohr mag/cell

     iteration #  9     ecut=    70.00 Ry     beta= 0.30
     Davidson diagonalization with overlap
     ethr =  1.72E-05,  avg # of iterations =  3.0

     negative rho (up, down):  3.443E-02 1.132E-02

     total cpu time spent up to now is      776.4 secs

     total energy              =    -755.39418497 Ry
     Harris-Foulkes estimate   =    -755.39251926 Ry
     estimated scf accuracy    <       0.00327146 Ry

     total magnetization       =     1.00 Bohr mag/cell
     absolute magnetization    =     1.49 Bohr mag/cell

     iteration # 10     ecut=    70.00 Ry     beta= 0.30
     Davidson diagonalization with overlap
     ethr =  1.55E-06,  avg # of iterations = 13.0

     negative rho (up, down):  3.616E-02 1.131E-02

     total cpu time spent up to now is      867.2 secs

     total energy              =    -755.39549959 Ry
     Harris-Foulkes estimate   =    -755.39465771 Ry
     estimated scf accuracy    <       0.00156861 Ry

     total magnetization       =     1.00 Bohr mag/cell
     absolute magnetization    =     1.47 Bohr mag/cell

     iteration # 11     ecut=    70.00 Ry     beta= 0.30
     Davidson diagonalization with overlap
     ethr =  7.43E-07,  avg # of iterations =  3.5

     negative rho (up, down):  3.766E-02 7.420E-03

     total cpu time spent up to now is      942.5 secs

     total energy              =    -755.39620820 Ry
     Harris-Foulkes estimate   =    -755.39573061 Ry
     estimated scf accuracy    <       0.00046402 Ry

     total magnetization       =     1.00 Bohr mag/cell
     absolute magnetization    =     1.45 Bohr mag/cell

     iteration # 12     ecut=    70.00 Ry     beta= 0.30
     Davidson diagonalization with overlap
     ethr =  2.20E-07,  avg # of iterations =  4.0

     negative rho (up, down):  3.489E-02 5.728E-03

     total cpu time spent up to now is     1024.5 secs

     total energy              =    -755.39689306 Ry
     Harris-Foulkes estimate   =    -755.39632022 Ry
     estimated scf accuracy    <       0.00009769 Ry

     total magnetization       =     1.00 Bohr mag/cell
     absolute magnetization    =     1.45 Bohr mag/cell

     iteration # 13     ecut=    70.00 Ry     beta= 0.30
     Davidson diagonalization with overlap
     ethr =  4.63E-08,  avg # of iterations =  3.5

     negative rho (up, down):  3.191E-02 5.908E-03

     total cpu time spent up to now is     1103.9 secs

     total energy              =    -755.39734983 Ry
     Harris-Foulkes estimate   =    -755.39691394 Ry
     estimated scf accuracy    <       0.00010794 Ry

     total magnetization       =     1.00 Bohr mag/cell
     absolute magnetization    =     1.45 Bohr mag/cell

     iteration # 14     ecut=    70.00 Ry     beta= 0.30
     Davidson diagonalization with overlap
     ethr =  4.63E-08,  avg # of iterations =  3.0

     negative rho (up, down):  3.152E-02 3.900E-03

     total cpu time spent up to now is     1178.9 secs

     total energy              =    -755.39750700 Ry
     Harris-Foulkes estimate   =    -755.39736893 Ry
     estimated scf accuracy    <       0.00021926 Ry

     total magnetization       =     1.00 Bohr mag/cell
     absolute magnetization    =     1.46 Bohr mag/cell

     iteration # 15     ecut=    70.00 Ry     beta= 0.30
     Davidson diagonalization with overlap
     ethr =  4.63E-08,  avg # of iterations =  3.5

     negative rho (up, down):  3.074E-02 2.949E-03

     total cpu time spent up to now is     1253.0 secs

     total energy              =    -755.39765432 Ry
     Harris-Foulkes estimate   =    -755.39752145 Ry
     estimated scf accuracy    <       0.00000651 Ry

     total magnetization       =     1.00 Bohr mag/cell
     absolute magnetization    =     1.47 Bohr mag/cell

     iteration # 16     ecut=    70.00 Ry     beta= 0.30
     Davidson diagonalization with overlap
     ethr =  3.08E-09,  avg # of iterations =  4.0

     negative rho (up, down):  3.031E-02 2.100E-03

     total cpu time spent up to now is     1361.8 secs

     total energy              =    -755.39772919 Ry
     Harris-Foulkes estimate   =    -755.39765767 Ry
     estimated scf accuracy    <       0.00000348 Ry

     total magnetization       =     1.00 Bohr mag/cell
     absolute magnetization    =     1.48 Bohr mag/cell

     iteration # 17     ecut=    70.00 Ry     beta= 0.30
     Davidson diagonalization with overlap
     ethr =  1.65E-09,  avg # of iterations =  4.0

     negative rho (up, down):  3.001E-02 2.070E-03

     total cpu time spent up to now is     1465.1 secs

     total energy              =    -755.39776521 Ry
     Harris-Foulkes estimate   =    -755.39773080 Ry
     estimated scf accuracy    <       0.00000169 Ry

     total magnetization       =     1.00 Bohr mag/cell
     absolute magnetization    =     1.49 Bohr mag/cell

     iteration # 18     ecut=    70.00 Ry     beta= 0.30
     Davidson diagonalization with overlap
     ethr =  8.00E-10,  avg # of iterations =  4.0

     negative rho (up, down):  2.989E-02 2.370E-03

     total cpu time spent up to now is     1575.0 secs

     total energy              =    -755.39778592 Ry
     Harris-Foulkes estimate   =    -755.39776618 Ry
     estimated scf accuracy    <       0.00000095 Ry

     total magnetization       =     1.00 Bohr mag/cell
     absolute magnetization    =     1.49 Bohr mag/cell

     iteration # 19     ecut=    70.00 Ry     beta= 0.30
     Davidson diagonalization with overlap
     ethr =  4.52E-10,  avg # of iterations =  4.0

     negative rho (up, down):  2.973E-02 2.600E-03

     total cpu time spent up to now is     1685.2 secs

     total energy              =    -755.39780314 Ry
     Harris-Foulkes estimate   =    -755.39778655 Ry
     estimated scf accuracy    <       0.00000074 Ry

     total magnetization       =     1.00 Bohr mag/cell
     absolute magnetization    =     1.50 Bohr mag/cell

     iteration # 20     ecut=    70.00 Ry     beta= 0.30
     Davidson diagonalization with overlap
     ethr =  3.52E-10,  avg # of iterations =  3.5

     negative rho (up, down):  2.958E-02 2.623E-03

     total cpu time spent up to now is     1779.9 secs

     total energy              =    -755.39781648 Ry
     Harris-Foulkes estimate   =    -755.39780345 Ry
     estimated scf accuracy    <       0.00000127 Ry

     total magnetization       =     1.00 Bohr mag/cell
     absolute magnetization    =     1.50 Bohr mag/cell

     iteration # 21     ecut=    70.00 Ry     beta= 0.30
     Davidson diagonalization with overlap
     ethr =  3.52E-10,  avg # of iterations =  3.0

     negative rho (up, down):  2.957E-02 2.938E-03

     total cpu time spent up to now is     1867.4 secs

     total energy              =    -755.39782261 Ry
     Harris-Foulkes estimate   =    -755.39781664 Ry
     estimated scf accuracy    <       0.00000031 Ry

     total magnetization       =     1.00 Bohr mag/cell
     absolute magnetization    =     1.51 Bohr mag/cell

     iteration # 22     ecut=    70.00 Ry     beta= 0.30
     Davidson diagonalization with overlap
     ethr =  1.49E-10,  avg # of iterations =  3.0

     negative rho (up, down):  2.953E-02 2.777E-03

     total cpu time spent up to now is     1966.0 secs

     total energy              =    -755.39782783 Ry
     Harris-Foulkes estimate   =    -755.39782273 Ry
     estimated scf accuracy    <       0.00000018 Ry

     total magnetization       =     1.00 Bohr mag/cell
     absolute magnetization    =     1.51 Bohr mag/cell

     iteration # 23     ecut=    70.00 Ry     beta= 0.30
     Davidson diagonalization with overlap
     ethr =  8.41E-11,  avg # of iterations =  3.5

     negative rho (up, down):  2.949E-02 2.673E-03

     total cpu time spent up to now is     2054.7 secs

     total energy              =    -755.39783146 Ry
     Harris-Foulkes estimate   =    -755.39782787 Ry
     estimated scf accuracy    <       0.00000009 Ry

     total magnetization       =     1.00 Bohr mag/cell
     absolute magnetization    =     1.51 Bohr mag/cell

     iteration # 24     ecut=    70.00 Ry     beta= 0.30
     Davidson diagonalization with overlap
     ethr =  4.18E-11,  avg # of iterations =  3.5

     negative rho (up, down):  2.947E-02 2.459E-03

     total cpu time spent up to now is     2143.2 secs

     total energy              =    -755.39783373 Ry
     Harris-Foulkes estimate   =    -755.39783147 Ry
     estimated scf accuracy    <       0.00000007 Ry

     total magnetization       =     1.00 Bohr mag/cell
     absolute magnetization    =     1.51 Bohr mag/cell

     iteration # 25     ecut=    70.00 Ry     beta= 0.30
     Davidson diagonalization with overlap
     ethr =  3.09E-11,  avg # of iterations =  3.0

     negative rho (up, down):  2.949E-02 2.598E-03

     total cpu time spent up to now is     2233.3 secs

     total energy              =    -755.39783424 Ry
     Harris-Foulkes estimate   =    -755.39783374 Ry
     estimated scf accuracy    <       0.00000007 Ry

     total magnetization       =     1.00 Bohr mag/cell
     absolute magnetization    =     1.51 Bohr mag/cell

     iteration # 26     ecut=    70.00 Ry     beta= 0.30
     Davidson diagonalization with overlap
     ethr =  3.09E-11,  avg # of iterations =  3.5

     negative rho (up, down):  2.946E-02 2.057E-03

     total cpu time spent up to now is     2345.5 secs

     total energy              =    -755.39783548 Ry
     Harris-Foulkes estimate   =    -755.39783427 Ry
     estimated scf accuracy    <       0.00000007 Ry

     total magnetization       =     1.00 Bohr mag/cell
     absolute magnetization    =     1.52 Bohr mag/cell

     iteration # 27     ecut=    70.00 Ry     beta= 0.30
     Davidson diagonalization with overlap
     ethr =  3.09E-11,  avg # of iterations =  3.0

     negative rho (up, down):  2.946E-02 2.106E-03

     total cpu time spent up to now is     2432.7 secs

     total energy              =    -755.39783581 Ry
     Harris-Foulkes estimate   =    -755.39783549 Ry
     estimated scf accuracy    <       0.00000003 Ry

     total magnetization       =     1.00 Bohr mag/cell
     absolute magnetization    =     1.52 Bohr mag/cell

     iteration # 28     ecut=    70.00 Ry     beta= 0.30
     Davidson diagonalization with overlap
     ethr =  1.41E-11,  avg # of iterations =  3.0

     negative rho (up, down):  2.946E-02 2.047E-03

     total cpu time spent up to now is     2510.5 secs

     total energy              =    -755.39783599 Ry
     Harris-Foulkes estimate   =    -755.39783582 Ry
     estimated scf accuracy    <       0.00000004 Ry

     total magnetization       =     1.00 Bohr mag/cell
     absolute magnetization    =     1.52 Bohr mag/cell

     iteration # 29     ecut=    70.00 Ry     beta= 0.30
     Davidson diagonalization with overlap
     ethr =  1.41E-11,  avg # of iterations =  2.0

     negative rho (up, down):  2.946E-02 2.023E-03

     total cpu time spent up to now is     2586.9 secs

     total energy              =    -755.39783609 Ry
     Harris-Foulkes estimate   =    -755.39783599 Ry
     estimated scf accuracy    <       0.00000003 Ry

     total magnetization       =     1.00 Bohr mag/cell
     absolute magnetization    =     1.52 Bohr mag/cell

     iteration # 30     ecut=    70.00 Ry     beta= 0.30
     Davidson diagonalization with overlap
     ethr =  1.41E-11,  avg # of iterations =  2.5

     negative rho (up, down):  2.947E-02 2.023E-03

     total cpu time spent up to now is     2663.6 secs

     total energy              =    -755.39783616 Ry
     Harris-Foulkes estimate   =    -755.39783609 Ry
     estimated scf accuracy    <       0.00000003 Ry

     total magnetization       =     1.00 Bohr mag/cell
     absolute magnetization    =     1.52 Bohr mag/cell

     iteration # 31     ecut=    70.00 Ry     beta= 0.30
     Davidson diagonalization with overlap
     ethr =  1.28E-11,  avg # of iterations =  2.5

     negative rho (up, down):  2.946E-02 1.976E-03

     total cpu time spent up to now is     2742.8 secs

     total energy              =    -755.39783620 Ry
     Harris-Foulkes estimate   =    -755.39783616 Ry
     estimated scf accuracy    <       0.00000002 Ry

     total magnetization       =     1.00 Bohr mag/cell
     absolute magnetization    =     1.52 Bohr mag/cell

     iteration # 32     ecut=    70.00 Ry     beta= 0.30
     Davidson diagonalization with overlap
     ethr =  9.70E-12,  avg # of iterations =  2.0

     negative rho (up, down):  2.947E-02 1.983E-03

     total cpu time spent up to now is     2818.9 secs

     total energy              =    -755.39783621 Ry
     Harris-Foulkes estimate   =    -755.39783620 Ry
     estimated scf accuracy    <       0.00000002 Ry

     total magnetization       =     1.00 Bohr mag/cell
     absolute magnetization    =     1.52 Bohr mag/cell

     iteration # 33     ecut=    70.00 Ry     beta= 0.30
     Davidson diagonalization with overlap
     ethr =  9.38E-12,  avg # of iterations =  3.0

     negative rho (up, down):  2.946E-02 1.952E-03

     total cpu time spent up to now is     2917.6 secs

     total energy              =    -755.39783626 Ry
     Harris-Foulkes estimate   =    -755.39783622 Ry
     estimated scf accuracy    <          4.6E-09 Ry

     total magnetization       =     1.00 Bohr mag/cell
     absolute magnetization    =     1.52 Bohr mag/cell

     iteration # 34     ecut=    70.00 Ry     beta= 0.30
     Davidson diagonalization with overlap
     ethr =  2.20E-12,  avg # of iterations =  4.0

     negative rho (up, down):  2.946E-02 1.905E-03

     total cpu time spent up to now is     3024.5 secs

     total energy              =    -755.39783627 Ry
     Harris-Foulkes estimate   =    -755.39783626 Ry
     estimated scf accuracy    <          6.1E-09 Ry

     total magnetization       =     1.00 Bohr mag/cell
     absolute magnetization    =     1.52 Bohr mag/cell

     iteration # 35     ecut=    70.00 Ry     beta= 0.30
     Davidson diagonalization with overlap
     ethr =  2.20E-12,  avg # of iterations =  3.5

     negative rho (up, down):  2.945E-02 1.921E-03

     total cpu time spent up to now is     3116.9 secs

     total energy              =    -755.39783628 Ry
     Harris-Foulkes estimate   =    -755.39783627 Ry
     estimated scf accuracy    <          4.2E-09 Ry

     total magnetization       =     1.00 Bohr mag/cell
     absolute magnetization    =     1.52 Bohr mag/cell

     iteration # 36     ecut=    70.00 Ry     beta= 0.30
     Davidson diagonalization with overlap
     ethr =  1.98E-12,  avg # of iterations =  4.0

     negative rho (up, down):  2.945E-02 1.923E-03

     total cpu time spent up to now is     3241.5 secs

     total energy              =    -755.39783629 Ry
     Harris-Foulkes estimate   =    -755.39783629 Ry
     estimated scf accuracy    <          3.9E-10 Ry

     total magnetization       =     1.00 Bohr mag/cell
     absolute magnetization    =     1.52 Bohr mag/cell

     iteration # 37     ecut=    70.00 Ry     beta= 0.30
     Davidson diagonalization with overlap
     ethr =  1.84E-13,  avg # of iterations =  4.0

     negative rho (up, down):  2.945E-02 1.919E-03

     total cpu time spent up to now is     3370.0 secs

     total energy              =    -755.39783629 Ry
     Harris-Foulkes estimate   =    -755.39783629 Ry
     estimated scf accuracy    <          1.8E-10 Ry

     total magnetization       =     1.00 Bohr mag/cell
     absolute magnetization    =     1.52 Bohr mag/cell

     iteration # 38     ecut=    70.00 Ry     beta= 0.30
     Davidson diagonalization with overlap
     ethr =  1.00E-13,  avg # of iterations =  3.0

     negative rho (up, down):  2.945E-02 1.910E-03

     total cpu time spent up to now is     3485.3 secs

     total energy              =    -755.39783629 Ry
     Harris-Foulkes estimate   =    -755.39783629 Ry
     estimated scf accuracy    <          1.8E-10 Ry

     total magnetization       =     1.00 Bohr mag/cell
     absolute magnetization    =     1.52 Bohr mag/cell

     iteration # 39     ecut=    70.00 Ry     beta= 0.30
     Davidson diagonalization with overlap
     ethr =  1.00E-13,  avg # of iterations =  3.5

     negative rho (up, down):  2.945E-02 1.908E-03

     Magnetic moment per site:
     atom:    1    charge:    0.2167    magn:   -0.0001    constr:    0.0000
     atom:    2    charge:    0.2030    magn:   -0.0002    constr:    0.0000
     atom:    3    charge:    1.7124    magn:   -0.0065    constr:    0.0000
     atom:    4    charge:    1.7104    magn:    0.0091    constr:    0.0000
     atom:    5    charge:    1.7130    magn:   -0.0039    constr:    0.0000
     atom:    6    charge:    1.7088    magn:    0.0023    constr:    0.0000
     atom:    7    charge:    1.7130    magn:   -0.0039    constr:    0.0000
     atom:    8    charge:    1.7104    magn:    0.0091    constr:    0.0000
     atom:    9    charge:    1.7124    magn:   -0.0065    constr:    0.0000
     atom:   10    charge:    1.7091    magn:    0.0307    constr:    0.0000
     atom:   11    charge:    1.7133    magn:   -0.0087    constr:    0.0000
     atom:   12    charge:    1.7091    magn:    0.0307    constr:    0.0000
     atom:   13    charge:    1.7133    magn:   -0.0087    constr:    0.0000
     atom:   14    charge:    1.7092    magn:    0.0230    constr:    0.0000
     atom:   15    charge:    1.7116    magn:   -0.0077    constr:    0.0000
     atom:   16    charge:    1.7055    magn:    0.0298    constr:    0.0000
     atom:   17    charge:    1.7217    magn:   -0.0051    constr:    0.0000
     atom:   18    charge:    1.7055    magn:    0.0298    constr:    0.0000
     atom:   19    charge:    1.7116    magn:   -0.0077    constr:    0.0000
     atom:   20    charge:    1.7092    magn:    0.0230    constr:    0.0000
     atom:   21    charge:    1.7133    magn:   -0.0087    constr:    0.0000
     atom:   22    charge:    1.7091    magn:    0.0307    constr:    0.0000
     atom:   23    charge:    1.7124    magn:   -0.0065    constr:    0.0000
     atom:   24    charge:    1.7104    magn:    0.0091    constr:    0.0000
     atom:   25    charge:    1.7116    magn:   -0.0077    constr:    0.0000
     atom:   26    charge:    1.7055    magn:    0.0298    constr:    0.0000
     atom:   27    charge:    1.9102    magn:   -0.0010    constr:    0.0000
     atom:   28    charge:    7.8481    magn:    0.1025    constr:    0.0000
     atom:   29    charge:    1.9102    magn:   -0.0010    constr:    0.0000
     atom:   30    charge:    1.7055    magn:    0.0298    constr:    0.0000
     atom:   31    charge:    1.7116    magn:   -0.0077    constr:    0.0000
     atom:   32    charge:    1.7104    magn:    0.0091    constr:    0.0000
     atom:   33    charge:    1.7130    magn:   -0.0039    constr:    0.0000
     atom:   34    charge:    1.7084    magn:    0.0066    constr:    0.0000
     atom:   35    charge:    1.7130    magn:   -0.0039    constr:    0.0000
     atom:   36    charge:    1.7088    magn:    0.0023    constr:    0.0000
     atom:   37    charge:    1.7217    magn:   -0.0051    constr:    0.0000
     atom:   38    charge:    1.7055    magn:    0.0298    constr:    0.0000
     atom:   39    charge:    1.9102    magn:   -0.0010    constr:    0.0000
     atom:   40    charge:    1.7055    magn:    0.0298    constr:    0.0000
     atom:   41    charge:    1.7217    magn:   -0.0051    constr:    0.0000
     atom:   42    charge:    1.7088    magn:    0.0023    constr:    0.0000
     atom:   43    charge:    1.7130    magn:   -0.0039    constr:    0.0000
     atom:   44    charge:    1.7084    magn:    0.0066    constr:    0.0000
     atom:   45    charge:    1.7194    magn:   -0.0029    constr:    0.0000
     atom:   46    charge:    1.7084    magn:    0.0066    constr:    0.0000
     atom:   47    charge:    1.7130    magn:   -0.0039    constr:    0.0000
     atom:   48    charge:    1.7104    magn:    0.0091    constr:    0.0000
     atom:   49    charge:    1.7116    magn:   -0.0077    constr:    0.0000
     atom:   50    charge:    1.7092    magn:    0.0230    constr:    0.0000
     atom:   51    charge:    1.7116    magn:   -0.0077    constr:    0.0000
     atom:   52    charge:    1.7104    magn:    0.0091    constr:    0.0000

     total cpu time spent up to now is     3612.2 secs

     End of self-consistent calculation

 ------ SPIN UP ------------


          k = 0.0000 0.0000 0.0000 ( 87777 PWs)   bands (ev):

   -62.7687 -37.9095 -37.9095 -36.5845 -19.6570 -18.8118 -18.8118 -18.7433
   -18.6945 -18.6944 -18.2526 -16.9504 -16.9497 -16.9497 -16.8114 -16.8114
   -16.5288 -16.0919 -16.0919 -15.9988 -15.8399 -15.8399 -15.0829 -13.8803
   -13.8769 -13.8769 -13.8510 -13.8510 -13.1354 -12.9346 -12.9346 -12.9172
   -12.5176 -12.5176 -12.1202 -11.6517 -11.6517 -11.5250 -11.1416 -11.1416
   -10.1456  -9.3323  -9.3323  -9.2432  -9.1689  -9.1689  -9.0962  -9.0690
    -9.0690  -9.0549  -8.4634  -8.4634  -8.0555  -7.9011  -7.9011  -7.8592
    -7.7043  -7.6828  -7.2504  -7.2504  -6.9575  -6.9575  -6.8613  -6.6927
    -6.6927  -6.6900  -6.5717  -6.5717  -6.5237  -6.4124  -6.4124  -6.3697
    -6.3625  -6.3625  -6.3070  -6.2129  -5.2302  -5.2302  -5.1608  -5.1608
    -4.9160  -4.9160  -4.8007  -4.7108  -4.6145  -4.6026  -4.6026  -4.2224
    -3.9847  -3.9847  -3.7560  -3.7560  -3.6550  -3.4800  -3.4489  -3.4489
    -2.8500  -2.2641  -2.2641  -2.2093  -2.2093  -1.7443  -1.6826  -1.6826
    -0.4909  -0.2416  -0.2416   1.0613   1.0896   1.0896   1.1762   1.8158
     2.0589   2.0589   2.7883   2.9159   2.9159   2.9971   3.6299   3.7936
     3.7936   4.0138   4.0138   4.0485   4.0831   4.0831   4.1375

     occupation numbers 
     1.0000   1.0000   1.0000   1.0000   1.0000   1.0000   1.0000   1.0000
     1.0000   1.0000   1.0000   1.0000   1.0000   1.0000   1.0000   1.0000
     1.0000   1.0000   1.0000   1.0000   1.0000   1.0000   1.0000   1.0000
     1.0000   1.0000   1.0000   1.0000   1.0000   1.0000   1.0000   1.0000
     1.0000   1.0000   1.0000   1.0000   1.0000   1.0000   1.0000   1.0000
     1.0000   1.0000   1.0000   1.0000   1.0000   1.0000   1.0000   1.0000
     1.0000   1.0000   1.0000   1.0000   1.0000   1.0000   1.0000   1.0000
     1.0000   1.0000   1.0000   1.0000   1.0000   1.0000   1.0000   1.0000
     1.0000   1.0000   1.0000   1.0000   1.0000   1.0000   1.0000   1.0000
     1.0000   1.0000   1.0000   1.0000   1.0000   1.0000   1.0000   1.0000
     1.0000   1.0000   1.0000   1.0000   1.0000   1.0000   1.0000   1.0000
     1.0000   1.0000   1.0000   1.0000   1.0000   1.0000   1.0000   1.0000
     1.0000   1.0000   1.0000   1.0000   1.0000   1.0000   1.0000   1.0000
     1.0000   0.5001   0.4999   0.0000   0.0000   0.0000   0.0000   0.0000
     0.0000   0.0000   0.0000   0.0000   0.0000   0.0000   0.0000   0.0000
     0.0000   0.0000   0.0000   0.0000   0.0000   0.0000   0.0000

 ------ SPIN DOWN ----------


          k = 0.0000 0.0000 0.0000 ( 87777 PWs)   bands (ev):

   -62.5716 -37.7466 -37.7466 -36.3146 -19.6344 -18.7894 -18.7894 -18.7225
   -18.6769 -18.6769 -18.2193 -16.9335 -16.9297 -16.9297 -16.7821 -16.7821
   -16.5135 -16.0636 -16.0636 -15.9820 -15.8179 -15.8179 -15.0665 -13.8464
   -13.8464 -13.8428 -13.8348 -13.8348 -13.1353 -12.9219 -12.9219 -12.9002
   -12.5072 -12.5072 -12.0996 -11.6319 -11.6319 -11.5093 -11.1266 -11.1266
   -10.1290  -9.3123  -9.3123  -9.2264  -9.1485  -9.1485  -9.0856  -9.0527
    -9.0527  -9.0434  -8.4541  -8.4541  -8.0358  -7.8864  -7.8864  -7.8479
    -7.6702  -7.6666  -7.2386  -7.2386  -6.8800  -6.8800  -6.8394  -6.6604
    -6.6604  -6.6412  -6.5569  -6.5569  -6.5093  -6.3997  -6.3997  -6.3612
    -6.3535  -6.3535  -6.2970  -6.1365  -5.2190  -5.2190  -5.0760  -5.0760
    -4.9028  -4.9028  -4.7918  -4.7020  -4.5730  -4.5523  -4.5523  -4.1854
    -3.9340  -3.9340  -3.6832  -3.6832  -3.6099  -3.4411  -3.4393  -3.4393
    -2.8150  -2.1971  -2.1971  -2.1397  -2.1397  -1.6665  -1.6665  -1.6527
    -0.4842  -0.0209  -0.0209   1.1111   1.1111   1.1371   1.2667   1.8838
     2.1294   2.1294   2.7967   2.9855   2.9855   3.0376   3.6672   3.8070
     3.8070   4.0720   4.0832   4.0832   4.0892   4.0892   4.1456

     occupation numbers 
     1.0000   1.0000   1.0000   1.0000   1.0000   1.0000   1.0000   1.0000
     1.0000   1.0000   1.0000   1.0000   1.0000   1.0000   1.0000   1.0000
     1.0000   1.0000   1.0000   1.0000   1.0000   1.0000   1.0000   1.0000
     1.0000   1.0000   1.0000   1.0000   1.0000   1.0000   1.0000   1.0000
     1.0000   1.0000   1.0000   1.0000   1.0000   1.0000   1.0000   1.0000
     1.0000   1.0000   1.0000   1.0000   1.0000   1.0000   1.0000   1.0000
     1.0000   1.0000   1.0000   1.0000   1.0000   1.0000   1.0000   1.0000
     1.0000   1.0000   1.0000   1.0000   1.0000   1.0000   1.0000   1.0000
     1.0000   1.0000   1.0000   1.0000   1.0000   1.0000   1.0000   1.0000
     1.0000   1.0000   1.0000   1.0000   1.0000   1.0000   1.0000   1.0000
     1.0000   1.0000   1.0000   1.0000   1.0000   1.0000   1.0000   1.0000
     1.0000   1.0000   1.0000   1.0000   1.0000   1.0000   1.0000   1.0000
     1.0000   1.0000   1.0000   1.0000   1.0000   1.0000   1.0000   1.0000
     1.0000   0.0000   0.0000   0.0000   0.0000   0.0000   0.0000   0.0000
     0.0000   0.0000   0.0000   0.0000   0.0000   0.0000   0.0000   0.0000
     0.0000   0.0000   0.0000   0.0000   0.0000   0.0000   0.0000

     the Fermi energy is    -0.2397 ev

!    total energy              =    -755.39783629 Ry
     Harris-Foulkes estimate   =    -755.39783629 Ry
     estimated scf accuracy    <          8.9E-11 Ry

     The total energy is the sum of the following terms:

     one-electron contribution =   -2600.27658630 Ry
     hartree contribution      =    1347.36670727 Ry
     xc contribution           =    -250.61430004 Ry
     ewald contribution        =     748.12667097 Ry
     smearing contrib. (-TS)   =      -0.00032818 Ry

     total magnetization       =     1.00 Bohr mag/cell
     absolute magnetization    =     1.52 Bohr mag/cell

     convergence has been achieved in  39 iterations

     negative rho (up, down):  2.945E-02 1.908E-03

     Forces acting on atoms (cartesian axes, Ry/au):

     atom    1 type  1   force =     0.00000011   -0.00000007    0.00709268
     atom    2 type  1   force =     0.00000006   -0.00000004    0.00658044
     atom    3 type  2   force =    -0.00166957    0.00096393    0.00004715
     atom    4 type  2   force =    -0.00877389   -0.00211485   -0.00004275
     atom    5 type  2   force =    -0.00184489   -0.00633587   -0.00008974
     atom    6 type  2   force =     0.01037571    0.00599037    0.00002376
     atom    7 type  2   force =    -0.00640973    0.00157027   -0.00008974
     atom    8 type  2   force =    -0.00621868   -0.00654099   -0.00004275
     atom    9 type  2   force =    -0.00000001   -0.00192676    0.00004715
     atom   10 type  2   force =     0.00000078   -0.00328858    0.00000932
     atom   11 type  2   force =    -0.00931410   -0.00537789   -0.00000848
     atom   12 type  2   force =    -0.00284756    0.00164404    0.00000932
     atom   13 type  2   force =     0.00000034    0.01075519   -0.00000848
     atom   14 type  2   force =     0.00000014   -0.01329593    0.00004996
     atom   15 type  2   force =    -0.00802643    0.01486797   -0.00004013
     atom   16 type  2   force =    -0.03423659   -0.03683934   -0.00010648
     atom   17 type  2   force =    -0.03195011   -0.01844756    0.00167667
     atom   18 type  2   force =    -0.04901983   -0.01122981   -0.00010644
     atom   19 type  2   force =     0.00886164   -0.01438498   -0.00004011
     atom   20 type  2   force =    -0.01151359    0.00664737    0.00004996
     atom   21 type  2   force =     0.00931238   -0.00537651   -0.00000848
     atom   22 type  2   force =     0.00284839    0.00164361    0.00000932
     atom   23 type  2   force =     0.00166862    0.00096339    0.00004715
     atom   24 type  2   force =     0.00877411   -0.00211517   -0.00004275
     atom   25 type  2   force =     0.00802601    0.01486843   -0.00004012
     atom   26 type  2   force =     0.03423662   -0.03683960   -0.00010646
     atom   27 type  2   force =    -0.00000124   -0.88710577   -0.00959984
     atom   28 type  3   force =     0.00000508   -0.00000294    0.01129059
     atom   29 type  2   force =    -0.76826087    0.44355562   -0.00959994
     atom   30 type  2   force =    -0.01478461    0.04806732   -0.00010644
     atom   31 type  2   force =     0.01688858   -0.00048191   -0.00004011
     atom   32 type  2   force =     0.00255532    0.00865603   -0.00004275
     atom   33 type  2   force =    -0.00456476    0.00476585   -0.00008974
     atom   34 type  2   force =     0.00304958    0.00176026    0.00001168
     atom   35 type  2   force =     0.00184448   -0.00633623   -0.00008974
     atom   36 type  2   force =    -0.01037612    0.00599065    0.00002375
     atom   37 type  2   force =     0.03194970   -0.01844617    0.00167666
     atom   38 type  2   force =     0.04902234   -0.01122998   -0.00010646
     atom   39 type  2   force =     0.76825551    0.44355396   -0.00959984
     atom   40 type  2   force =     0.01478551    0.04806943   -0.00010648
     atom   41 type  2   force =     0.00000100    0.03689339    0.00167667
     atom   42 type  2   force =     0.00000004   -0.01198081    0.00002376
     atom   43 type  2   force =     0.00456458    0.00476566   -0.00008974
     atom   44 type  2   force =    -0.00304930    0.00176052    0.00001167
     atom   45 type  2   force =    -0.00000013    0.00000008    0.00008016
     atom   46 type  2   force =     0.00000036   -0.00352114    0.00001168
     atom   47 type  2   force =     0.00640958    0.00157075   -0.00008974
     atom   48 type  2   force =     0.00621885   -0.00654102   -0.00004275
     atom   49 type  2   force =    -0.00886343   -0.01438494   -0.00004012
     atom   50 type  2   force =     0.01151469    0.00664784    0.00004996
     atom   51 type  2   force =    -0.01688925   -0.00048289   -0.00004013
     atom   52 type  2   force =    -0.00255543    0.00865583   -0.00004275
     The non-local contrib.  to forces
     atom    1 type  1   force =    -0.00000001    0.00000001    0.11646255
     atom    2 type  1   force =    -0.00000001    0.00000001   -0.12818222
     atom    3 type  2   force =     0.01632900   -0.00942755   -0.00003475
     atom    4 type  2   force =     0.01030935   -0.00487552    0.00010831
     atom    5 type  2   force =     0.01241714   -0.00317523   -0.00022658
     atom    6 type  2   force =    -0.00148150   -0.00085564   -0.00000126
     atom    7 type  2   force =     0.00345912    0.01234072   -0.00022658
     atom    8 type  2   force =     0.00093308    0.01136593    0.00010830
     atom    9 type  2   force =     0.00000005    0.01885451   -0.00003475
     atom   10 type  2   force =     0.00000006    0.00790141    0.00005715
     atom   11 type  2   force =    -0.00275090   -0.00158673   -0.00001379
     atom   12 type  2   force =     0.00684230   -0.00395040    0.00005714
     atom   13 type  2   force =    -0.00000130    0.00317572   -0.00001379
     atom   14 type  2   force =    -0.00000044   -0.00903883   -0.00000055
     atom   15 type  2   force =     0.01652034   -0.00143990    0.00004473
     atom   16 type  2   force =    -0.02112095   -0.01601549   -0.00148510
     atom   17 type  2   force =    -0.00479884   -0.00277036    0.00413749
     atom   18 type  2   force =    -0.02442958   -0.01028321   -0.00148499
     atom   19 type  2   force =     0.00701397    0.01502805    0.00004472
     atom   20 type  2   force =    -0.00782716    0.00451901   -0.00000056
     atom   21 type  2   force =     0.00275145   -0.00158855   -0.00001380
     atom   22 type  2   force =    -0.00684279   -0.00395076    0.00005715
     atom   23 type  2   force =    -0.01632846   -0.00942730   -0.00003475
     atom   24 type  2   force =    -0.01030925   -0.00487526    0.00010831
     atom   25 type  2   force =    -0.01652111   -0.00144060    0.00004473
     atom   26 type  2   force =     0.02112021   -0.01601518   -0.00148501
     atom   27 type  2   force =    -0.00000124   -0.84513318   -0.00628241
     atom   28 type  3   force =     0.00000165   -0.00000095    0.02421838
     atom   29 type  2   force =    -0.73190906    0.42256789   -0.00628240
     atom   30 type  2   force =    -0.00330927    0.02629824   -0.00148499
     atom   31 type  2   force =    -0.00950769   -0.01358830    0.00004472
     atom   32 type  2   force =    -0.00937664   -0.00649103    0.00010830
     atom   33 type  2   force =    -0.00895782   -0.00916605   -0.00022658
     atom   34 type  2   force =    -0.01797223   -0.01037645    0.00001777
     atom   35 type  2   force =    -0.01241691   -0.00317500   -0.00022657
     atom   36 type  2   force =     0.00148183   -0.00085553   -0.00000126
     atom   37 type  2   force =     0.00479945   -0.00277096    0.00413751
     atom   38 type  2   force =     0.02442966   -0.01028305   -0.00148501
     atom   39 type  2   force =     0.73190618    0.42256766   -0.00628241
     atom   40 type  2   force =     0.00330935    0.02629902   -0.00148510
     atom   41 type  2   force =    -0.00000022    0.00554110    0.00413749
     atom   42 type  2   force =     0.00000025    0.00171083   -0.00000126
     atom   43 type  2   force =     0.00895840   -0.00916595   -0.00022658
     atom   44 type  2   force =     0.01797259   -0.01037648    0.00001778
     atom   45 type  2   force =     0.00000030   -0.00000017    0.00006034
     atom   46 type  2   force =     0.00000015    0.02075264    0.00001777
     atom   47 type  2   force =    -0.00345883    0.01234086   -0.00022657
     atom   48 type  2   force =    -0.00093252    0.01136571    0.00010831
     atom   49 type  2   force =    -0.00701296    0.01502800    0.00004473
     atom   50 type  2   force =     0.00782764    0.00451980   -0.00000055
     atom   51 type  2   force =     0.00950716   -0.01358709    0.00004473
     atom   52 type  2   force =     0.00937700   -0.00649040    0.00010831
     The ionic contribution  to forces
     atom    1 type  1   force =     0.00000000   -0.00000000    3.22065282
     atom    2 type  1   force =     0.00000000   -0.00000000    3.82865839
     atom    3 type  2   force =     0.05477821   -0.03162621   -0.02888306
     atom    4 type  2   force =    -0.27749302   -0.48063202   -0.04118086
     atom    5 type  2   force =    -0.38174389   -0.31810432   -0.03668304
     atom    6 type  2   force =    -0.84217448   -0.48622966   -0.05937804
     atom    7 type  2   force =    -0.46635837   -0.17154775   -0.03668304
     atom    8 type  2   force =    -0.55498605   -0.00000000   -0.04118086
     atom    9 type  2   force =    -0.00000000    0.06325243   -0.02888306
     atom   10 type  2   force =    -0.00000000    0.11641204   -0.02485207
     atom   11 type  2   force =     0.28126355    0.16238759   -0.02815158
     atom   12 type  2   force =     0.10081578   -0.05820602   -0.02485207
     atom   13 type  2   force =    -0.00000000   -0.32477517   -0.02815158
     atom   14 type  2   force =    -0.00000000   -0.97245932   -0.05937804
     atom   15 type  2   force =    -0.43385582   -1.27298504   -0.08315627
     atom   16 type  2   force =    -1.71470145   -2.96995004   -0.21001972
     atom   17 type  2   force =    -2.20822313   -1.27491822   -0.15932094
     atom   18 type  2   force =    -3.42940290   -0.00000000   -0.21001972
     atom   19 type  2   force =    -1.31936530    0.26076236   -0.08315627
     atom   20 type  2   force =    -0.84217448    0.48622966   -0.05937804
     atom   21 type  2   force =    -0.28126355    0.16238759   -0.02815158
     atom   22 type  2   force =    -0.10081578   -0.05820602   -0.02485207
     atom   23 type  2   force =    -0.05477821   -0.03162621   -0.02888306
     atom   24 type  2   force =     0.27749302   -0.48063202   -0.04118086
     atom   25 type  2   force =     0.43385582   -1.27298504   -0.08315627
     atom   26 type  2   force =     1.71470145   -2.96995004   -0.21001972
     atom   27 type  2   force =    -0.00000000  -10.16319428   -0.43060188
     atom   28 type  3   force =    -0.00000000   -0.00000001   -2.35492931
     atom   29 type  2   force =    -8.80158444    5.08159715   -0.43060188
     atom   30 type  2   force =    -1.71470145    2.96995003   -0.21001972
     atom   31 type  2   force =    -0.88550947    1.01222269   -0.08315627
     atom   32 type  2   force =    -0.27749302    0.48063201   -0.04118086
     atom   33 type  2   force =    -0.08461447    0.48965207   -0.03668304
     atom   34 type  2   force =     0.10081578    0.05820602   -0.02485207
     atom   35 type  2   force =     0.38174389   -0.31810432   -0.03668304
     atom   36 type  2   force =     0.84217448   -0.48622966   -0.05937804
     atom   37 type  2   force =     2.20822313   -1.27491822   -0.15932094
     atom   38 type  2   force =     3.42940290   -0.00000000   -0.21001972
     atom   39 type  2   force =     8.80158444    5.08159715   -0.43060188
     atom   40 type  2   force =     1.71470145    2.96995003   -0.21001972
     atom   41 type  2   force =    -0.00000000    2.54983644   -0.15932094
     atom   42 type  2   force =    -0.00000000    0.97245932   -0.05937804
     atom   43 type  2   force =     0.08461447    0.48965207   -0.03668304
     atom   44 type  2   force =    -0.10081578    0.05820602   -0.02485207
     atom   45 type  2   force =     0.00000000    0.00000000   -0.02188954
     atom   46 type  2   force =     0.00000000   -0.11641204   -0.02485207
     atom   47 type  2   force =     0.46635837   -0.17154775   -0.03668304
     atom   48 type  2   force =     0.55498605   -0.00000000   -0.04118086
     atom   49 type  2   force =     1.31936530    0.26076236   -0.08315627
     atom   50 type  2   force =     0.84217448    0.48622966   -0.05937804
     atom   51 type  2   force =     0.88550947    1.01222269   -0.08315627
     atom   52 type  2   force =     0.27749302    0.48063201   -0.04118086
     The local contribution  to forces
     atom    1 type  1   force =     0.00000048   -0.00000028   -3.33002532
     atom    2 type  1   force =     0.00000031   -0.00000018   -3.69389852
     atom    3 type  2   force =    -0.07251332    0.04186559    0.02896024
     atom    4 type  2   force =     0.25858211    0.48332668    0.04102949
     atom    5 type  2   force =     0.36769811    0.31492076    0.03681186
     atom    6 type  2   force =     0.85399476    0.49305364    0.05940212
     atom    7 type  2   force =     0.45657659    0.16097534    0.03681186
     atom    8 type  2   force =     0.54786046   -0.01772559    0.04102951
     atom    9 type  2   force =    -0.00000190   -0.08372857    0.02896023
     atom   10 type  2   force =    -0.00000058   -0.12745732    0.02480165
     atom   11 type  2   force =    -0.28783621   -0.16618642    0.02815364
     atom   12 type  2   force =    -0.11037952    0.06372764    0.02480166
     atom   13 type  2   force =     0.00000356    0.33236668    0.02815364
     atom   14 type  2   force =     0.00000193    0.96810222    0.05942517
     atom   15 type  2   force =     0.40963442    1.28916788    0.08306917
     atom   16 type  2   force =     1.70135231    2.94896618    0.21135483
     atom   17 type  2   force =     2.18094165    1.25916295    0.15693524
     atom   18 type  2   force =     3.40455759   -0.00107292    0.21135474
     atom   19 type  2   force =     1.32126412   -0.28983386    0.08306921
     atom   20 type  2   force =     0.83839878   -0.48404976    0.05942519
     atom   21 type  2   force =     0.28783059   -0.16617907    0.02815365
     atom   22 type  2   force =     0.11038099    0.06372916    0.02480165
     atom   23 type  2   force =     0.07251011    0.04186593    0.02896023
     atom   24 type  2   force =    -0.25858226    0.48332714    0.04102949
     atom   25 type  2   force =    -0.40963219    1.28917153    0.08306917
     atom   26 type  2   force =    -1.70134823    2.94896688    0.21135476
     atom   27 type  2   force =     0.00000356   10.09933322    0.42718238
     atom   28 type  3   force =     0.00001580   -0.00000921    2.34174172
     atom   29 type  2   force =     8.74628038   -5.04966733    0.42718214
     atom   30 type  2   force =     1.70320797   -2.94789691    0.21135474
     atom   31 type  2   force =     0.91163554   -0.99933137    0.08306921
     atom   32 type  2   force =     0.28928104   -0.46559828    0.04102951
     atom   33 type  2   force =     0.08887956   -0.47589459    0.03681186
     atom   34 type  2   force =    -0.08006838   -0.04622673    0.02484278
     atom   35 type  2   force =    -0.36769991    0.31492124    0.03681184
     atom   36 type  2   force =    -0.85399774    0.49305582    0.05940209
     atom   37 type  2   force =    -2.18094364    1.25916840    0.15693519
     atom   38 type  2   force =    -3.40455435   -0.00107266    0.21135476
     atom   39 type  2   force =    -8.74627735   -5.04966970    0.42718238
     atom   40 type  2   force =    -1.70320347   -2.94789742    0.21135483
     atom   41 type  2   force =     0.00000372   -2.51833235    0.15693524
     atom   42 type  2   force =     0.00000040   -0.98610797    0.05940212
     atom   43 type  2   force =    -0.08888033   -0.47589628    0.03681186
     atom   44 type  2   force =     0.08006748   -0.04622699    0.02484276
     atom   45 type  2   force =    -0.00000108    0.00000062    0.02190555
     atom   46 type  2   force =    -0.00000067    0.09245462    0.02484278
     atom   47 type  2   force =    -0.45657975    0.16097685    0.03681184
     atom   48 type  2   force =    -0.54786471   -0.01772476    0.04102949
     atom   49 type  2   force =    -1.32127139   -0.28983388    0.08306917
     atom   50 type  2   force =    -0.83840015   -0.48405279    0.05942517
     atom   51 type  2   force =    -0.91163492   -0.99933775    0.08306917
     atom   52 type  2   force =    -0.28928212   -0.46560202    0.04102949
     The core correction contribution to forces
     atom    1 type  1   force =     0.00000000    0.00000000    0.00000000
     atom    2 type  1   force =     0.00000000    0.00000000    0.00000000
     atom    3 type  2   force =    -0.00026400    0.00015242    0.00000205
     atom    4 type  2   force =    -0.00017157    0.00006643   -0.00000237
     atom    5 type  2   force =    -0.00021619    0.00002291    0.00000535
     atom    6 type  2   force =     0.00003652    0.00002109   -0.00000170
     atom    7 type  2   force =    -0.00008826   -0.00019868    0.00000535
     atom    8 type  2   force =    -0.00002826   -0.00018180   -0.00000237
     atom    9 type  2   force =    -0.00000000   -0.00030483    0.00000205
     atom   10 type  2   force =     0.00000000   -0.00014508   -0.00000009
     atom   11 type  2   force =     0.00000887    0.00000510    0.00000056
     atom   12 type  2   force =    -0.00012563    0.00007253   -0.00000009
     atom   13 type  2   force =     0.00000002   -0.00001023    0.00000056
     atom   14 type  2   force =     0.00000001    0.00010121    0.00000071
     atom   15 type  2   force =    -0.00032333    0.00012483   -0.00000044
     atom   16 type  2   force =     0.00023589    0.00015890    0.00004081
     atom   17 type  2   force =     0.00013079    0.00007550   -0.00007781
     atom   18 type  2   force =     0.00025556    0.00012484    0.00004081
     atom   19 type  2   force =    -0.00005358   -0.00034244   -0.00000044
     atom   20 type  2   force =     0.00008765   -0.00005060    0.00000071
     atom   21 type  2   force =    -0.00000889    0.00000513    0.00000056
     atom   22 type  2   force =     0.00012564    0.00007253   -0.00000009
     atom   23 type  2   force =     0.00026399    0.00015241    0.00000205
     atom   24 type  2   force =     0.00017157    0.00006642   -0.00000237
     atom   25 type  2   force =     0.00032334    0.00012484   -0.00000044
     atom   26 type  2   force =    -0.00023588    0.00015889    0.00004081
     atom   27 type  2   force =     0.00000002    0.02188661    0.00009954
     atom   28 type  3   force =     0.00000006   -0.00000004    0.00025861
     atom   29 type  2   force =     0.01895438   -0.01094331    0.00009953
     atom   30 type  2   force =     0.00001967   -0.00028374    0.00004081
     atom   31 type  2   force =     0.00026978    0.00021762   -0.00000044
     atom   32 type  2   force =     0.00014331    0.00011538   -0.00000237
     atom   33 type  2   force =     0.00012793    0.00017577    0.00000535
     atom   34 type  2   force =     0.00027388    0.00015813    0.00000052
     atom   35 type  2   force =     0.00021618    0.00002291    0.00000535
     atom   36 type  2   force =    -0.00003652    0.00002109   -0.00000170
     atom   37 type  2   force =    -0.00013080    0.00007552   -0.00007781
     atom   38 type  2   force =    -0.00025554    0.00012483    0.00004081
     atom   39 type  2   force =    -0.01895435   -0.01094332    0.00009954
     atom   40 type  2   force =    -0.00001967   -0.00028373    0.00004081
     atom   41 type  2   force =     0.00000001   -0.00015102   -0.00007781
     atom   42 type  2   force =    -0.00000001   -0.00004217   -0.00000170
     atom   43 type  2   force =    -0.00012794    0.00017577    0.00000535
     atom   44 type  2   force =    -0.00027389    0.00015813    0.00000052
     atom   45 type  2   force =    -0.00000000    0.00000000    0.00000113
     atom   46 type  2   force =    -0.00000000   -0.00031625    0.00000052
     atom   47 type  2   force =     0.00008825   -0.00019868    0.00000535
     atom   48 type  2   force =     0.00002826   -0.00018179   -0.00000237
     atom   49 type  2   force =     0.00005356   -0.00034244   -0.00000044
     atom   50 type  2   force =    -0.00008765   -0.00005061    0.00000071
     atom   51 type  2   force =    -0.00026977    0.00021760   -0.00000044
     atom   52 type  2   force =    -0.00014331    0.00011537   -0.00000237
     The Hubbard contrib.    to forces
     atom    1 type  1   force =     0.00000000    0.00000000    0.00000000
     atom    2 type  1   force =     0.00000000    0.00000000    0.00000000
     atom    3 type  2   force =     0.00000000    0.00000000    0.00000000
     atom    4 type  2   force =     0.00000000    0.00000000    0.00000000
     atom    5 type  2   force =     0.00000000    0.00000000    0.00000000
     atom    6 type  2   force =     0.00000000    0.00000000    0.00000000
     atom    7 type  2   force =     0.00000000    0.00000000    0.00000000
     atom    8 type  2   force =     0.00000000    0.00000000    0.00000000
     atom    9 type  2   force =     0.00000000    0.00000000    0.00000000
     atom   10 type  2   force =     0.00000000    0.00000000    0.00000000
     atom   11 type  2   force =     0.00000000    0.00000000    0.00000000
     atom   12 type  2   force =     0.00000000    0.00000000    0.00000000
     atom   13 type  2   force =     0.00000000    0.00000000    0.00000000
     atom   14 type  2   force =     0.00000000    0.00000000    0.00000000
     atom   15 type  2   force =     0.00000000    0.00000000    0.00000000
     atom   16 type  2   force =     0.00000000    0.00000000    0.00000000
     atom   17 type  2   force =     0.00000000    0.00000000    0.00000000
     atom   18 type  2   force =     0.00000000    0.00000000    0.00000000
     atom   19 type  2   force =     0.00000000    0.00000000    0.00000000
     atom   20 type  2   force =     0.00000000    0.00000000    0.00000000
     atom   21 type  2   force =     0.00000000    0.00000000    0.00000000
     atom   22 type  2   force =     0.00000000    0.00000000    0.00000000
     atom   23 type  2   force =     0.00000000    0.00000000    0.00000000
     atom   24 type  2   force =     0.00000000    0.00000000    0.00000000
     atom   25 type  2   force =     0.00000000    0.00000000    0.00000000
     atom   26 type  2   force =     0.00000000    0.00000000    0.00000000
     atom   27 type  2   force =     0.00000000    0.00000000    0.00000000
     atom   28 type  3   force =     0.00000000    0.00000000    0.00000000
     atom   29 type  2   force =     0.00000000    0.00000000    0.00000000
     atom   30 type  2   force =     0.00000000    0.00000000    0.00000000
     atom   31 type  2   force =     0.00000000    0.00000000    0.00000000
     atom   32 type  2   force =     0.00000000    0.00000000    0.00000000
     atom   33 type  2   force =     0.00000000    0.00000000    0.00000000
     atom   34 type  2   force =     0.00000000    0.00000000    0.00000000
     atom   35 type  2   force =     0.00000000    0.00000000    0.00000000
     atom   36 type  2   force =     0.00000000    0.00000000    0.00000000
     atom   37 type  2   force =     0.00000000    0.00000000    0.00000000
     atom   38 type  2   force =     0.00000000    0.00000000    0.00000000
     atom   39 type  2   force =     0.00000000    0.00000000    0.00000000
     atom   40 type  2   force =     0.00000000    0.00000000    0.00000000
     atom   41 type  2   force =     0.00000000    0.00000000    0.00000000
     atom   42 type  2   force =     0.00000000    0.00000000    0.00000000
     atom   43 type  2   force =     0.00000000    0.00000000    0.00000000
     atom   44 type  2   force =     0.00000000    0.00000000    0.00000000
     atom   45 type  2   force =     0.00000000    0.00000000    0.00000000
     atom   46 type  2   force =     0.00000000    0.00000000    0.00000000
     atom   47 type  2   force =     0.00000000    0.00000000    0.00000000
     atom   48 type  2   force =     0.00000000    0.00000000    0.00000000
     atom   49 type  2   force =     0.00000000    0.00000000    0.00000000
     atom   50 type  2   force =     0.00000000    0.00000000    0.00000000
     atom   51 type  2   force =     0.00000000    0.00000000    0.00000000
     atom   52 type  2   force =     0.00000000    0.00000000    0.00000000
     The SCF correction term to forces
     atom    1 type  1   force =    -0.00000033    0.00000019   -0.00000007
     atom    2 type  1   force =    -0.00000021    0.00000012    0.00000009
     atom    3 type  2   force =     0.00000057   -0.00000033   -0.00000002
     atom    4 type  2   force =    -0.00000074   -0.00000043   -0.00000001
     atom    5 type  2   force =    -0.00000003   -0.00000001   -0.00000002
     atom    6 type  2   force =     0.00000043    0.00000093   -0.00000004
     atom    7 type  2   force =     0.00000121    0.00000062   -0.00000003
     atom    8 type  2   force =     0.00000211    0.00000046   -0.00000002
     atom    9 type  2   force =     0.00000187   -0.00000032   -0.00000002
     atom   10 type  2   force =     0.00000131    0.00000035   -0.00000001
     atom   11 type  2   force =     0.00000062    0.00000256   -0.00000000
     atom   12 type  2   force =    -0.00000047    0.00000027   -0.00000002
     atom   13 type  2   force =    -0.00000190   -0.00000181   -0.00000000
     atom   14 type  2   force =    -0.00000134   -0.00000122   -0.00000002
     atom   15 type  2   force =    -0.00000201    0.00000019   -0.00000001
     atom   16 type  2   force =    -0.00000237    0.00000108    0.00000000
     atom   17 type  2   force =    -0.00000056    0.00000256   -0.00000002
     atom   18 type  2   force =    -0.00000048    0.00000147    0.00000002
     atom   19 type  2   force =     0.00000244    0.00000090   -0.00000003
     atom   20 type  2   force =     0.00000165   -0.00000095   -0.00000003
     atom   21 type  2   force =     0.00000280   -0.00000162   -0.00000001
     atom   22 type  2   force =     0.00000035   -0.00000131   -0.00000001
     atom   23 type  2   force =     0.00000121   -0.00000145   -0.00000002
     atom   24 type  2   force =     0.00000106   -0.00000147   -0.00000001
     atom   25 type  2   force =     0.00000016   -0.00000232   -0.00000000
     atom   26 type  2   force =    -0.00000092   -0.00000017   -0.00000000
     atom   27 type  2   force =    -0.00000355    0.00000185   -0.00000015
     atom   28 type  3   force =    -0.00001244    0.00000718   -0.00000151
     atom   29 type  2   force =    -0.00000210    0.00000121   -0.00000001
     atom   30 type  2   force =    -0.00000151   -0.00000032    0.00000002
     atom   31 type  2   force =     0.00000045   -0.00000257   -0.00000003
     atom   32 type  2   force =     0.00000066   -0.00000206   -0.00000002
     atom   33 type  2   force =     0.00000007   -0.00000135   -0.00000003
     atom   34 type  2   force =     0.00000055   -0.00000071   -0.00000002
     atom   35 type  2   force =     0.00000125   -0.00000108   -0.00000001
     atom   36 type  2   force =     0.00000186   -0.00000108   -0.00000002
     atom   37 type  2   force =     0.00000160   -0.00000092    0.00000001
     atom   38 type  2   force =    -0.00000032    0.00000088   -0.00000000
     atom   39 type  2   force =    -0.00000338    0.00000215   -0.00000015
     atom   40 type  2   force =    -0.00000212    0.00000151    0.00000000
     atom   41 type  2   force =    -0.00000249   -0.00000080   -0.00000002
     atom   42 type  2   force =    -0.00000059   -0.00000084   -0.00000004
     atom   43 type  2   force =    -0.00000001    0.00000003   -0.00000002
     atom   44 type  2   force =     0.00000031   -0.00000018   -0.00000001
     atom   45 type  2   force =     0.00000067   -0.00000039   -0.00000001
     atom   46 type  2   force =     0.00000089   -0.00000012   -0.00000002
     atom   47 type  2   force =     0.00000156   -0.00000055   -0.00000001
     atom   48 type  2   force =     0.00000180   -0.00000018   -0.00000001
     atom   49 type  2   force =     0.00000209    0.00000102   -0.00000000
     atom   50 type  2   force =     0.00000039    0.00000177   -0.00000002
     atom   51 type  2   force =    -0.00000116    0.00000165   -0.00000001
     atom   52 type  2   force =     0.00000000    0.00000086   -0.00000001

     Total force =     1.544181     Total SCF correction =     0.000020

     BFGS Geometry Optimization

     number of scf cycles    =   1
     number of bfgs steps    =   0

     energy   new            =    -755.3978362892 Ry

     new trust radius        =       0.5000000000 bohr
     new conv_thr            =            1.0E-10 Ry


ATOMIC_POSITIONS (angstrom)
H        2.465297384   5.693360335   2.102115329
H        2.465297369   5.693360344   2.854034576
C       -0.000497934   0.000287482   0.000014063
C       -0.002616735   1.422709354  -0.000012749
C       -1.233198897   2.133120516  -0.000026764
C       -1.229554212   3.560136798   0.000007085
C       -2.467208996   4.270488585  -0.000026764
C       -2.467152018   5.691409563  -0.000012749
C       -3.697946027   6.404455758   0.000014062
C       -3.697945792   7.827389697   0.000002780
C       -4.933372548   8.538436624  -0.000002528
C       -4.931443960   9.963870942   0.000002780
C        2.465297451   0.003207641  -0.000002528
C        2.465297393   1.419374694   0.000014901
C        1.230254863   2.139444374  -0.000011967
C        1.222437914   3.547363212  -0.000031757
C       -0.009528838   4.264518444   0.000500051
C       -0.014619732   5.690011163  -0.000031745
C       -1.230005769   6.400740205  -0.000011963
C       -1.236082502   7.830353009   0.000014899
C       -2.462520013   8.538437036  -0.000002528
C       -2.464447844   9.963870815   0.000002780
C        4.931092352   0.000287322   0.000014062
C        4.933211501   1.422709258  -0.000012750
C        3.700339711   2.139444510  -0.000011966
C        3.708156796   3.547363136  -0.000031752
C        2.465296981   4.005448785  -0.002863067
V        2.465298867   5.693359479   0.003367318
C        1.003521638   6.537316956  -0.002863097
C        1.228239294   7.842706144  -0.000031745
C        0.005036870   8.539896805  -0.000011963
C        0.000762102   9.965962206  -0.000012749
C        7.394530651   0.001421374  -0.000026764
C        7.396801560   1.423865072   0.000003483
C        6.163793475   2.133120408  -0.000026764
C        6.160148790   3.560136881   0.000007085
C        4.940123417   4.264518859   0.000500049
C        4.945215181   5.690011111  -0.000031752
C        3.927071464   6.537316460  -0.002863067
C        3.702355674   7.842706771  -0.000031757
C        2.465297649   8.551043659   0.000500051
C        2.465297361   9.959807449   0.000007085
C        9.862550746   0.001421315  -0.000026764
C        9.860279972   1.423865148   0.000003482
C        8.628540686   2.135010156   0.000023907
C        8.628540831   3.557300072   0.000003483
C        7.397803650   4.270488728  -0.000026764
C        7.397746766   5.691409554  -0.000012750
C        6.160599935   6.400740217  -0.000011966
C        6.166677529   7.830353148   0.000014901
C        4.925557629   8.539896513  -0.000011967
C        4.929832565   9.965962147  -0.000012749



     Writing output data file vanadio-top-2.1.save/
     NEW-OLD atomic charge density approx. for the potential

     Check: negative core charge=   -0.000002

     negative rho (up, down):  3.006E-02 5.953E-04

     total cpu time spent up to now is     3684.7 secs

     Self-consistent Calculation

     iteration #  1     ecut=    70.00 Ry     beta= 0.30
     Davidson diagonalization with overlap
     ethr =  1.00E-06,  avg # of iterations =  9.0

     negative rho (up, down):  2.250E-02 2.169E-02

     total cpu time spent up to now is     3943.7 secs

     total energy              =    -755.30990427 Ry
     Harris-Foulkes estimate   =    -756.33244419 Ry
     estimated scf accuracy    <       2.16963996 Ry

     total magnetization       =     1.00 Bohr mag/cell
     absolute magnetization    =     1.24 Bohr mag/cell

     iteration #  2     ecut=    70.00 Ry     beta= 0.30
     Davidson diagonalization with overlap
     ethr =  1.03E-03,  avg # of iterations =  4.0

     negative rho (up, down):  3.984E-02 3.090E-03

     total cpu time spent up to now is     4063.6 secs

     total energy              =    -754.72942983 Ry
     Harris-Foulkes estimate   =    -756.80342798 Ry
     estimated scf accuracy    <      13.81970184 Ry

     total magnetization       =     1.00 Bohr mag/cell
     absolute magnetization    =     1.21 Bohr mag/cell

     iteration #  3     ecut=    70.00 Ry     beta= 0.30
     Davidson diagonalization with overlap
     ethr =  1.03E-03,  avg # of iterations =  4.0

     negative rho (up, down):  2.563E-02 3.200E-03

     total cpu time spent up to now is     4159.8 secs

     total energy              =    -755.97629764 Ry
     Harris-Foulkes estimate   =    -756.04870865 Ry
     estimated scf accuracy    <       0.53329087 Ry

     total magnetization       =     1.00 Bohr mag/cell
     absolute magnetization    =     1.28 Bohr mag/cell

     iteration #  4     ecut=    70.00 Ry     beta= 0.30
     Davidson diagonalization with overlap
     ethr =  2.53E-04,  avg # of iterations =  2.0

     negative rho (up, down):  1.334E-02 4.545E-03

     total cpu time spent up to now is     4250.0 secs

     total energy              =    -755.98019498 Ry
     Harris-Foulkes estimate   =    -755.99813565 Ry
[...]
     atom   32 type  2   force =     0.10601275   -0.30425924    0.86645320
     atom   33 type  2   force =     0.00779194   -0.26974772    0.67681308
     atom   34 type  2   force =    -0.07173213   -0.03907885    0.80671056
     atom   35 type  2   force =    -0.22814236    0.13933559    0.67625891
     atom   36 type  2   force =    -0.50717826    0.29281950    0.62936463
     atom   37 type  2   force =    -0.95546055    0.55163540    0.30234959
     atom   38 type  2   force =    -1.44130335    0.27852339    0.68051705
     atom   39 type  2   force =    -2.13680230   -1.23072233    1.12009601
     atom   40 type  2   force =    -0.47812860   -1.39132411    0.68094351
     atom   41 type  2   force =    -0.00110133   -1.10185965    0.30171457
     atom   42 type  2   force =     0.00006598   -0.58507741    0.62977687
     atom   43 type  2   force =    -0.00954164   -0.26815804    0.67681558
     atom   44 type  2   force =     0.07051490   -0.04071180    0.80622917
     atom   45 type  2   force =    -0.00051350    0.00029647    0.74069720
     atom   46 type  2   force =    -0.00202279    0.08166127    0.80671056
     atom   47 type  2   force =    -0.23473934    0.12790929    0.67625891
     atom   48 type  2   force =    -0.31577637    0.05840149    0.86656403
     atom   49 type  2   force =    -0.72156689   -0.18345320    0.96404639
     atom   50 type  2   force =    -0.42699017   -0.25032757    0.87402994
     atom   51 type  2   force =    -0.52311615   -0.52920646    0.96331504
     atom   52 type  2   force =    -0.10518367   -0.30585789    0.86652390
     The core correction contribution to forces
     atom    1 type  1   force =     0.00000000    0.00000000    0.00000000
     atom    2 type  1   force =     0.00000000    0.00000000    0.00000000
     atom    3 type  2   force =    -0.00022103    0.00012761    0.00023303
     atom    4 type  2   force =     0.00015225   -0.00014635    0.00037113
     atom    5 type  2   force =    -0.00017434   -0.00015565    0.00030115
     atom    6 type  2   force =     0.00022775    0.00012809    0.00012564
     atom    7 type  2   force =    -0.00021583   -0.00005789    0.00030136
     atom    8 type  2   force =    -0.00005851    0.00018831    0.00037049
     atom    9 type  2   force =     0.00000505   -0.00022538    0.00023249
     atom   10 type  2   force =     0.00001585   -0.00000573    0.00031673
     atom   11 type  2   force =    -0.00014914   -0.00005661    0.00024497
     atom   12 type  2   force =     0.00003209   -0.00001853    0.00031685
     atom   13 type  2   force =    -0.00002555    0.00015747    0.00024497
     atom   14 type  2   force =     0.00002781   -0.00035989    0.00041739
     atom   15 type  2   force =    -0.00046994    0.00031054    0.00014296
     atom   16 type  2   force =     0.00097276   -0.00056407   -0.00077552
     atom   17 type  2   force =    -0.00040933   -0.00022732    0.00009649
     atom   18 type  2   force =    -0.00000528    0.00110808   -0.00077596
     atom   19 type  2   force =     0.00003985   -0.00053881    0.00014278
     atom   20 type  2   force =    -0.00030789    0.00017776    0.00041654
     atom   21 type  2   force =     0.00012606   -0.00007278    0.00024408
     atom   22 type  2   force =     0.00001289   -0.00001087    0.00031673
     atom   23 type  2   force =     0.00019771    0.00010832    0.00023249
     atom   24 type  2   force =    -0.00012164   -0.00013815    0.00037073
     atom   25 type  2   force =     0.00042401    0.00030358    0.00014311
     atom   26 type  2   force =    -0.00093461   -0.00056801   -0.00077904
     atom   27 type  2   force =    -0.00002101    0.00347027    0.00266411
     atom   28 type  3   force =     0.00000368   -0.00000212    0.03940002
     atom   29 type  2   force =     0.00299927   -0.00173163    0.00266028
     atom   30 type  2   force =    -0.00096226   -0.00054947   -0.00077596
     atom   31 type  2   force =     0.00048655    0.00023489    0.00014278
     atom   32 type  2   force =    -0.00019233   -0.00004348    0.00037049
     atom   33 type  2   force =    -0.00005778    0.00021587    0.00030136
     atom   34 type  2   force =     0.00011712    0.00008415    0.00019152
     atom   35 type  2   force =     0.00016844   -0.00017644    0.00030054
     atom   36 type  2   force =    -0.00023038    0.00013301    0.00012602
     atom   37 type  2   force =     0.00039355   -0.00022721    0.00009623
     atom   38 type  2   force =     0.00002460    0.00109340   -0.00077904
     atom   39 type  2   force =    -0.00301585   -0.00171694    0.00266411
     atom   40 type  2   force =     0.00097488   -0.00056041   -0.00077552
     atom   41 type  2   force =    -0.00000779    0.00046815    0.00009649
     atom   42 type  2   force =     0.00000294   -0.00026129    0.00012564
     atom   43 type  2   force =     0.00004762    0.00022881    0.00030115
     atom   44 type  2   force =    -0.00012119    0.00006997    0.00019163
     atom   45 type  2   force =     0.00000048   -0.00000028    0.00025785
     atom   46 type  2   force =    -0.00001432   -0.00014351    0.00019152
     atom   47 type  2   force =     0.00023702   -0.00005765    0.00030054
     atom   48 type  2   force =     0.00005882    0.00017442    0.00037073
     atom   49 type  2   force =    -0.00005090   -0.00051899    0.00014311
     atom   50 type  2   force =     0.00032558    0.00015586    0.00041739
     atom   51 type  2   force =    -0.00050391    0.00025171    0.00014296
     atom   52 type  2   force =     0.00020287   -0.00005867    0.00037113
     The Hubbard contrib.    to forces
     atom    1 type  1   force =     0.00000000    0.00000000    0.00000000
     atom    2 type  1   force =     0.00000000    0.00000000    0.00000000
     atom    3 type  2   force =     0.00000000    0.00000000    0.00000000
     atom    4 type  2   force =     0.00000000    0.00000000    0.00000000
     atom    5 type  2   force =     0.00000000    0.00000000    0.00000000
     atom    6 type  2   force =     0.00000000    0.00000000    0.00000000
     atom    7 type  2   force =     0.00000000    0.00000000    0.00000000
     atom    8 type  2   force =     0.00000000    0.00000000    0.00000000
     atom    9 type  2   force =     0.00000000    0.00000000    0.00000000
     atom   10 type  2   force =     0.00000000    0.00000000    0.00000000
     atom   11 type  2   force =     0.00000000    0.00000000    0.00000000
     atom   12 type  2   force =     0.00000000    0.00000000    0.00000000
     atom   13 type  2   force =     0.00000000    0.00000000    0.00000000
     atom   14 type  2   force =     0.00000000    0.00000000    0.00000000
     atom   15 type  2   force =     0.00000000    0.00000000    0.00000000
     atom   16 type  2   force =     0.00000000    0.00000000    0.00000000
     atom   17 type  2   force =     0.00000000    0.00000000    0.00000000
     atom   18 type  2   force =     0.00000000    0.00000000    0.00000000
     atom   19 type  2   force =     0.00000000    0.00000000    0.00000000
     atom   20 type  2   force =     0.00000000    0.00000000    0.00000000
     atom   21 type  2   force =     0.00000000    0.00000000    0.00000000
     atom   22 type  2   force =     0.00000000    0.00000000    0.00000000
     atom   23 type  2   force =     0.00000000    0.00000000    0.00000000
     atom   24 type  2   force =     0.00000000    0.00000000    0.00000000
     atom   25 type  2   force =     0.00000000    0.00000000    0.00000000
     atom   26 type  2   force =     0.00000000    0.00000000    0.00000000
     atom   27 type  2   force =     0.00000000    0.00000000    0.00000000
     atom   28 type  3   force =     0.00000000    0.00000000    0.00000000
     atom   29 type  2   force =     0.00000000    0.00000000    0.00000000
     atom   30 type  2   force =     0.00000000    0.00000000    0.00000000
     atom   31 type  2   force =     0.00000000    0.00000000    0.00000000
     atom   32 type  2   force =     0.00000000    0.00000000    0.00000000
     atom   33 type  2   force =     0.00000000    0.00000000    0.00000000
     atom   34 type  2   force =     0.00000000    0.00000000    0.00000000
     atom   35 type  2   force =     0.00000000    0.00000000    0.00000000
     atom   36 type  2   force =     0.00000000    0.00000000    0.00000000
     atom   37 type  2   force =     0.00000000    0.00000000    0.00000000
     atom   38 type  2   force =     0.00000000    0.00000000    0.00000000
     atom   39 type  2   force =     0.00000000    0.00000000    0.00000000
     atom   40 type  2   force =     0.00000000    0.00000000    0.00000000
     atom   41 type  2   force =     0.00000000    0.00000000    0.00000000
     atom   42 type  2   force =     0.00000000    0.00000000    0.00000000
     atom   43 type  2   force =     0.00000000    0.00000000    0.00000000
     atom   44 type  2   force =     0.00000000    0.00000000    0.00000000
     atom   45 type  2   force =     0.00000000    0.00000000    0.00000000
     atom   46 type  2   force =     0.00000000    0.00000000    0.00000000
     atom   47 type  2   force =     0.00000000    0.00000000    0.00000000
     atom   48 type  2   force =     0.00000000    0.00000000    0.00000000
     atom   49 type  2   force =     0.00000000    0.00000000    0.00000000
     atom   50 type  2   force =     0.00000000    0.00000000    0.00000000
     atom   51 type  2   force =     0.00000000    0.00000000    0.00000000
     atom   52 type  2   force =     0.00000000    0.00000000    0.00000000
     The SCF correction term to forces
     atom    1 type  1   force =     0.00000002   -0.00000001   -0.00000000
     atom    2 type  1   force =     0.00000002   -0.00000001    0.00000001
     atom    3 type  2   force =    -0.00000004    0.00000002   -0.00000001
     atom    4 type  2   force =    -0.00000001   -0.00000005   -0.00000001
     atom    5 type  2   force =    -0.00000004   -0.00000005   -0.00000001
     atom    6 type  2   force =    -0.00000010   -0.00000005   -0.00000001
     atom    7 type  2   force =    -0.00000009    0.00000001   -0.00000001
     atom    8 type  2   force =    -0.00000012   -0.00000002   -0.00000002
     atom    9 type  2   force =    -0.00000003    0.00000004   -0.00000001
     atom   10 type  2   force =    -0.00000006   -0.00000000   -0.00000002
     atom   11 type  2   force =     0.00000002   -0.00000013   -0.00000001
     atom   12 type  2   force =     0.00000004   -0.00000002   -0.00000002
     atom   13 type  2   force =     0.00000012    0.00000005   -0.00000001
     atom   14 type  2   force =     0.00000006   -0.00000003   -0.00000000
     atom   15 type  2   force =     0.00000009   -0.00000015   -0.00000001
     atom   16 type  2   force =     0.00000007   -0.00000010    0.00000000
     atom   17 type  2   force =    -0.00000009   -0.00000006    0.00000001
     atom   18 type  2   force =    -0.00000006   -0.00000003    0.00000002
     atom   19 type  2   force =    -0.00000018   -0.00000006   -0.00000002
     atom   20 type  2   force =    -0.00000012    0.00000007   -0.00000002
     atom   21 type  2   force =    -0.00000016    0.00000009   -0.00000002
     atom   22 type  2   force =    -0.00000003    0.00000006   -0.00000002
     atom   23 type  2   force =    -0.00000005    0.00000001   -0.00000001
     atom   24 type  2   force =    -0.00000001    0.00000002   -0.00000000
     atom   25 type  2   force =    -0.00000001    0.00000001    0.00000001
     atom   26 type  2   force =     0.00000008   -0.00000008    0.00000003
     atom   27 type  2   force =     0.00000017   -0.00000012    0.00000004
     atom   28 type  3   force =     0.00000037   -0.00000021    0.00000037
     atom   29 type  2   force =     0.00000006   -0.00000004    0.00000004
     atom   30 type  2   force =    -0.00000000    0.00000007    0.00000002
     atom   31 type  2   force =    -0.00000004    0.00000018   -0.00000002
     atom   32 type  2   force =    -0.00000004    0.00000011   -0.00000002
     atom   33 type  2   force =    -0.00000006    0.00000007   -0.00000001
     atom   34 type  2   force =    -0.00000002    0.00000006   -0.00000001
     atom   35 type  2   force =     0.00000001    0.00000002   -0.00000000
     atom   36 type  2   force =     0.00000001   -0.00000001    0.00000000
     atom   37 type  2   force =     0.00000002   -0.00000001    0.00000002
     atom   38 type  2   force =     0.00000010   -0.00000003    0.00000003
     atom   39 type  2   force =     0.00000019   -0.00000009    0.00000004
     atom   40 type  2   force =     0.00000012   -0.00000001    0.00000000
     atom   41 type  2   force =     0.00000001    0.00000011    0.00000001
     atom   42 type  2   force =    -0.00000001    0.00000011   -0.00000001
     atom   43 type  2   force =     0.00000002    0.00000006   -0.00000001
     atom   44 type  2   force =    -0.00000003    0.00000002   -0.00000001
     atom   45 type  2   force =    -0.00000004    0.00000002   -0.00000001
     atom   46 type  2   force =    -0.00000006   -0.00000001   -0.00000001
     atom   47 type  2   force =    -0.00000001   -0.00000002   -0.00000000
     atom   48 type  2   force =    -0.00000002    0.00000000   -0.00000000
     atom   49 type  2   force =    -0.00000001    0.00000001    0.00000001
     atom   50 type  2   force =     0.00000006   -0.00000004   -0.00000000
     atom   51 type  2   force =     0.00000017   -0.00000000   -0.00000001
     atom   52 type  2   force =     0.00000004    0.00000003   -0.00000001

     Total force =     0.010078     Total SCF correction =     0.000001

     number of scf cycles    =  50
     number of bfgs steps    =  49

     energy   old            =    -756.4304905346 Ry
     energy   new            =    -756.4306087085 Ry

     CASE: energy  _new < energy  _old

     new trust radius        =       0.0098708637 bohr
     new conv_thr            =            1.2E-12 Ry


ATOMIC_POSITIONS (angstrom)
H        2.463625166   5.694325791   3.697743424
H        2.466438365   5.692701589   4.451543150
C        0.000769327  -0.000444171  -0.215545220
C       -0.005471601   1.418230424  -0.179272607
C       -1.235374716   2.133106849  -0.171226088
C       -1.234154528   3.557573178  -0.113351775
C       -2.468277199   4.268444909  -0.171233776
C       -2.472466203   5.691247609  -0.179274588
C       -3.697995642   6.405966321  -0.215566629
C       -3.697793441   7.828265579  -0.223204505
C       -4.929242612   8.540996496  -0.215323256
C       -4.930492917   9.963321856  -0.223217381
C        2.465145505  -0.001648924  -0.215323256
C        2.465378219   1.416248179  -0.147333757
C        1.225248241   2.121192366  -0.104143497
C        1.221372378   3.529329645   0.087602364
C       -0.010819201   4.263674659   0.045627024
C       -0.030869808   5.698189400   0.087591220
C       -1.248187720   6.405470703  -0.104088928
C       -1.238765361   7.831901958  -0.147260237
C       -2.466862422   8.540944127  -0.215265411
C       -2.465130204   9.963300934  -0.223204505
C        4.929759359  -0.000424991  -0.215566629
C        4.936055415   1.418130069  -0.179305990
C        3.705294086   2.121230286  -0.104184074
C        3.709224770   3.529291155   0.087559458
C        2.465305330   4.162813308   0.334886847
V        2.465374733   5.693315678   1.425961853
C        1.139898433   6.458579776   0.334974099
C        1.213031696   7.852690004   0.087591220
C       -0.008150837   8.553277588  -0.104088928
C       -0.001754735   9.970645403  -0.179274588
C        7.395766425   0.003368304  -0.171233776
C        7.397878883   1.424459769  -0.203070398
C        6.166084764   2.133194591  -0.171220515
C        6.164709833   3.557503562  -0.113335904
C        4.941502251   4.263722788   0.045571822
C        4.961399963   5.698122208   0.087559458
C        3.790793965   6.458626967   0.334886847
C        3.717440434   7.852646336   0.087602364
C        2.465383206   8.552583039   0.045627024
C        2.465217364   9.965073250  -0.113351775
C        9.861474672   0.003312463  -0.171226088
C        9.859083351   1.424556017  -0.203055314
C        8.628609570   2.134970386  -0.208975925
C        8.628564470   3.556069735  -0.203070398
C        7.398885050   4.268467322  -0.171220515
C        7.403134417   5.691236247  -0.179305990
C        6.178851103   6.405556714  -0.104184074
C        6.169425584   7.831846408  -0.147333757
C        4.938861020   8.553358379  -0.104143497
C        4.932284000   9.970673999  -0.179272607



     Writing output data file vanadio-top-2.1.save/
     NEW-OLD atomic charge density approx. for the potential

     Check: negative core charge=   -0.000002

     negative rho (up, down):  1.072E-03 2.570E-03

     Writing output data file vanadio-top-2.1.save/

     init_run     :     59.16s CPU     60.52s WALL (       1 calls)
     electrons    : 102698.37s CPU 104540.82s WALL (      50 calls)
     update_pot   :    777.69s CPU    781.88s WALL (      50 calls)
     forces       :   2279.35s CPU   2322.55s WALL (      50 calls)

     Called by init_run:
     wfcinit      :     34.59s CPU     34.88s WALL (       1 calls)
     wfcinit:atom :      0.03s CPU      0.07s WALL (       2 calls)
     wfcinit:wfcr :     34.20s CPU     34.41s WALL (       2 calls)
     potinit      :      7.59s CPU      7.73s WALL (       1 calls)
     hinit0       :     10.03s CPU     10.09s WALL (       1 calls)

     Called by electrons:
     c_bands      :  67972.38s CPU  68373.21s WALL (    1275 calls)
     sum_band     :  23751.10s CPU  24467.21s WALL (    1275 calls)
     v_of_rho     :   2420.30s CPU   2508.04s WALL (    1323 calls)
     v_h          :     97.40s CPU    100.12s WALL (    1323 calls)
     v_xc         :   2411.13s CPU   2499.90s WALL (    1373 calls)
     newd         :   8225.62s CPU   8876.19s WALL (    1323 calls)
     mix_rho      :    452.28s CPU    459.62s WALL (    1275 calls)

     Called by c_bands:
     init_us_2    :    239.10s CPU    239.65s WALL (    5202 calls)
     cegterg      :  67407.01s CPU  67804.30s WALL (    2550 calls)

     Called by sum_band:
     sum_band:bec :      2.03s CPU      2.05s WALL (    2550 calls)
     addusdens    :  14825.97s CPU  15484.76s WALL (    1275 calls)

     Called by *egterg:
     h_psi        :  35444.10s CPU  35709.02s WALL (    9874 calls)
     s_psi        :  11280.04s CPU  11287.14s WALL (    9874 calls)
     g_psi        :     43.20s CPU     43.33s WALL (    7322 calls)
     cdiaghg      :    597.67s CPU    598.07s WALL (    9768 calls)
     cegterg:over :   8088.71s CPU   8092.99s WALL (    7322 calls)
     cegterg:upda :   4712.95s CPU   4744.92s WALL (    7322 calls)
     cegterg:last :   3888.10s CPU   3889.59s WALL (    2622 calls)

     Called by h_psi:
     h_psi:pot    :  35401.14s CPU  35619.07s WALL (    9874 calls)
     h_psi:calbec :  11294.42s CPU  11301.33s WALL (    9874 calls)
     vloc_psi     :  12808.41s CPU  13014.37s WALL (    9874 calls)
     add_vuspsi   :  11298.17s CPU  11303.32s WALL (    9874 calls)

     General routines
     calbec       :  17165.26s CPU  17175.31s WALL (   12824 calls)
     fft          :   1817.20s CPU   1877.81s WALL (   33779 calls)
     ffts         :     93.67s CPU     96.51s WALL (    5196 calls)
     fftw         :  13928.07s CPU  14154.24s WALL ( 1771696 calls)
     interpolate  :    218.93s CPU    224.33s WALL (    2646 calls)
     davcio       :      0.00s CPU      0.05s WALL (       2 calls)

     Parallel routines
     fft_scatt_xy :   3062.23s CPU   3105.93s WALL ( 1810671 calls)
     fft_scatt_yz :   5202.56s CPU   5384.24s WALL ( 1810671 calls)

     PWSCF        :   1d 5h29m CPU   1d 6h 1m WALL


   This run was terminated on:   1:19:35  24Oct2022            

=------------------------------------------------------------------------------=
   JOB DONE.
=------------------------------------------------------------------------------=
