
     Program PWSCF v.6.4.1 starts on 16Nov2022 at 16:42:47 

     This program is part of the open-source Quantum ESPRESSO suite
     for quantum simulation of materials; please cite
         "P. Giannozzi et al., J. Phys.:Condens. Matter 21 395502 (2009);
         "P. Giannozzi et al., J. Phys.:Condens. Matter 29 465901 (2017);
          URL http://www.quantum-espresso.org", 
     in publications or presentations arising from this work. More details at
     http://www.quantum-espresso.org/quote

     Parallel version (MPI), running on     6 processors

     MPI processes distributed on     1 nodes
     R & G space division:  proc/nbgrp/npool/nimage =       6
     Reading input from distance-1.8.in

     Current dimensions of program PWSCF are:
     Max number of different atomic species (ntypx) = 10
     Max number of k-points (npk) =  40000
     Max angular momentum in pseudopotentials (lmaxx) =  3

     IMPORTANT: XC functional enforced from input :
     Exchange-correlation      = RVV10 ( 1  4 13  4 3 0)
     Any further DFT definition will be discarded
     Please, verify this is what you really want

               file H.pbe-rrkjus.UPF: wavefunction(s)  1S renormalized

     Subspace diagonalization in iterative solution of the eigenvalue problem:
     a serial algorithm will be used


     Parallelization info
     --------------------
     sticks:   dense  smooth     PW     G-vecs:    dense   smooth      PW
     Min        3051    1746    432               270999   117096   14629
     Max        3053    1747    437               271001   117099   14630
     Sum       18313   10477   2611              1626001   702581   87777



     bravais-lattice index     =            4
     lattice parameter (alat)  =      23.2937  a.u.
     unit-cell volume          =    8879.8548 (a.u.)^3
     number of atoms/cell      =           52
     number of atomic types    =            3
     number of electrons       =       214.00
     number of Kohn-Sham states=          128
     kinetic-energy cutoff     =      70.0000  Ry
     charge density cutoff     =     490.0000  Ry
     convergence threshold     =      1.0E-06
     mixing beta               =       0.3000
     number of iterations used =            4  plain     mixing
     Exchange-correlation      = RVV10 ( 1  4 13  4 3 0)

     celldm(1)=  23.293684  celldm(2)=   0.000000  celldm(3)=   0.811261
     celldm(4)=   0.000000  celldm(5)=   0.000000  celldm(6)=   0.000000

     crystal axes: (cart. coord. in units of alat)
               a(1) = (   1.000000   0.000000   0.000000 )  
               a(2) = (  -0.500000   0.866025   0.000000 )  
               a(3) = (   0.000000   0.000000   0.811261 )  

     reciprocal axes: (cart. coord. in units 2 pi/alat)
               b(1) = (  1.000000  0.577350 -0.000000 )  
               b(2) = (  0.000000  1.154701  0.000000 )  
               b(3) = (  0.000000 -0.000000  1.232649 )  


     PseudoPot. # 1 for H  read from file:
     /home/cristian/Escritorio/Proyecto_Grafeno/pseudopotenciales/H.pbe-rrkjus.UPF
     MD5 check sum: 7cc9d459525c9a0585f487a71c3c9563
     Pseudo is Ultrasoft, Zval =  1.0
     Generated by new atomic code, or converted to UPF format
     Using radial grid of 1061 points,  2 beta functions with: 
                l(1) =   0
                l(2) =   0
     Q(r) pseudized with 0 coefficients 


     PseudoPot. # 2 for C  read from file:
     /home/cristian/Escritorio/Proyecto_Grafeno/pseudopotenciales/C.pbe-n-rrkjus_psl.1.0.0.UPF
     MD5 check sum: 1fdd950c42eb37d8afe3dd2f8d12311e
     Pseudo is Ultrasoft + core correction, Zval =  4.0
     Generated using "atomic" code by A. Dal Corso v.6.3MaX
     Using radial grid of 1073 points,  4 beta functions with: 
                l(1) =   0
                l(2) =   0
                l(3) =   1
                l(4) =   1
     Q(r) pseudized with 0 coefficients 


     PseudoPot. # 3 for Fe read from file:
     /home/cristian/Escritorio/Proyecto_Grafeno/pseudopotenciales/Fe.pbe-spn-rrkjus_psl.1.0.0.UPF
     MD5 check sum: 72ea77fed8e64ab3a2ccf2804dfc1862
     Pseudo is Ultrasoft + core correction, Zval = 16.0
     Generated using "atomic" code by A. Dal Corso v.6.3
     Using radial grid of 1191 points,  6 beta functions with: 
                l(1) =   0
                l(2) =   0
                l(3) =   1
                l(4) =   1
                l(5) =   2
                l(6) =   2
     Q(r) pseudized with 0 coefficients 


     vdW kernel table read from file rVV10_kernel_table
     MD5 check sum: b8e2538accc0c0b3206b45ba4daaba6c

     atomic species   valence    mass     pseudopotential
        H              1.00     1.00794     H ( 1.00)
        C              4.00    12.01070     C ( 1.00)
        Fe            16.00    55.84500     Fe( 1.00)

     Starting magnetic structure 
     atomic species   magnetization
        H            0.500
        C            0.300
        Fe           0.800

      2 Sym. Ops. (no inversion) found


                                    s                        frac. trans.

      isym =  1     identity                                     

 cryst.   s( 1) = (     1          0          0      )
                  (     0          1          0      )
                  (     0          0          1      )

 cart.    s( 1) = (  1.0000000  0.0000000  0.0000000 )
                  (  0.0000000  1.0000000  0.0000000 )
                  (  0.0000000  0.0000000  1.0000000 )


      isym =  2     inv. 180 deg rotation - cryst. axis [1,1,0]  

 cryst.   s( 2) = (     0         -1          0      )
                  (    -1          0          0      )
                  (     0          0          1      )

 cart.    s( 2) = (  0.5000000 -0.8660254  0.0000000 )
                  ( -0.8660254 -0.5000000  0.0000000 )
                  (  0.0000000  0.0000000  1.0000000 )


     point group C_s (m)    
     there are  2 classes
     the character table:

       E     s    
A'     1.00  1.00
A''    1.00 -1.00

     the symmetry operations in each class and the name of the first element:

     E        1
          identity                                               
     s        2
          inv. 180 deg rotation - cryst. axis [1,1,0]            

   Cartesian axes

     site n.     atom                  positions (alat units)
         1           H   tau(   1) = (   0.2500000   0.4330127   0.1460270  )
         2           H   tau(   2) = (   0.2500000   0.4330127   0.2070397  )
         3           C   tau(   3) = (   0.0000000   0.0000000   0.0000000  )
         4           C   tau(   4) = (   0.0000000   0.1154701   0.0000000  )
         5           C   tau(   5) = (  -0.1000000   0.1732051   0.0000000  )
         6           C   tau(   6) = (  -0.1000000   0.2886751   0.0000000  )
         7           C   tau(   7) = (  -0.2000000   0.3464102   0.0000000  )
         8           C   tau(   8) = (  -0.2000000   0.4618802   0.0000000  )
         9           C   tau(   9) = (  -0.3000000   0.5196152   0.0000000  )
        10           C   tau(  10) = (  -0.3000000   0.6350853   0.0000000  )
        11           C   tau(  11) = (  -0.4000000   0.6928203   0.0000000  )
        12           C   tau(  12) = (  -0.4000000   0.8082904   0.0000000  )
        13           C   tau(  13) = (   0.2000000   0.0000000   0.0000000  )
        14           C   tau(  14) = (   0.2000000   0.1154701   0.0000000  )
        15           C   tau(  15) = (   0.1000000   0.1732051   0.0000000  )
        16           C   tau(  16) = (   0.1000000   0.2886751   0.0000000  )
        17           C   tau(  17) = (   0.0000000   0.3464102   0.0000000  )
        18           C   tau(  18) = (   0.0000000   0.4618802   0.0000000  )
        19           C   tau(  19) = (  -0.1000000   0.5196152   0.0000000  )
        20           C   tau(  20) = (  -0.1000000   0.6350853   0.0000000  )
        21           C   tau(  21) = (  -0.2000000   0.6928203   0.0000000  )
        22           C   tau(  22) = (  -0.2000000   0.8082904   0.0000000  )
        23           C   tau(  23) = (   0.4000000   0.0000000   0.0000000  )
        24           C   tau(  24) = (   0.4000000   0.1154701   0.0000000  )
        25           C   tau(  25) = (   0.3000000   0.1732051   0.0000000  )
        26           C   tau(  26) = (   0.3000000   0.2886751   0.0000000  )
        27           C   tau(  27) = (   0.2000000   0.3464102   0.0000000  )
        28           Fe  tau(  28) = (   0.2000000   0.4618802   0.0000000  )
        29           C   tau(  29) = (   0.1000000   0.5196152   0.0000000  )
        30           C   tau(  30) = (   0.1000000   0.6350853   0.0000000  )
        31           C   tau(  31) = (   0.0000000   0.6928203   0.0000000  )
        32           C   tau(  32) = (   0.0000000   0.8082904   0.0000000  )
        33           C   tau(  33) = (   0.6000000   0.0000000   0.0000000  )
        34           C   tau(  34) = (   0.6000000   0.1154701   0.0000000  )
        35           C   tau(  35) = (   0.5000000   0.1732051   0.0000000  )
        36           C   tau(  36) = (   0.5000000   0.2886751   0.0000000  )
        37           C   tau(  37) = (   0.4000000   0.3464102   0.0000000  )
        38           C   tau(  38) = (   0.4000000   0.4618802   0.0000000  )
        39           C   tau(  39) = (   0.3000000   0.5196152   0.0000000  )
        40           C   tau(  40) = (   0.3000000   0.6350853   0.0000000  )
        41           C   tau(  41) = (   0.2000000   0.6928203   0.0000000  )
        42           C   tau(  42) = (   0.2000000   0.8082904   0.0000000  )
        43           C   tau(  43) = (   0.8000000   0.0000000   0.0000000  )
        44           C   tau(  44) = (   0.8000000   0.1154701   0.0000000  )
        45           C   tau(  45) = (   0.7000000   0.1732051   0.0000000  )
        46           C   tau(  46) = (   0.7000000   0.2886751   0.0000000  )
        47           C   tau(  47) = (   0.6000000   0.3464102   0.0000000  )
        48           C   tau(  48) = (   0.6000000   0.4618802   0.0000000  )
        49           C   tau(  49) = (   0.5000000   0.5196152   0.0000000  )
        50           C   tau(  50) = (   0.5000000   0.6350853   0.0000000  )
        51           C   tau(  51) = (   0.4000000   0.6928203   0.0000000  )
        52           C   tau(  52) = (   0.4000000   0.8082904   0.0000000  )

   Crystallographic axes

     site n.     atom                  positions (cryst. coord.)
         1           H   tau(   1) = (  0.5000000  0.5000000  0.1800000  )
         2           H   tau(   2) = (  0.5000000  0.5000000  0.2552072  )
         3           C   tau(   3) = (  0.0000000  0.0000000  0.0000000  )
         4           C   tau(   4) = (  0.0666667  0.1333333  0.0000000  )
         5           C   tau(   5) = (  0.0000000  0.2000000  0.0000000  )
         6           C   tau(   6) = (  0.0666667  0.3333333  0.0000000  )
         7           C   tau(   7) = (  0.0000000  0.4000000  0.0000000  )
         8           C   tau(   8) = (  0.0666667  0.5333333  0.0000000  )
         9           C   tau(   9) = (  0.0000000  0.6000000  0.0000000  )
        10           C   tau(  10) = (  0.0666667  0.7333333  0.0000000  )
        11           C   tau(  11) = (  0.0000000  0.8000000  0.0000000  )
        12           C   tau(  12) = (  0.0666667  0.9333333  0.0000000  )
        13           C   tau(  13) = (  0.2000000  0.0000000  0.0000000  )
        14           C   tau(  14) = (  0.2666667  0.1333333  0.0000000  )
        15           C   tau(  15) = (  0.2000000  0.2000000  0.0000000  )
        16           C   tau(  16) = (  0.2666667  0.3333333  0.0000000  )
        17           C   tau(  17) = (  0.2000000  0.4000000  0.0000000  )
        18           C   tau(  18) = (  0.2666667  0.5333333  0.0000000  )
        19           C   tau(  19) = (  0.2000000  0.6000000  0.0000000  )
        20           C   tau(  20) = (  0.2666667  0.7333333  0.0000000  )
        21           C   tau(  21) = (  0.2000000  0.8000000  0.0000000  )
        22           C   tau(  22) = (  0.2666667  0.9333333  0.0000000  )
        23           C   tau(  23) = (  0.4000000  0.0000000  0.0000000  )
        24           C   tau(  24) = (  0.4666667  0.1333333  0.0000000  )
        25           C   tau(  25) = (  0.4000000  0.2000000  0.0000000  )
        26           C   tau(  26) = (  0.4666667  0.3333333  0.0000000  )
        27           C   tau(  27) = (  0.4000000  0.4000000  0.0000000  )
        28           Fe  tau(  28) = (  0.4666667  0.5333333  0.0000000  )
        29           C   tau(  29) = (  0.4000000  0.6000000  0.0000000  )
        30           C   tau(  30) = (  0.4666667  0.7333333  0.0000000  )
        31           C   tau(  31) = (  0.4000000  0.8000000  0.0000000  )
        32           C   tau(  32) = (  0.4666667  0.9333333  0.0000000  )
        33           C   tau(  33) = (  0.6000000  0.0000000  0.0000000  )
        34           C   tau(  34) = (  0.6666667  0.1333333  0.0000000  )
        35           C   tau(  35) = (  0.6000000  0.2000000  0.0000000  )
        36           C   tau(  36) = (  0.6666667  0.3333333  0.0000000  )
        37           C   tau(  37) = (  0.6000000  0.4000000  0.0000000  )
        38           C   tau(  38) = (  0.6666667  0.5333333  0.0000000  )
        39           C   tau(  39) = (  0.6000000  0.6000000  0.0000000  )
        40           C   tau(  40) = (  0.6666667  0.7333333  0.0000000  )
        41           C   tau(  41) = (  0.6000000  0.8000000  0.0000000  )
        42           C   tau(  42) = (  0.6666667  0.9333333  0.0000000  )
        43           C   tau(  43) = (  0.8000000  0.0000000  0.0000000  )
        44           C   tau(  44) = (  0.8666667  0.1333333  0.0000000  )
        45           C   tau(  45) = (  0.8000000  0.2000000  0.0000000  )
        46           C   tau(  46) = (  0.8666667  0.3333333  0.0000000  )
        47           C   tau(  47) = (  0.8000000  0.4000000  0.0000000  )
        48           C   tau(  48) = (  0.8666667  0.5333333  0.0000000  )
        49           C   tau(  49) = (  0.8000000  0.6000000  0.0000000  )
        50           C   tau(  50) = (  0.8666667  0.7333333  0.0000000  )
        51           C   tau(  51) = (  0.8000000  0.8000000  0.0000000  )
        52           C   tau(  52) = (  0.8666667  0.9333333  0.0000000  )

     number of k points=     1  Marzari-Vanderbilt smearing, width (Ry)=  0.0010
                       cart. coord. in units 2pi/alat
        k(    1) = (   0.0000000   0.0000000   0.0000000), wk =   1.0000000

                       cryst. coord.
        k(    1) = (   0.0000000   0.0000000   0.0000000), wk =   1.0000000

     Dense  grid:  1626001 G-vectors     FFT dimensions: ( 180, 180, 135)

     Smooth grid:   702581 G-vectors     FFT dimensions: ( 125, 125, 108)

     Dynamical RAM for                 wfc:      28.59 MB

     Dynamical RAM for     wfc (w. buffer):      85.76 MB

     Dynamical RAM for           str. fact:      12.41 MB

     Dynamical RAM for           local pot:       0.00 MB

     Dynamical RAM for          nlocal pot:      92.46 MB

     Dynamical RAM for                qrad:      19.73 MB

     Dynamical RAM for          rho,v,vnew:      58.92 MB

     Dynamical RAM for               rhoin:      19.64 MB

     Dynamical RAM for            rho*nmix:      66.16 MB

     Dynamical RAM for           G-vectors:      16.40 MB

     Dynamical RAM for          h,s,v(r/c):      12.00 MB

     Dynamical RAM for          <psi|beta>:       0.81 MB

     Dynamical RAM for                 psi:     114.35 MB

     Dynamical RAM for                hpsi:     114.35 MB

     Dynamical RAM for                spsi:     114.35 MB

     Dynamical RAM for      wfcinit/wfcrot:      93.90 MB

     Dynamical RAM for           addusdens:     975.89 MB

     Estimated static dynamical RAM per process >     422.14 MB

     Estimated max dynamical RAM per process >       1.37 GB

     Estimated total dynamical RAM >       8.19 GB
     Generating pointlists ...
     new r_m :   0.0252 (alat units)  0.5862 (a.u.) for type    1
     new r_m :   0.0476 (alat units)  1.1095 (a.u.) for type    2
     new r_m :   0.0476 (alat units)  1.1095 (a.u.) for type    3

     Check: negative core charge=   -0.000002

     Initial potential from superposition of free atoms

     starting charge  213.80512, renormalised to  214.00000

     negative rho (up, down):  6.748E-05 1.332E-02


---------------------------------------------------------------------------------
Carrying out rVV10 run using the following parameters:
Nqs =      20    Nr_points =    1024   r_max =   100.000
b_value =  6.30000    beta =  0.00901
     q_mesh =  0.00010000  0.00030000  0.00058939  0.00100810
               0.00161396  0.00249058  0.00375900  0.00559430
               0.00824984  0.01209221  0.01765183  0.02569619
               0.03733578  0.05417739  0.07854596  0.11380545
               0.16482331  0.23864234  0.34545298  0.50000000

Gradients computed in Reciprocal space

---------------------------------------------------------------------------------


     Starting wfcs are  208 randomized atomic wfcs

     total cpu time spent up to now is       72.1 secs

     Self-consistent Calculation

     iteration #  1     ecut=    70.00 Ry     beta= 0.30
     Davidson diagonalization with overlap
     ethr =  1.00E-02,  avg # of iterations =  2.5

     negative rho (up, down):  9.095E-05 1.320E-02

     total cpu time spent up to now is      196.8 secs

     total energy              =    -857.78279802 Ry
     Harris-Foulkes estimate   =    -858.72967728 Ry
     estimated scf accuracy    <      11.03467447 Ry

     total magnetization       =     6.00 Bohr mag/cell
     absolute magnetization    =     6.60 Bohr mag/cell

     iteration #  2     ecut=    70.00 Ry     beta= 0.30
     Davidson diagonalization with overlap
     ethr =  5.16E-03,  avg # of iterations =  2.0

     negative rho (up, down):  1.211E-04 1.658E-02

     total cpu time spent up to now is      286.9 secs

     total energy              =    -858.03578370 Ry
     Harris-Foulkes estimate   =    -858.75482923 Ry
     estimated scf accuracy    <       6.32085266 Ry

     total magnetization       =     6.00 Bohr mag/cell
     absolute magnetization    =     6.94 Bohr mag/cell

     iteration #  3     ecut=    70.00 Ry     beta= 0.30
     Davidson diagonalization with overlap
     ethr =  2.95E-03,  avg # of iterations =  2.5

     negative rho (up, down):  2.082E-04 2.289E-02

     total cpu time spent up to now is      377.6 secs

     total energy              =    -858.56396825 Ry
     Harris-Foulkes estimate   =    -859.33952908 Ry
     estimated scf accuracy    <       8.85276062 Ry

     total magnetization       =     6.00 Bohr mag/cell
     absolute magnetization    =     6.21 Bohr mag/cell

     iteration #  4     ecut=    70.00 Ry     beta= 0.30
     Davidson diagonalization with overlap
     ethr =  2.95E-03,  avg # of iterations =  4.0

     negative rho (up, down):  2.793E-04 3.498E-02

     total cpu time spent up to now is      468.6 secs

     total energy              =    -859.74894328 Ry
     Harris-Foulkes estimate   =    -859.54717626 Ry
     estimated scf accuracy    <       1.23986884 Ry

     total magnetization       =     2.00 Bohr mag/cell
     absolute magnetization    =     3.56 Bohr mag/cell

     iteration #  5     ecut=    70.00 Ry     beta= 0.30
     Davidson diagonalization with overlap
     ethr =  5.79E-04,  avg # of iterations = 10.5

     negative rho (up, down):  3.359E-04 4.248E-02

     total cpu time spent up to now is      567.2 secs

     total energy              =    -859.93847190 Ry
     Harris-Foulkes estimate   =    -859.87132201 Ry
     estimated scf accuracy    <       0.31597845 Ry

     total magnetization       =     2.00 Bohr mag/cell
     absolute magnetization    =     2.86 Bohr mag/cell

     iteration #  6     ecut=    70.00 Ry     beta= 0.30
     Davidson diagonalization with overlap
     ethr =  1.48E-04,  avg # of iterations =  6.5

     negative rho (up, down):  3.808E-04 4.127E-02

     total cpu time spent up to now is      661.9 secs

     total energy              =    -859.97764858 Ry
     Harris-Foulkes estimate   =    -859.97773092 Ry
     estimated scf accuracy    <       0.18998355 Ry

     total magnetization       =     2.00 Bohr mag/cell
     absolute magnetization    =     2.61 Bohr mag/cell

     iteration #  7     ecut=    70.00 Ry     beta= 0.30
     Davidson diagonalization with overlap
     ethr =  8.88E-05,  avg # of iterations =  2.0

     negative rho (up, down):  1.461E-03 8.766E-02

     total cpu time spent up to now is      752.5 secs

     total energy              =    -860.01155876 Ry
     Harris-Foulkes estimate   =    -860.00235852 Ry
     estimated scf accuracy    <       0.09067693 Ry

     total magnetization       =     2.00 Bohr mag/cell
     absolute magnetization    =     2.56 Bohr mag/cell

     iteration #  8     ecut=    70.00 Ry     beta= 0.30
     Davidson diagonalization with overlap
     ethr =  4.24E-05,  avg # of iterations =  3.5

     negative rho (up, down):  1.901E-03 8.624E-02

     total cpu time spent up to now is      846.9 secs

     total energy              =    -860.02077647 Ry
     Harris-Foulkes estimate   =    -860.01971170 Ry
     estimated scf accuracy    <       0.02040956 Ry

     total magnetization       =     2.00 Bohr mag/cell
     absolute magnetization    =     2.35 Bohr mag/cell

     iteration #  9     ecut=    70.00 Ry     beta= 0.30
     Davidson diagonalization with overlap
     ethr =  9.54E-06,  avg # of iterations = 14.0

     negative rho (up, down):  1.930E-03 7.243E-02

     total cpu time spent up to now is      958.6 secs

     total energy              =    -860.02564916 Ry
     Harris-Foulkes estimate   =    -860.02575815 Ry
     estimated scf accuracy    <       0.02616209 Ry

     total magnetization       =     2.07 Bohr mag/cell
     absolute magnetization    =     2.41 Bohr mag/cell

     iteration # 10     ecut=    70.00 Ry     beta= 0.30
     Davidson diagonalization with overlap
     ethr =  9.54E-06,  avg # of iterations =  2.0

     negative rho (up, down):  1.757E-03 9.236E-02

     total cpu time spent up to now is     1050.0 secs

     total energy              =    -860.02826517 Ry
     Harris-Foulkes estimate   =    -860.02722784 Ry
     estimated scf accuracy    <       0.01577833 Ry

     total magnetization       =     2.17 Bohr mag/cell
     absolute magnetization    =     2.51 Bohr mag/cell

     iteration # 11     ecut=    70.00 Ry     beta= 0.30
     Davidson diagonalization with overlap
     ethr =  7.37E-06,  avg # of iterations =  1.5

     negative rho (up, down):  2.097E-03 1.531E-01

     total cpu time spent up to now is     1139.9 secs

     total energy              =    -860.02155027 Ry
     Harris-Foulkes estimate   =    -860.02843221 Ry
     estimated scf accuracy    <       0.01319392 Ry

     total magnetization       =     2.13 Bohr mag/cell
     absolute magnetization    =     2.49 Bohr mag/cell

     iteration # 12     ecut=    70.00 Ry     beta= 0.30
     Davidson diagonalization with overlap
     ethr =  6.17E-06,  avg # of iterations =  2.0

     negative rho (up, down):  1.966E-03 1.579E-01

     total cpu time spent up to now is     1238.4 secs

     total energy              =    -860.02119239 Ry
     Harris-Foulkes estimate   =    -860.02401774 Ry
     estimated scf accuracy    <       0.04325057 Ry

     total magnetization       =     0.84 Bohr mag/cell
     absolute magnetization    =     1.84 Bohr mag/cell

     iteration # 13     ecut=    70.00 Ry     beta= 0.30
     Davidson diagonalization with overlap
     ethr =  6.17E-06,  avg # of iterations =  2.0

     negative rho (up, down):  1.927E-03 1.658E-01

     total cpu time spent up to now is     1329.4 secs

     total energy              =    -860.02042536 Ry
     Harris-Foulkes estimate   =    -860.02313719 Ry
     estimated scf accuracy    <       0.00899253 Ry

     total magnetization       =     2.03 Bohr mag/cell
     absolute magnetization    =     2.30 Bohr mag/cell

     iteration # 14     ecut=    70.00 Ry     beta= 0.30
     Davidson diagonalization with overlap
     ethr =  4.20E-06,  avg # of iterations =  2.0

     negative rho (up, down):  1.522E-03 1.635E-01

     total cpu time spent up to now is     1425.9 secs

     total energy              =    -860.02111432 Ry
     Harris-Foulkes estimate   =    -860.02155495 Ry
     estimated scf accuracy    <       0.00534378 Ry

     total magnetization       =     2.08 Bohr mag/cell
     absolute magnetization    =     2.33 Bohr mag/cell

     iteration # 15     ecut=    70.00 Ry     beta= 0.30
     Davidson diagonalization with overlap
     ethr =  2.50E-06,  avg # of iterations =  2.5

     negative rho (up, down):  1.292E-03 1.451E-01

     total cpu time spent up to now is     1524.5 secs

     total energy              =    -860.02200604 Ry
     Harris-Foulkes estimate   =    -860.02173406 Ry
     estimated scf accuracy    <       0.00314535 Ry

     total magnetization       =     2.12 Bohr mag/cell
     absolute magnetization    =     2.35 Bohr mag/cell

     iteration # 16     ecut=    70.00 Ry     beta= 0.30
     Davidson diagonalization with overlap
     ethr =  1.47E-06,  avg # of iterations =  2.0

     negative rho (up, down):  1.028E-03 1.227E-01

     total cpu time spent up to now is     1615.9 secs

     total energy              =    -860.02272115 Ry
     Harris-Foulkes estimate   =    -860.02216730 Ry
     estimated scf accuracy    <       0.00370673 Ry

     total magnetization       =     2.16 Bohr mag/cell
     absolute magnetization    =     2.38 Bohr mag/cell

     iteration # 17     ecut=    70.00 Ry     beta= 0.30
     Davidson diagonalization with overlap
     ethr =  1.47E-06,  avg # of iterations =  4.0

     negative rho (up, down):  8.346E-04 8.288E-02

     total cpu time spent up to now is     1709.6 secs

     total energy              =    -860.02354168 Ry
     Harris-Foulkes estimate   =    -860.02289039 Ry
     estimated scf accuracy    <       0.00220561 Ry

     total magnetization       =     2.16 Bohr mag/cell
     absolute magnetization    =     2.39 Bohr mag/cell

     iteration # 18     ecut=    70.00 Ry     beta= 0.30
     Davidson diagonalization with overlap
     ethr =  1.03E-06,  avg # of iterations =  3.5

     negative rho (up, down):  9.510E-04 8.302E-02

     total cpu time spent up to now is     1818.3 secs

     total energy              =    -860.02091151 Ry
     Harris-Foulkes estimate   =    -860.02560943 Ry
     estimated scf accuracy    <       0.06449017 Ry

     total magnetization       =     1.35 Bohr mag/cell
     absolute magnetization    =     1.68 Bohr mag/cell

     iteration # 19     ecut=    70.00 Ry     beta= 0.30
     Davidson diagonalization with overlap
     ethr =  1.03E-06,  avg # of iterations =  2.0

     negative rho (up, down):  9.441E-04 8.032E-02

     total cpu time spent up to now is     1919.6 secs

     total energy              =    -860.02354424 Ry
     Harris-Foulkes estimate   =    -860.02349981 Ry
     estimated scf accuracy    <       0.00174981 Ry

     total magnetization       =     2.06 Bohr mag/cell
     absolute magnetization    =     2.31 Bohr mag/cell

     iteration # 20     ecut=    70.00 Ry     beta= 0.30
     Davidson diagonalization with overlap
     ethr =  8.18E-07,  avg # of iterations =  1.0

     negative rho (up, down):  8.735E-04 7.326E-02

     total cpu time spent up to now is     2009.2 secs

     total energy              =    -860.02395370 Ry
     Harris-Foulkes estimate   =    -860.02354933 Ry
     estimated scf accuracy    <       0.00169090 Ry

     total magnetization       =     2.04 Bohr mag/cell
     absolute magnetization    =     2.30 Bohr mag/cell

     iteration # 21     ecut=    70.00 Ry     beta= 0.30
     Davidson diagonalization with overlap
     ethr =  7.90E-07,  avg # of iterations =  2.0

     negative rho (up, down):  8.601E-04 8.053E-02

     total cpu time spent up to now is     2102.2 secs

     total energy              =    -860.02404424 Ry
     Harris-Foulkes estimate   =    -860.02404156 Ry
     estimated scf accuracy    <       0.00258226 Ry

     total magnetization       =     2.01 Bohr mag/cell
     absolute magnetization    =     2.28 Bohr mag/cell

     iteration # 22     ecut=    70.00 Ry     beta= 0.30
     Davidson diagonalization with overlap
     ethr =  7.90E-07,  avg # of iterations =  1.5

     negative rho (up, down):  8.183E-04 7.050E-02

     total cpu time spent up to now is     2192.4 secs

     total energy              =    -860.02447678 Ry
     Harris-Foulkes estimate   =    -860.02413721 Ry
     estimated scf accuracy    <       0.00278234 Ry

     total magnetization       =     2.01 Bohr mag/cell
     absolute magnetization    =     2.29 Bohr mag/cell

     iteration # 23     ecut=    70.00 Ry     beta= 0.30
     Davidson diagonalization with overlap
     ethr =  7.90E-07,  avg # of iterations =  2.0

     negative rho (up, down):  1.003E-03 1.207E-01

     total cpu time spent up to now is     2286.8 secs

     total energy              =    -860.02237485 Ry
     Harris-Foulkes estimate   =    -860.02459036 Ry
     estimated scf accuracy    <       0.00207986 Ry

     total magnetization       =     2.01 Bohr mag/cell
     absolute magnetization    =     2.29 Bohr mag/cell

     iteration # 24     ecut=    70.00 Ry     beta= 0.30
     Davidson diagonalization with overlap
     ethr =  7.90E-07,  avg # of iterations =  3.0

     negative rho (up, down):  9.265E-04 9.630E-02

     total cpu time spent up to now is     2395.7 secs

     total energy              =    -860.02312779 Ry
     Harris-Foulkes estimate   =    -860.02329866 Ry
     estimated scf accuracy    <       0.00303496 Ry

     total magnetization       =     2.01 Bohr mag/cell
     absolute magnetization    =     2.23 Bohr mag/cell

     iteration # 25     ecut=    70.00 Ry     beta= 0.30
     Davidson diagonalization with overlap
     ethr =  7.90E-07,  avg # of iterations =  2.5

     negative rho (up, down):  9.302E-04 1.104E-01

     total cpu time spent up to now is     2505.2 secs

     total energy              =    -860.02189880 Ry
     Harris-Foulkes estimate   =    -860.02381825 Ry
     estimated scf accuracy    <       0.01549554 Ry

     total magnetization       =     1.79 Bohr mag/cell
     absolute magnetization    =     2.04 Bohr mag/cell

     iteration # 26     ecut=    70.00 Ry     beta= 0.30
     Davidson diagonalization with overlap
     ethr =  7.90E-07,  avg # of iterations =  2.0

     negative rho (up, down):  7.922E-04 6.354E-02

     total cpu time spent up to now is     2607.4 secs

     total energy              =    -860.02378882 Ry
     Harris-Foulkes estimate   =    -860.02323207 Ry
     estimated scf accuracy    <       0.00227707 Ry

     total magnetization       =     2.03 Bohr mag/cell
     absolute magnetization    =     2.26 Bohr mag/cell

     iteration # 27     ecut=    70.00 Ry     beta= 0.30
     Davidson diagonalization with overlap
     ethr =  7.90E-07,  avg # of iterations =  2.5

     negative rho (up, down):  7.772E-04 8.092E-02

     total cpu time spent up to now is     2714.0 secs

     total energy              =    -860.02423667 Ry
     Harris-Foulkes estimate   =    -860.02466382 Ry
     estimated scf accuracy    <       0.00695468 Ry

     total magnetization       =     2.00 Bohr mag/cell
     absolute magnetization    =     2.29 Bohr mag/cell

     iteration # 28     ecut=    70.00 Ry     beta= 0.30
     Davidson diagonalization with overlap
     ethr =  7.90E-07,  avg # of iterations =  2.0

     negative rho (up, down):  7.769E-04 8.340E-02

     total cpu time spent up to now is     2805.8 secs

     total energy              =    -860.02439911 Ry
     Harris-Foulkes estimate   =    -860.02456840 Ry
     estimated scf accuracy    <       0.00455333 Ry

     total magnetization       =     2.00 Bohr mag/cell
     absolute magnetization    =     2.29 Bohr mag/cell

     iteration # 29     ecut=    70.00 Ry     beta= 0.30
     Davidson diagonalization with overlap
     ethr =  7.90E-07,  avg # of iterations =  1.5

     negative rho (up, down):  9.176E-04 1.317E-01

     total cpu time spent up to now is     2895.5 secs

     total energy              =    -860.02177250 Ry
     Harris-Foulkes estimate   =    -860.02450725 Ry
     estimated scf accuracy    <       0.00191549 Ry

     total magnetization       =     2.00 Bohr mag/cell
     absolute magnetization    =     2.28 Bohr mag/cell

     iteration # 30     ecut=    70.00 Ry     beta= 0.30
     Davidson diagonalization with overlap
     ethr =  7.90E-07,  avg # of iterations =  2.5

     negative rho (up, down):  7.864E-04 9.162E-02

     total cpu time spent up to now is     3004.7 secs

     total energy              =    -860.02334342 Ry
     Harris-Foulkes estimate   =    -860.02301845 Ry
     estimated scf accuracy    <       0.00215271 Ry

     total magnetization       =     2.02 Bohr mag/cell
     absolute magnetization    =     2.26 Bohr mag/cell

     iteration # 31     ecut=    70.00 Ry     beta= 0.30
     Davidson diagonalization with overlap
     ethr =  7.90E-07,  avg # of iterations =  2.0

     negative rho (up, down):  8.203E-04 1.090E-01

     total cpu time spent up to now is     3106.5 secs

     total energy              =    -860.02240503 Ry
     Harris-Foulkes estimate   =    -860.02399969 Ry
     estimated scf accuracy    <       0.01150926 Ry

     total magnetization       =     2.14 Bohr mag/cell
     absolute magnetization    =     2.34 Bohr mag/cell

     iteration # 32     ecut=    70.00 Ry     beta= 0.30
     Davidson diagonalization with overlap
     ethr =  7.90E-07,  avg # of iterations =  2.0

     negative rho (up, down):  7.546E-04 6.232E-02

     total cpu time spent up to now is     3207.4 secs

     total energy              =    -860.02344521 Ry
     Harris-Foulkes estimate   =    -860.02329636 Ry
     estimated scf accuracy    <       0.00247664 Ry

     total magnetization       =     2.01 Bohr mag/cell
     absolute magnetization    =     2.25 Bohr mag/cell

     iteration # 33     ecut=    70.00 Ry     beta= 0.30
     Davidson diagonalization with overlap
     ethr =  7.90E-07,  avg # of iterations =  2.0

     negative rho (up, down):  7.850E-04 6.882E-02

     total cpu time spent up to now is     3311.2 secs

     total energy              =    -860.02372723 Ry
     Harris-Foulkes estimate   =    -860.02408856 Ry
     estimated scf accuracy    <       0.00481678 Ry

     total magnetization       =     2.00 Bohr mag/cell
     absolute magnetization    =     2.27 Bohr mag/cell

     iteration # 34     ecut=    70.00 Ry     beta= 0.30
     Davidson diagonalization with overlap
     ethr =  7.90E-07,  avg # of iterations =  1.5

     negative rho (up, down):  7.269E-04 6.764E-02

     total cpu time spent up to now is     3401.7 secs

     total energy              =    -860.02395647 Ry
     Harris-Foulkes estimate   =    -860.02408956 Ry
     estimated scf accuracy    <       0.00534790 Ry

     total magnetization       =     2.00 Bohr mag/cell
     absolute magnetization    =     2.28 Bohr mag/cell

     iteration # 35     ecut=    70.00 Ry     beta= 0.30
     Davidson diagonalization with overlap
     ethr =  7.90E-07,  avg # of iterations =  2.0

     negative rho (up, down):  8.090E-04 1.046E-01

     total cpu time spent up to now is     3495.3 secs

     total energy              =    -860.02297459 Ry
     Harris-Foulkes estimate   =    -860.02419250 Ry
     estimated scf accuracy    <       0.00125882 Ry

     total magnetization       =     2.00 Bohr mag/cell
     absolute magnetization    =     2.25 Bohr mag/cell

     iteration # 36     ecut=    70.00 Ry     beta= 0.30
     Davidson diagonalization with overlap
     ethr =  5.88E-07,  avg # of iterations =  2.0

     negative rho (up, down):  7.162E-04 4.831E-02

     total cpu time spent up to now is     3599.3 secs

     total energy              =    -860.02378866 Ry
     Harris-Foulkes estimate   =    -860.02335929 Ry
     estimated scf accuracy    <       0.00206257 Ry

     total magnetization       =     2.01 Bohr mag/cell
     absolute magnetization    =     2.25 Bohr mag/cell

     iteration # 37     ecut=    70.00 Ry     beta= 0.30
     Davidson diagonalization with overlap
     ethr =  5.88E-07,  avg # of iterations =  2.5

     negative rho (up, down):  8.213E-04 1.154E-01

     total cpu time spent up to now is     3707.4 secs

     total energy              =    -860.02187279 Ry
     Harris-Foulkes estimate   =    -860.02469876 Ry
     estimated scf accuracy    <       0.00566395 Ry

     total magnetization       =     2.00 Bohr mag/cell
     absolute magnetization    =     2.23 Bohr mag/cell

     iteration # 38     ecut=    70.00 Ry     beta= 0.30
     Davidson diagonalization with overlap
     ethr =  5.88E-07,  avg # of iterations =  3.0

     negative rho (up, down):  7.127E-04 5.567E-02

     total cpu time spent up to now is     3816.7 secs

     total energy              =    -860.02360890 Ry
     Harris-Foulkes estimate   =    -860.02321362 Ry
     estimated scf accuracy    <       0.00187934 Ry

     total magnetization       =     2.01 Bohr mag/cell
     absolute magnetization    =     2.26 Bohr mag/cell

     iteration # 39     ecut=    70.00 Ry     beta= 0.30
     Davidson diagonalization with overlap
     ethr =  5.88E-07,  avg # of iterations =  2.5

     negative rho (up, down):  7.255E-04 7.783E-02

     total cpu time spent up to now is     3925.1 secs

     total energy              =    -860.02405134 Ry
     Harris-Foulkes estimate   =    -860.02454674 Ry
     estimated scf accuracy    <       0.00385905 Ry

     total magnetization       =     2.00 Bohr mag/cell
     absolute magnetization    =     2.27 Bohr mag/cell

     iteration # 40     ecut=    70.00 Ry     beta= 0.30
     Davidson diagonalization with overlap
     ethr =  5.88E-07,  avg # of iterations =  2.0

     negative rho (up, down):  7.175E-04 7.447E-02

     total cpu time spent up to now is     4019.0 secs

     total energy              =    -860.02425714 Ry
     Harris-Foulkes estimate   =    -860.02425392 Ry
     estimated scf accuracy    <       0.00279710 Ry

     total magnetization       =     2.00 Bohr mag/cell
     absolute magnetization    =     2.27 Bohr mag/cell

     iteration # 41     ecut=    70.00 Ry     beta= 0.30
     Davidson diagonalization with overlap
     ethr =  5.88E-07,  avg # of iterations =  1.0

     negative rho (up, down):  7.759E-04 1.130E-01

     total cpu time spent up to now is     4108.7 secs

     total energy              =    -860.02240388 Ry
     Harris-Foulkes estimate   =    -860.02431042 Ry
     estimated scf accuracy    <       0.00124167 Ry

     total magnetization       =     2.00 Bohr mag/cell
     absolute magnetization    =     2.26 Bohr mag/cell

     iteration # 42     ecut=    70.00 Ry     beta= 0.30
     Davidson diagonalization with overlap
     ethr =  5.80E-07,  avg # of iterations =  2.0

     negative rho (up, down):  7.047E-04 6.943E-02

     total cpu time spent up to now is     4215.8 secs

     total energy              =    -860.02384236 Ry
     Harris-Foulkes estimate   =    -860.02339490 Ry
     estimated scf accuracy    <       0.00138842 Ry

     total magnetization       =     2.00 Bohr mag/cell
     absolute magnetization    =     2.25 Bohr mag/cell

     iteration # 43     ecut=    70.00 Ry     beta= 0.30
     Davidson diagonalization with overlap
     ethr =  5.80E-07,  avg # of iterations =  2.0

     negative rho (up, down):  7.158E-04 7.962E-02

     total cpu time spent up to now is     4318.9 secs

     total energy              =    -860.02397893 Ry
     Harris-Foulkes estimate   =    -860.02424086 Ry
     estimated scf accuracy    <       0.00230035 Ry

     total magnetization       =     2.00 Bohr mag/cell
     absolute magnetization    =     2.23 Bohr mag/cell

     iteration # 44     ecut=    70.00 Ry     beta= 0.30
     Davidson diagonalization with overlap
     ethr =  5.80E-07,  avg # of iterations =  2.0

     negative rho (up, down):  7.272E-04 8.006E-02

     total cpu time spent up to now is     4411.6 secs

     total energy              =    -860.02361517 Ry
     Harris-Foulkes estimate   =    -860.02407527 Ry
     estimated scf accuracy    <       0.00126813 Ry

     total magnetization       =     2.00 Bohr mag/cell
     absolute magnetization    =     2.25 Bohr mag/cell

     iteration # 45     ecut=    70.00 Ry     beta= 0.30
     Davidson diagonalization with overlap
     ethr =  5.80E-07,  avg # of iterations =  2.0

     negative rho (up, down):  7.617E-04 1.008E-01

     total cpu time spent up to now is     4513.2 secs

     total energy              =    -860.02319877 Ry
     Harris-Foulkes estimate   =    -860.02407818 Ry
     estimated scf accuracy    <       0.00334428 Ry

     total magnetization       =     2.00 Bohr mag/cell
     absolute magnetization    =     2.26 Bohr mag/cell

     iteration # 46     ecut=    70.00 Ry     beta= 0.30
     Davidson diagonalization with overlap
     ethr =  5.80E-07,  avg # of iterations =  2.0

     negative rho (up, down):  7.427E-04 8.597E-02

     total cpu time spent up to now is     4613.3 secs

     total energy              =    -860.02350194 Ry
     Harris-Foulkes estimate   =    -860.02361963 Ry
     estimated scf accuracy    <       0.00301797 Ry

     total magnetization       =     2.00 Bohr mag/cell
     absolute magnetization    =     2.26 Bohr mag/cell

     iteration # 47     ecut=    70.00 Ry     beta= 0.30
     Davidson diagonalization with overlap
     ethr =  5.80E-07,  avg # of iterations =  1.0

     negative rho (up, down):  6.980E-04 5.192E-02

     total cpu time spent up to now is     4702.9 secs

     total energy              =    -860.02400949 Ry
     Harris-Foulkes estimate   =    -860.02360458 Ry
     estimated scf accuracy    <       0.00096274 Ry

     total magnetization       =     2.00 Bohr mag/cell
     absolute magnetization    =     2.25 Bohr mag/cell

     iteration # 48     ecut=    70.00 Ry     beta= 0.30
     Davidson diagonalization with overlap
     ethr =  4.50E-07,  avg # of iterations =  2.0

     negative rho (up, down):  7.285E-04 8.780E-02

     total cpu time spent up to now is     4804.4 secs

     total energy              =    -860.02335448 Ry
     Harris-Foulkes estimate   =    -860.02426138 Ry
     estimated scf accuracy    <       0.00130272 Ry

     total magnetization       =     2.00 Bohr mag/cell
     absolute magnetization    =     2.25 Bohr mag/cell

     iteration # 49     ecut=    70.00 Ry     beta= 0.30
     Davidson diagonalization with overlap
     ethr =  4.50E-07,  avg # of iterations =  2.0

     negative rho (up, down):  7.615E-04 1.043E-01

     total cpu time spent up to now is     4906.2 secs

     total energy              =    -860.02265343 Ry
     Harris-Foulkes estimate   =    -860.02376728 Ry
     estimated scf accuracy    <       0.00526946 Ry

     total magnetization       =     2.01 Bohr mag/cell
     absolute magnetization    =     2.22 Bohr mag/cell

     iteration # 50     ecut=    70.00 Ry     beta= 0.30
     Davidson diagonalization with overlap
     ethr =  4.50E-07,  avg # of iterations =  2.0

     negative rho (up, down):  7.508E-04 7.482E-02

     total cpu time spent up to now is     5011.1 secs

     total energy              =    -860.02340396 Ry
     Harris-Foulkes estimate   =    -860.02334753 Ry
     estimated scf accuracy    <       0.00182465 Ry

     total magnetization       =     2.00 Bohr mag/cell
     absolute magnetization    =     2.25 Bohr mag/cell

     iteration # 51     ecut=    70.00 Ry     beta= 0.30
     Davidson diagonalization with overlap
     ethr =  4.50E-07,  avg # of iterations =  2.0

     negative rho (up, down):  7.624E-04 8.699E-02

     total cpu time spent up to now is     5106.8 secs

     total energy              =    -860.02309049 Ry
     Harris-Foulkes estimate   =    -860.02358954 Ry
     estimated scf accuracy    <       0.00266072 Ry

     total magnetization       =     2.00 Bohr mag/cell
     absolute magnetization    =     2.26 Bohr mag/cell

     iteration # 52     ecut=    70.00 Ry     beta= 0.30
     Davidson diagonalization with overlap
     ethr =  4.50E-07,  avg # of iterations =  2.0

     negative rho (up, down):  7.288E-04 7.351E-02

     total cpu time spent up to now is     5206.0 secs

     total energy              =    -860.02343056 Ry
     Harris-Foulkes estimate   =    -860.02333875 Ry
     estimated scf accuracy    <       0.00140353 Ry

     total magnetization       =     2.00 Bohr mag/cell
     absolute magnetization    =     2.25 Bohr mag/cell

     iteration # 53     ecut=    70.00 Ry     beta= 0.30
     Davidson diagonalization with overlap
     ethr =  4.50E-07,  avg # of iterations =  1.0

     negative rho (up, down):  7.008E-04 4.848E-02

     total cpu time spent up to now is     5295.7 secs

     total energy              =    -860.02365623 Ry
     Harris-Foulkes estimate   =    -860.02346865 Ry
     estimated scf accuracy    <       0.00124928 Ry

     total magnetization       =     2.00 Bohr mag/cell
     absolute magnetization    =     2.25 Bohr mag/cell

     iteration # 54     ecut=    70.00 Ry     beta= 0.30
     Davidson diagonalization with overlap
     ethr =  4.50E-07,  avg # of iterations =  2.0

     negative rho (up, down):  6.875E-04 4.797E-02

     total cpu time spent up to now is     5392.0 secs

     total energy              =    -860.02390171 Ry
     Harris-Foulkes estimate   =    -860.02375184 Ry
     estimated scf accuracy    <       0.00112144 Ry

     total magnetization       =     2.00 Bohr mag/cell
     absolute magnetization    =     2.25 Bohr mag/cell

     iteration # 55     ecut=    70.00 Ry     beta= 0.30
     Davidson diagonalization with overlap
     ethr =  4.50E-07,  avg # of iterations =  2.0

     negative rho (up, down):  7.454E-04 7.768E-02

     total cpu time spent up to now is     5491.8 secs

     total energy              =    -860.02266451 Ry
     Harris-Foulkes estimate   =    -860.02430024 Ry
     estimated scf accuracy    <       0.00940721 Ry

     total magnetization       =     2.00 Bohr mag/cell
     absolute magnetization    =     2.22 Bohr mag/cell

     iteration # 56     ecut=    70.00 Ry     beta= 0.30
     Davidson diagonalization with overlap
     ethr =  4.50E-07,  avg # of iterations =  2.5

     negative rho (up, down):  6.785E-04 3.860E-02

     total cpu time spent up to now is     5595.6 secs

     total energy              =    -860.02360566 Ry
     Harris-Foulkes estimate   =    -860.02333993 Ry
     estimated scf accuracy    <       0.00125787 Ry

     total magnetization       =     2.00 Bohr mag/cell
     absolute magnetization    =     2.25 Bohr mag/cell

     iteration # 57     ecut=    70.00 Ry     beta= 0.30
     Davidson diagonalization with overlap
     ethr =  4.50E-07,  avg # of iterations =  2.5

     negative rho (up, down):  7.096E-04 6.769E-02

     total cpu time spent up to now is     5701.8 secs

     total energy              =    -860.02334274 Ry
     Harris-Foulkes estimate   =    -860.02416282 Ry
     estimated scf accuracy    <       0.00359307 Ry

     total magnetization       =     2.00 Bohr mag/cell
     absolute magnetization    =     2.27 Bohr mag/cell

     iteration # 58     ecut=    70.00 Ry     beta= 0.30
     Davidson diagonalization with overlap
     ethr =  4.50E-07,  avg # of iterations =  2.0

     negative rho (up, down):  7.176E-04 6.997E-02

     total cpu time spent up to now is     5803.5 secs

     total energy              =    -860.02340587 Ry
     Harris-Foulkes estimate   =    -860.02386087 Ry
     estimated scf accuracy    <       0.00535040 Ry

     total magnetization       =     2.00 Bohr mag/cell
     absolute magnetization    =     2.27 Bohr mag/cell

     iteration # 59     ecut=    70.00 Ry     beta= 0.30
     Davidson diagonalization with overlap
     ethr =  4.50E-07,  avg # of iterations =  2.0

     negative rho (up, down):  6.880E-04 5.679E-02

     total cpu time spent up to now is     5896.6 secs

     total energy              =    -860.02359259 Ry
     Harris-Foulkes estimate   =    -860.02363806 Ry
     estimated scf accuracy    <       0.00103782 Ry

     total magnetization       =     2.00 Bohr mag/cell
     absolute magnetization    =     2.25 Bohr mag/cell

     iteration # 60     ecut=    70.00 Ry     beta= 0.30
     Davidson diagonalization with overlap
     ethr =  4.50E-07,  avg # of iterations =  2.0

     negative rho (up, down):  6.839E-04 5.112E-02

     total cpu time spent up to now is     5998.8 secs

     total energy              =    -860.02400697 Ry
     Harris-Foulkes estimate   =    -860.02388175 Ry
     estimated scf accuracy    <       0.00082963 Ry

     total magnetization       =     2.00 Bohr mag/cell
     absolute magnetization    =     2.25 Bohr mag/cell

     iteration # 61     ecut=    70.00 Ry     beta= 0.30
     Davidson diagonalization with overlap
     ethr =  3.88E-07,  avg # of iterations =  2.0

     negative rho (up, down):  6.862E-04 5.911E-02

     total cpu time spent up to now is     6092.3 secs

     total energy              =    -860.02397974 Ry
     Harris-Foulkes estimate   =    -860.02414986 Ry
     estimated scf accuracy    <       0.00426719 Ry

     total magnetization       =     2.00 Bohr mag/cell
     absolute magnetization    =     2.23 Bohr mag/cell

     iteration # 62     ecut=    70.00 Ry     beta= 0.30
     Davidson diagonalization with overlap
     ethr =  3.88E-07,  avg # of iterations =  2.0

     negative rho (up, down):  7.037E-04 9.992E-02

     total cpu time spent up to now is     6191.2 secs

     total energy              =    -860.02240015 Ry
     Harris-Foulkes estimate   =    -860.02419703 Ry
     estimated scf accuracy    <       0.00123204 Ry

     total magnetization       =     2.00 Bohr mag/cell
     absolute magnetization    =     2.26 Bohr mag/cell

     iteration # 63     ecut=    70.00 Ry     beta= 0.30
     Davidson diagonalization with overlap
     ethr =  3.88E-07,  avg # of iterations =  2.0

     negative rho (up, down):  7.114E-04 8.596E-02

     total cpu time spent up to now is     6300.3 secs

     total energy              =    -860.02323594 Ry
     Harris-Foulkes estimate   =    -860.02355448 Ry
     estimated scf accuracy    <       0.00166680 Ry

     total magnetization       =     2.00 Bohr mag/cell
     absolute magnetization    =     2.25 Bohr mag/cell

     iteration # 64     ecut=    70.00 Ry     beta= 0.30
     Davidson diagonalization with overlap
     ethr =  3.88E-07,  avg # of iterations =  2.0

     negative rho (up, down):  6.769E-04 4.571E-02

     total cpu time spent up to now is     6395.9 secs

     total energy              =    -860.02344825 Ry
     Harris-Foulkes estimate   =    -860.02347092 Ry
     estimated scf accuracy    <       0.00337735 Ry

     total magnetization       =     2.00 Bohr mag/cell
     absolute magnetization    =     2.26 Bohr mag/cell

     iteration # 65     ecut=    70.00 Ry     beta= 0.30
     Davidson diagonalization with overlap
     ethr =  3.88E-07,  avg # of iterations =  3.0

     negative rho (up, down):  6.852E-04 5.660E-02

     total cpu time spent up to now is     6502.1 secs

     total energy              =    -860.02393639 Ry
     Harris-Foulkes estimate   =    -860.02407933 Ry
     estimated scf accuracy    <       0.00293680 Ry

     total magnetization       =     2.00 Bohr mag/cell
     absolute magnetization    =     2.25 Bohr mag/cell

     iteration # 66     ecut=    70.00 Ry     beta= 0.30
     Davidson diagonalization with overlap
     ethr =  3.88E-07,  avg # of iterations =  2.0

     negative rho (up, down):  6.849E-04 5.892E-02

     total cpu time spent up to now is     6592.9 secs

     total energy              =    -860.02394570 Ry
     Harris-Foulkes estimate   =    -860.02395466 Ry
     estimated scf accuracy    <       0.00191805 Ry

     total magnetization       =     2.00 Bohr mag/cell
     absolute magnetization    =     2.25 Bohr mag/cell

     iteration # 67     ecut=    70.00 Ry     beta= 0.30
     Davidson diagonalization with overlap
     ethr =  3.88E-07,  avg # of iterations =  1.0

     negative rho (up, down):  6.853E-04 6.440E-02

     total cpu time spent up to now is     6682.9 secs

     total energy              =    -860.02385746 Ry
     Harris-Foulkes estimate   =    -860.02401055 Ry
     estimated scf accuracy    <       0.00308764 Ry

     total magnetization       =     2.00 Bohr mag/cell
     absolute magnetization    =     2.23 Bohr mag/cell

     iteration # 68     ecut=    70.00 Ry     beta= 0.30
     Davidson diagonalization with overlap
     ethr =  3.88E-07,  avg # of iterations =  2.0

     negative rho (up, down):  6.842E-04 6.644E-02

     total cpu time spent up to now is     6777.2 secs

     total energy              =    -860.02400242 Ry
     Harris-Foulkes estimate   =    -860.02397102 Ry
     estimated scf accuracy    <       0.00183956 Ry

     total magnetization       =     2.00 Bohr mag/cell
     absolute magnetization    =     2.25 Bohr mag/cell

     iteration # 69     ecut=    70.00 Ry     beta= 0.30
     Davidson diagonalization with overlap
     ethr =  3.88E-07,  avg # of iterations =  2.0

     negative rho (up, down):  6.940E-04 7.187E-02

     total cpu time spent up to now is     6871.3 secs

     total energy              =    -860.02386346 Ry
     Harris-Foulkes estimate   =    -860.02404059 Ry
     estimated scf accuracy    <       0.00158666 Ry

     total magnetization       =     2.00 Bohr mag/cell
     absolute magnetization    =     2.26 Bohr mag/cell

     iteration # 70     ecut=    70.00 Ry     beta= 0.30
     Davidson diagonalization with overlap
     ethr =  3.88E-07,  avg # of iterations =  2.0

     negative rho (up, down):  6.645E-04 4.980E-02

     total cpu time spent up to now is     6962.4 secs

     total energy              =    -860.02414574 Ry
     Harris-Foulkes estimate   =    -860.02389066 Ry
     estimated scf accuracy    <       0.00189685 Ry

     total magnetization       =     2.00 Bohr mag/cell
     absolute magnetization    =     2.26 Bohr mag/cell

     iteration # 71     ecut=    70.00 Ry     beta= 0.30
     Davidson diagonalization with overlap
     ethr =  3.88E-07,  avg # of iterations =  3.0

     negative rho (up, down):  6.857E-04 8.876E-02

     total cpu time spent up to now is     7073.0 secs

     total energy              =    -860.02290178 Ry
     Harris-Foulkes estimate   =    -860.02539070 Ry
     estimated scf accuracy    <       0.00683308 Ry

     total magnetization       =     2.00 Bohr mag/cell
     absolute magnetization    =     2.30 Bohr mag/cell

     iteration # 72     ecut=    70.00 Ry     beta= 0.30
     Davidson diagonalization with overlap
     ethr =  3.88E-07,  avg # of iterations =  3.0

     negative rho (up, down):  6.958E-04 8.282E-02

     total cpu time spent up to now is     7184.3 secs

     total energy              =    -860.02406335 Ry
     Harris-Foulkes estimate   =    -860.02427198 Ry
     estimated scf accuracy    <       0.00205214 Ry

     total magnetization       =     2.00 Bohr mag/cell
     absolute magnetization    =     2.26 Bohr mag/cell

     iteration # 73     ecut=    70.00 Ry     beta= 0.30
     Davidson diagonalization with overlap
     ethr =  3.88E-07,  avg # of iterations =  2.0

     negative rho (up, down):  6.703E-04 7.451E-02

     total cpu time spent up to now is     7277.0 secs

     total energy              =    -860.02420846 Ry
     Harris-Foulkes estimate   =    -860.02427349 Ry
     estimated scf accuracy    <       0.00660291 Ry

     total magnetization       =     2.00 Bohr mag/cell
     absolute magnetization    =     2.23 Bohr mag/cell

     iteration # 74     ecut=    70.00 Ry     beta= 0.30
     Davidson diagonalization with overlap
     ethr =  3.88E-07,  avg # of iterations =  2.0

     negative rho (up, down):  7.148E-04 1.014E-01

     total cpu time spent up to now is     7369.3 secs

     total energy              =    -860.02342152 Ry
     Harris-Foulkes estimate   =    -860.02444859 Ry
     estimated scf accuracy    <       0.00219926 Ry

     total magnetization       =     2.00 Bohr mag/cell
     absolute magnetization    =     2.27 Bohr mag/cell

     iteration # 75     ecut=    70.00 Ry     beta= 0.30
     Davidson diagonalization with overlap
     ethr =  3.88E-07,  avg # of iterations =  2.0

     negative rho (up, down):  7.669E-04 1.164E-01

     total cpu time spent up to now is     7472.3 secs

     total energy              =    -860.02271699 Ry
     Harris-Foulkes estimate   =    -860.02371083 Ry
     estimated scf accuracy    <       0.00189318 Ry

     total magnetization       =     2.00 Bohr mag/cell
     absolute magnetization    =     2.24 Bohr mag/cell

     iteration # 76     ecut=    70.00 Ry     beta= 0.30
     Davidson diagonalization with overlap
     ethr =  3.88E-07,  avg # of iterations =  2.0

     negative rho (up, down):  6.663E-04 3.200E-02

     total cpu time spent up to now is     7577.2 secs

     total energy              =    -860.02275601 Ry
     Harris-Foulkes estimate   =    -860.02322440 Ry
     estimated scf accuracy    <       0.00401328 Ry

     total magnetization       =     2.00 Bohr mag/cell
     absolute magnetization    =     2.23 Bohr mag/cell

     iteration # 77     ecut=    70.00 Ry     beta= 0.30
     Davidson diagonalization with overlap
     ethr =  3.88E-07,  avg # of iterations =  3.0

     negative rho (up, down):  7.070E-04 8.940E-02

     total cpu time spent up to now is     7694.4 secs

     total energy              =    -860.02280773 Ry
     Harris-Foulkes estimate   =    -860.02498547 Ry
     estimated scf accuracy    <       0.00571859 Ry

     total magnetization       =     2.00 Bohr mag/cell
     absolute magnetization    =     2.30 Bohr mag/cell

     iteration # 78     ecut=    70.00 Ry     beta= 0.30
     Davidson diagonalization with overlap
     ethr =  3.88E-07,  avg # of iterations =  3.0

     negative rho (up, down):  7.189E-04 8.911E-02

     total cpu time spent up to now is     7806.2 secs

     total energy              =    -860.02355642 Ry
     Harris-Foulkes estimate   =    -860.02370395 Ry
     estimated scf accuracy    <       0.00132759 Ry

     total magnetization       =     2.00 Bohr mag/cell
     absolute magnetization    =     2.24 Bohr mag/cell

     iteration # 79     ecut=    70.00 Ry     beta= 0.30
     Davidson diagonalization with overlap
     ethr =  3.88E-07,  avg # of iterations =  2.0

     negative rho (up, down):  6.866E-04 5.677E-02

     total cpu time spent up to now is     7899.8 secs

     total energy              =    -860.02395570 Ry
     Harris-Foulkes estimate   =    -860.02360422 Ry
     estimated scf accuracy    <       0.00112758 Ry

     total magnetization       =     2.00 Bohr mag/cell
     absolute magnetization    =     2.23 Bohr mag/cell

     iteration # 80     ecut=    70.00 Ry     beta= 0.30
     Davidson diagonalization with overlap
     ethr =  3.88E-07,  avg # of iterations =  2.0

     negative rho (up, down):  7.227E-04 9.727E-02

     total cpu time spent up to now is     8001.0 secs

     total energy              =    -860.02291923 Ry
     Harris-Foulkes estimate   =    -860.02416567 Ry
     estimated scf accuracy    <       0.00128843 Ry

     total magnetization       =     2.00 Bohr mag/cell
     absolute magnetization    =     2.25 Bohr mag/cell

     iteration # 81     ecut=    70.00 Ry     beta= 0.30
     Davidson diagonalization with overlap
     ethr =  3.88E-07,  avg # of iterations =  2.0

     negative rho (up, down):  7.163E-04 9.582E-02

     total cpu time spent up to now is     8107.7 secs

     total energy              =    -860.02313377 Ry
     Harris-Foulkes estimate   =    -860.02352481 Ry
     estimated scf accuracy    <       0.00170066 Ry

     total magnetization       =     2.00 Bohr mag/cell
     absolute magnetization    =     2.22 Bohr mag/cell

     iteration # 82     ecut=    70.00 Ry     beta= 0.30
     Davidson diagonalization with overlap
     ethr =  3.88E-07,  avg # of iterations =  2.0

     negative rho (up, down):  6.202E-04 6.666E-02

     total cpu time spent up to now is     8208.8 secs

     total energy              =    -860.02288925 Ry
     Harris-Foulkes estimate   =    -860.02336594 Ry
     estimated scf accuracy    <       0.00174255 Ry

     total magnetization       =     2.00 Bohr mag/cell
     absolute magnetization    =     2.23 Bohr mag/cell

     iteration # 83     ecut=    70.00 Ry     beta= 0.30
     Davidson diagonalization with overlap
     ethr =  3.88E-07,  avg # of iterations =  3.0

     negative rho (up, down):  6.499E-04 6.781E-02

     total cpu time spent up to now is     8324.3 secs

     total energy              =    -860.02333202 Ry
     Harris-Foulkes estimate   =    -860.02385477 Ry
     estimated scf accuracy    <       0.00128702 Ry

     total magnetization       =     2.00 Bohr mag/cell
     absolute magnetization    =     2.28 Bohr mag/cell

     iteration # 84     ecut=    70.00 Ry     beta= 0.30
     Davidson diagonalization with overlap
     ethr =  3.88E-07,  avg # of iterations =  2.5

     negative rho (up, down):  6.416E-04 5.049E-02

     total cpu time spent up to now is     8427.8 secs

     total energy              =    -860.02371069 Ry
     Harris-Foulkes estimate   =    -860.02366029 Ry
     estimated scf accuracy    <       0.00066820 Ry

     total magnetization       =     2.00 Bohr mag/cell
     absolute magnetization    =     2.26 Bohr mag/cell

     iteration # 85     ecut=    70.00 Ry     beta= 0.30
     Davidson diagonalization with overlap
     ethr =  3.12E-07,  avg # of iterations =  2.0

     negative rho (up, down):  6.428E-04 3.699E-02

     total cpu time spent up to now is     8518.9 secs

     total energy              =    -860.02375865 Ry
     Harris-Foulkes estimate   =    -860.02372972 Ry
     estimated scf accuracy    <       0.00045624 Ry

     total magnetization       =     2.00 Bohr mag/cell
     absolute magnetization    =     2.26 Bohr mag/cell

     iteration # 86     ecut=    70.00 Ry     beta= 0.30
     Davidson diagonalization with overlap
     ethr =  2.13E-07,  avg # of iterations =  2.0

     negative rho (up, down):  6.634E-04 3.851E-02

     total cpu time spent up to now is     8611.9 secs

     total energy              =    -860.02368510 Ry
     Harris-Foulkes estimate   =    -860.02378845 Ry
     estimated scf accuracy    <       0.00043873 Ry

     total magnetization       =     2.00 Bohr mag/cell
     absolute magnetization    =     2.26 Bohr mag/cell

     iteration # 87     ecut=    70.00 Ry     beta= 0.30
     Davidson diagonalization with overlap
     ethr =  2.05E-07,  avg # of iterations =  2.0

     negative rho (up, down):  6.416E-04 2.969E-02

     total cpu time spent up to now is     8711.3 secs

     total energy              =    -860.02383925 Ry
     Harris-Foulkes estimate   =    -860.02375925 Ry
     estimated scf accuracy    <       0.00042571 Ry

     total magnetization       =     2.00 Bohr mag/cell
     absolute magnetization    =     2.26 Bohr mag/cell

     iteration # 88     ecut=    70.00 Ry     beta= 0.30
     Davidson diagonalization with overlap
     ethr =  1.99E-07,  avg # of iterations =  2.0

     negative rho (up, down):  6.394E-04 3.113E-02

     total cpu time spent up to now is     8808.3 secs

     total energy              =    -860.02393737 Ry
     Harris-Foulkes estimate   =    -860.02389858 Ry
     estimated scf accuracy    <       0.00058121 Ry

     total magnetization       =     2.00 Bohr mag/cell
     absolute magnetization    =     2.27 Bohr mag/cell

     iteration # 89     ecut=    70.00 Ry     beta= 0.30
     Davidson diagonalization with overlap
     ethr =  1.99E-07,  avg # of iterations =  1.5

     negative rho (up, down):  6.413E-04 3.469E-02

     total cpu time spent up to now is     8898.5 secs

     total energy              =    -860.02395053 Ry
     Harris-Foulkes estimate   =    -860.02394940 Ry
     estimated scf accuracy    <       0.00046536 Ry

     total magnetization       =     2.00 Bohr mag/cell
     absolute magnetization    =     2.27 Bohr mag/cell

     iteration # 90     ecut=    70.00 Ry     beta= 0.30
     Davidson diagonalization with overlap
     ethr =  1.99E-07,  avg # of iterations =  1.0

     negative rho (up, down):  6.543E-04 4.059E-02

     total cpu time spent up to now is     8988.3 secs

     total energy              =    -860.02386181 Ry
     Harris-Foulkes estimate   =    -860.02395652 Ry
     estimated scf accuracy    <       0.00053667 Ry

     total magnetization       =     2.00 Bohr mag/cell
     absolute magnetization    =     2.27 Bohr mag/cell

     iteration # 91     ecut=    70.00 Ry     beta= 0.30
     Davidson diagonalization with overlap
     ethr =  1.99E-07,  avg # of iterations =  2.5

     negative rho (up, down):  6.563E-04 3.691E-02

     total cpu time spent up to now is     9084.8 secs

     total energy              =    -860.02390661 Ry
     Harris-Foulkes estimate   =    -860.02390728 Ry
     estimated scf accuracy    <       0.00014339 Ry

     total magnetization       =     2.00 Bohr mag/cell
     absolute magnetization    =     2.25 Bohr mag/cell

     iteration # 92     ecut=    70.00 Ry     beta= 0.30
     Davidson diagonalization with overlap
     ethr =  6.70E-08,  avg # of iterations =  2.0

     negative rho (up, down):  6.586E-04 3.424E-02

     total cpu time spent up to now is     9174.9 secs

     total energy              =    -860.02391107 Ry
     Harris-Foulkes estimate   =    -860.02391731 Ry
     estimated scf accuracy    <       0.00024832 Ry

     total magnetization       =     2.00 Bohr mag/cell
     absolute magnetization    =     2.25 Bohr mag/cell

     iteration # 93     ecut=    70.00 Ry     beta= 0.30
     Davidson diagonalization with overlap
     ethr =  6.70E-08,  avg # of iterations =  2.5

     negative rho (up, down):  6.611E-04 3.339E-02

     total cpu time spent up to now is     9267.8 secs

     total energy              =    -860.02393489 Ry
     Harris-Foulkes estimate   =    -860.02393587 Ry
     estimated scf accuracy    <       0.00022125 Ry

     total magnetization       =     2.00 Bohr mag/cell
     absolute magnetization    =     2.24 Bohr mag/cell

     iteration # 94     ecut=    70.00 Ry     beta= 0.30
     Davidson diagonalization with overlap
     ethr =  6.70E-08,  avg # of iterations =  1.5

     negative rho (up, down):  6.632E-04 3.481E-02

     total cpu time spent up to now is     9357.8 secs

     total energy              =    -860.02393182 Ry
     Harris-Foulkes estimate   =    -860.02394451 Ry
     estimated scf accuracy    <       0.00013228 Ry

     total magnetization       =     2.00 Bohr mag/cell
     absolute magnetization    =     2.24 Bohr mag/cell

     iteration # 95     ecut=    70.00 Ry     beta= 0.30
     Davidson diagonalization with overlap
     ethr =  6.18E-08,  avg # of iterations =  1.5

     negative rho (up, down):  6.552E-04 2.884E-02

     total cpu time spent up to now is     9447.6 secs

     total energy              =    -860.02396758 Ry
     Harris-Foulkes estimate   =    -860.02393768 Ry
     estimated scf accuracy    <       0.00011252 Ry

     total magnetization       =     2.00 Bohr mag/cell
     absolute magnetization    =     2.24 Bohr mag/cell

     iteration # 96     ecut=    70.00 Ry     beta= 0.30
     Davidson diagonalization with overlap
     ethr =  5.26E-08,  avg # of iterations =  2.0

     negative rho (up, down):  6.631E-04 4.635E-02

     total cpu time spent up to now is     9546.1 secs

     total energy              =    -860.02377725 Ry
     Harris-Foulkes estimate   =    -860.02399016 Ry
     estimated scf accuracy    <       0.00021209 Ry

     total magnetization       =     2.00 Bohr mag/cell
     absolute magnetization    =     2.24 Bohr mag/cell

     iteration # 97     ecut=    70.00 Ry     beta= 0.30
     Davidson diagonalization with overlap
     ethr =  5.26E-08,  avg # of iterations =  2.0

     negative rho (up, down):  6.582E-04 3.748E-02

     total cpu time spent up to now is     9652.6 secs

     total energy              =    -860.02388061 Ry
     Harris-Foulkes estimate   =    -860.02385970 Ry
     estimated scf accuracy    <       0.00014268 Ry

     total magnetization       =     2.00 Bohr mag/cell
     absolute magnetization    =     2.24 Bohr mag/cell

     iteration # 98     ecut=    70.00 Ry     beta= 0.30
     Davidson diagonalization with overlap
     ethr =  5.26E-08,  avg # of iterations =  2.0

     negative rho (up, down):  6.607E-04 4.139E-02

     total cpu time spent up to now is     9743.4 secs

     total energy              =    -860.02383859 Ry
     Harris-Foulkes estimate   =    -860.02389423 Ry
     estimated scf accuracy    <       0.00020720 Ry

     total magnetization       =     2.00 Bohr mag/cell
     absolute magnetization    =     2.24 Bohr mag/cell

     iteration # 99     ecut=    70.00 Ry     beta= 0.30
     Davidson diagonalization with overlap
     ethr =  5.26E-08,  avg # of iterations =  2.0

     negative rho (up, down):  6.607E-04 3.539E-02

     total cpu time spent up to now is     9844.7 secs

     total energy              =    -860.02386389 Ry
     Harris-Foulkes estimate   =    -860.02386270 Ry
     estimated scf accuracy    <       0.00015033 Ry

     total magnetization       =     2.00 Bohr mag/cell
     absolute magnetization    =     2.24 Bohr mag/cell

     iteration #100     ecut=    70.00 Ry     beta= 0.30
     Davidson diagonalization with overlap
     ethr =  5.26E-08,  avg # of iterations =  1.0

     negative rho (up, down):  6.544E-04 3.613E-02

     Magnetic moment per site:
     atom:    1    charge:    0.2155    magn:   -0.0015    constr:    0.0000
     atom:    2    charge:    0.2113    magn:    0.0219    constr:    0.0000
     atom:    3    charge:    1.7153    magn:    0.0005    constr:    0.0000
     atom:    4    charge:    1.7163    magn:    0.0047    constr:    0.0000
     atom:    5    charge:    1.7166    magn:    0.0026    constr:    0.0000
     atom:    6    charge:    1.7151    magn:   -0.0008    constr:    0.0000
     atom:    7    charge:    1.7163    magn:    0.0060    constr:    0.0000
     atom:    8    charge:    1.7161    magn:    0.0055    constr:    0.0000
     atom:    9    charge:    1.7156    magn:   -0.0006    constr:    0.0000
     atom:   10    charge:    1.7181    magn:    0.0227    constr:    0.0000
     atom:   11    charge:    1.7155    magn:   -0.0061    constr:    0.0000
     atom:   12    charge:    1.7180    magn:    0.0232    constr:    0.0000
     atom:   13    charge:    1.7155    magn:   -0.0061    constr:    0.0000
     atom:   14    charge:    1.7174    magn:    0.0218    constr:    0.0000
     atom:   15    charge:    1.7128    magn:   -0.0041    constr:    0.0000
     atom:   16    charge:    1.7151    magn:    0.0237    constr:    0.0000
     atom:   17    charge:    1.7188    magn:    0.0171    constr:    0.0000
     atom:   18    charge:    1.7168    magn:    0.0115    constr:    0.0000
     atom:   19    charge:    1.7122    magn:   -0.0006    constr:    0.0000
     atom:   20    charge:    1.7188    magn:    0.0091    constr:    0.0000
     atom:   21    charge:    1.7151    magn:   -0.0034    constr:    0.0000
     atom:   22    charge:    1.7181    magn:    0.0227    constr:    0.0000
     atom:   23    charge:    1.7156    magn:   -0.0006    constr:    0.0000
     atom:   24    charge:    1.7161    magn:    0.0056    constr:    0.0000
     atom:   25    charge:    1.7126    magn:   -0.0031    constr:    0.0000
     atom:   26    charge:    1.7163    magn:    0.0215    constr:    0.0000
     atom:   27    charge:    1.8515    magn:    0.0033    constr:    0.0000
     atom:   28    charge:   11.1702    magn:    0.4918    constr:    0.0000
     atom:   29    charge:    1.8482    magn:    0.0128    constr:    0.0000
     atom:   30    charge:    1.7168    magn:    0.0115    constr:    0.0000
     atom:   31    charge:    1.7122    magn:   -0.0006    constr:    0.0000
     atom:   32    charge:    1.7161    magn:    0.0055    constr:    0.0000
     atom:   33    charge:    1.7163    magn:    0.0060    constr:    0.0000
     atom:   34    charge:    1.7161    magn:    0.0013    constr:    0.0000
     atom:   35    charge:    1.7167    magn:    0.0019    constr:    0.0000
     atom:   36    charge:    1.7146    magn:    0.0023    constr:    0.0000
     atom:   37    charge:    1.7202    magn:    0.0054    constr:    0.0000
     atom:   38    charge:    1.7163    magn:    0.0215    constr:    0.0000
     atom:   39    charge:    1.8515    magn:    0.0033    constr:    0.0000
     atom:   40    charge:    1.7151    magn:    0.0237    constr:    0.0000
     atom:   41    charge:    1.7188    magn:    0.0171    constr:    0.0000
     atom:   42    charge:    1.7151    magn:   -0.0008    constr:    0.0000
     atom:   43    charge:    1.7166    magn:    0.0026    constr:    0.0000
     atom:   44    charge:    1.7159    magn:    0.0026    constr:    0.0000
     atom:   45    charge:    1.7190    magn:    0.0258    constr:    0.0000
     atom:   46    charge:    1.7161    magn:    0.0013    constr:    0.0000
     atom:   47    charge:    1.7167    magn:    0.0019    constr:    0.0000
     atom:   48    charge:    1.7161    magn:    0.0056    constr:    0.0000
     atom:   49    charge:    1.7126    magn:   -0.0031    constr:    0.0000
     atom:   50    charge:    1.7174    magn:    0.0218    constr:    0.0000
     atom:   51    charge:    1.7128    magn:   -0.0041    constr:    0.0000
     atom:   52    charge:    1.7163    magn:    0.0047    constr:    0.0000

     total cpu time spent up to now is     9935.5 secs

     total energy              =    -860.02383685 Ry
     Harris-Foulkes estimate   =    -860.02386706 Ry
     estimated scf accuracy    <       0.00008232 Ry

     total magnetization       =     2.00 Bohr mag/cell
     absolute magnetization    =     2.24 Bohr mag/cell

     iteration #101     ecut=    70.00 Ry     beta= 0.30
     Davidson diagonalization with overlap
     ethr =  3.85E-08,  avg # of iterations =  3.0

     negative rho (up, down):  6.521E-04 2.829E-02

     total cpu time spent up to now is    10059.6 secs

     total energy              =    -860.02394158 Ry
     Harris-Foulkes estimate   =    -860.02394398 Ry
     estimated scf accuracy    <       0.00004459 Ry

     total magnetization       =     2.00 Bohr mag/cell
     absolute magnetization    =     2.22 Bohr mag/cell

     iteration #102     ecut=    70.00 Ry     beta= 0.30
     Davidson diagonalization with overlap
     ethr =  2.08E-08,  avg # of iterations =  2.5

     negative rho (up, down):  6.528E-04 2.628E-02

     total cpu time spent up to now is    10152.5 secs

     total energy              =    -860.02392072 Ry
     Harris-Foulkes estimate   =    -860.02394697 Ry
     estimated scf accuracy    <       0.00004609 Ry

     total magnetization       =     2.00 Bohr mag/cell
     absolute magnetization    =     2.22 Bohr mag/cell

     iteration #103     ecut=    70.00 Ry     beta= 0.30
     Davidson diagonalization with overlap
     ethr =  2.08E-08,  avg # of iterations =  2.0

     negative rho (up, down):  6.514E-04 2.903E-02

     total cpu time spent up to now is    10251.9 secs

     total energy              =    -860.02390672 Ry
     Harris-Foulkes estimate   =    -860.02392696 Ry
     estimated scf accuracy    <       0.00004243 Ry

     total magnetization       =     2.00 Bohr mag/cell
     absolute magnetization    =     2.22 Bohr mag/cell

     iteration #104     ecut=    70.00 Ry     beta= 0.30
     Davidson diagonalization with overlap
     ethr =  1.98E-08,  avg # of iterations =  2.5

     negative rho (up, down):  6.511E-04 2.574E-02

     total cpu time spent up to now is    10357.3 secs

     total energy              =    -860.02392195 Ry
     Harris-Foulkes estimate   =    -860.02392530 Ry
     estimated scf accuracy    <       0.00004651 Ry

     total magnetization       =     2.00 Bohr mag/cell
     absolute magnetization    =     2.22 Bohr mag/cell

     iteration #105     ecut=    70.00 Ry     beta= 0.30
     Davidson diagonalization with overlap
     ethr =  1.98E-08,  avg # of iterations =  1.0

     negative rho (up, down):  6.505E-04 2.487E-02

     total cpu time spent up to now is    10447.0 secs

     total energy              =    -860.02392429 Ry
     Harris-Foulkes estimate   =    -860.02392326 Ry
     estimated scf accuracy    <       0.00001925 Ry

     total magnetization       =     2.00 Bohr mag/cell
     absolute magnetization    =     2.22 Bohr mag/cell

     iteration #106     ecut=    70.00 Ry     beta= 0.30
     Davidson diagonalization with overlap
     ethr =  9.00E-09,  avg # of iterations =  2.0

     negative rho (up, down):  6.485E-04 2.463E-02

     total cpu time spent up to now is    10538.8 secs

     total energy              =    -860.02393097 Ry
     Harris-Foulkes estimate   =    -860.02392625 Ry
     estimated scf accuracy    <       0.00004016 Ry

     total magnetization       =     2.00 Bohr mag/cell
     absolute magnetization    =     2.22 Bohr mag/cell

     iteration #107     ecut=    70.00 Ry     beta= 0.30
     Davidson diagonalization with overlap
     ethr =  9.00E-09,  avg # of iterations =  3.0

     negative rho (up, down):  6.496E-04 2.347E-02

     total cpu time spent up to now is    10640.8 secs

     total energy              =    -860.02392557 Ry
     Harris-Foulkes estimate   =    -860.02393694 Ry
     estimated scf accuracy    <       0.00006586 Ry

     total magnetization       =     2.00 Bohr mag/cell
     absolute magnetization    =     2.22 Bohr mag/cell

     iteration #108     ecut=    70.00 Ry     beta= 0.30
     Davidson diagonalization with overlap
     ethr =  9.00E-09,  avg # of iterations =  2.0

     negative rho (up, down):  6.493E-04 2.284E-02

     total cpu time spent up to now is    10738.6 secs

     total energy              =    -860.02393063 Ry
     Harris-Foulkes estimate   =    -860.02392997 Ry
     estimated scf accuracy    <       0.00003832 Ry

     total magnetization       =     2.00 Bohr mag/cell
     absolute magnetization    =     2.22 Bohr mag/cell

     iteration #109     ecut=    70.00 Ry     beta= 0.30
     Davidson diagonalization with overlap
     ethr =  9.00E-09,  avg # of iterations =  2.0

     negative rho (up, down):  6.520E-04 2.202E-02

     total cpu time spent up to now is    10831.3 secs

     total energy              =    -860.02390697 Ry
     Harris-Foulkes estimate   =    -860.02393166 Ry
     estimated scf accuracy    <       0.00004643 Ry

     total magnetization       =     2.00 Bohr mag/cell
     absolute magnetization    =     2.22 Bohr mag/cell

     iteration #110     ecut=    70.00 Ry     beta= 0.30
     Davidson diagonalization with overlap
     ethr =  9.00E-09,  avg # of iterations =  2.5

     negative rho (up, down):  6.528E-04 2.261E-02

     total cpu time spent up to now is    10942.8 secs

     total energy              =    -860.02390720 Ry
     Harris-Foulkes estimate   =    -860.02391830 Ry
     estimated scf accuracy    <       0.00003760 Ry

     total magnetization       =     2.00 Bohr mag/cell
     absolute magnetization    =     2.22 Bohr mag/cell

[...]

     iteration #151     ecut=    70.00 Ry     beta= 0.30
     Davidson diagonalization with overlap
     ethr =  1.43E-09,  avg # of iterations =  3.0

     negative rho (up, down):  6.493E-04 2.256E-02

     total cpu time spent up to now is    15483.7 secs

     total energy              =    -860.02396968 Ry
     Harris-Foulkes estimate   =    -860.02397353 Ry
     estimated scf accuracy    <       0.00000761 Ry

     total magnetization       =     2.00 Bohr mag/cell
     absolute magnetization    =     2.19 Bohr mag/cell

     iteration #152     ecut=    70.00 Ry     beta= 0.30
     Davidson diagonalization with overlap
     ethr =  1.43E-09,  avg # of iterations =  2.5

     negative rho (up, down):  6.493E-04 2.266E-02

     total cpu time spent up to now is    15589.2 secs

     total energy              =    -860.02396886 Ry
     Harris-Foulkes estimate   =    -860.02397228 Ry
     estimated scf accuracy    <       0.00000262 Ry

     total magnetization       =     2.00 Bohr mag/cell
     absolute magnetization    =     2.19 Bohr mag/cell

     iteration #153     ecut=    70.00 Ry     beta= 0.30
     Davidson diagonalization with overlap
     ethr =  1.22E-09,  avg # of iterations =  2.0

     negative rho (up, down):  6.492E-04 2.212E-02

     total cpu time spent up to now is    15694.0 secs

     total energy              =    -860.02397029 Ry
     Harris-Foulkes estimate   =    -860.02397034 Ry
     estimated scf accuracy    <       0.00000332 Ry

     total magnetization       =     2.00 Bohr mag/cell
     absolute magnetization    =     2.19 Bohr mag/cell

     iteration #154     ecut=    70.00 Ry     beta= 0.30
     Davidson diagonalization with overlap
     ethr =  1.22E-09,  avg # of iterations =  2.0

     negative rho (up, down):  6.492E-04 2.235E-02

     total cpu time spent up to now is    15798.1 secs

     total energy              =    -860.02396989 Ry
     Harris-Foulkes estimate   =    -860.02397165 Ry
     estimated scf accuracy    <       0.00000480 Ry

     total magnetization       =     2.00 Bohr mag/cell
     absolute magnetization    =     2.19 Bohr mag/cell

     iteration #155     ecut=    70.00 Ry     beta= 0.30
     Davidson diagonalization with overlap
     ethr =  1.22E-09,  avg # of iterations =  2.0

     negative rho (up, down):  6.492E-04 2.219E-02

     total cpu time spent up to now is    15900.6 secs

     total energy              =    -860.02397120 Ry
     Harris-Foulkes estimate   =    -860.02397094 Ry
     estimated scf accuracy    <       0.00000472 Ry

     total magnetization       =     2.00 Bohr mag/cell
     absolute magnetization    =     2.19 Bohr mag/cell

     iteration #156     ecut=    70.00 Ry     beta= 0.30
     Davidson diagonalization with overlap
     ethr =  1.22E-09,  avg # of iterations =  1.0

     negative rho (up, down):  6.493E-04 2.216E-02

     total cpu time spent up to now is    15990.4 secs

     total energy              =    -860.02396902 Ry
     Harris-Foulkes estimate   =    -860.02397122 Ry
     estimated scf accuracy    <       0.00000535 Ry

     total magnetization       =     2.00 Bohr mag/cell
     absolute magnetization    =     2.19 Bohr mag/cell

     iteration #157     ecut=    70.00 Ry     beta= 0.30
     Davidson diagonalization with overlap
     ethr =  1.22E-09,  avg # of iterations =  3.0

     negative rho (up, down):  6.492E-04 2.221E-02

     total cpu time spent up to now is    16103.7 secs

     total energy              =    -860.02396972 Ry
     Harris-Foulkes estimate   =    -860.02397060 Ry
     estimated scf accuracy    <       0.00000595 Ry

     total magnetization       =     2.00 Bohr mag/cell
     absolute magnetization    =     2.19 Bohr mag/cell

     iteration #158     ecut=    70.00 Ry     beta= 0.30
     Davidson diagonalization with overlap
     ethr =  1.22E-09,  avg # of iterations =  2.0

     negative rho (up, down):  6.492E-04 2.216E-02

     total cpu time spent up to now is    16196.5 secs

     total energy              =    -860.02396985 Ry
     Harris-Foulkes estimate   =    -860.02397002 Ry
     estimated scf accuracy    <       0.00000683 Ry

     total magnetization       =     2.00 Bohr mag/cell
     absolute magnetization    =     2.19 Bohr mag/cell

     iteration #159     ecut=    70.00 Ry     beta= 0.30
     Davidson diagonalization with overlap
     ethr =  1.22E-09,  avg # of iterations =  2.5

     negative rho (up, down):  6.492E-04 2.224E-02

     total cpu time spent up to now is    16302.1 secs

     total energy              =    -860.02397045 Ry
     Harris-Foulkes estimate   =    -860.02397089 Ry
     estimated scf accuracy    <       0.00000809 Ry

     total magnetization       =     2.00 Bohr mag/cell
     absolute magnetization    =     2.19 Bohr mag/cell

     iteration #160     ecut=    70.00 Ry     beta= 0.30
     Davidson diagonalization with overlap
     ethr =  1.22E-09,  avg # of iterations =  2.0

     negative rho (up, down):  6.498E-04 2.331E-02

     total cpu time spent up to now is    16400.2 secs

     total energy              =    -860.02395277 Ry
     Harris-Foulkes estimate   =    -860.02397084 Ry
     estimated scf accuracy    <       0.00000807 Ry

     total magnetization       =     2.00 Bohr mag/cell
     absolute magnetization    =     2.19 Bohr mag/cell

     iteration #161     ecut=    70.00 Ry     beta= 0.30
     Davidson diagonalization with overlap
     ethr =  1.22E-09,  avg # of iterations =  4.0

     negative rho (up, down):  6.493E-04 2.213E-02

     total cpu time spent up to now is    16548.3 secs

     total energy              =    -860.02396305 Ry
     Harris-Foulkes estimate   =    -860.02397193 Ry
     estimated scf accuracy    <       0.00000585 Ry

     total magnetization       =     2.00 Bohr mag/cell
     absolute magnetization    =     2.19 Bohr mag/cell

     iteration #162     ecut=    70.00 Ry     beta= 0.30
     Davidson diagonalization with overlap
     ethr =  1.22E-09,  avg # of iterations =  3.5

     negative rho (up, down):  6.498E-04 2.266E-02

     total cpu time spent up to now is    16687.1 secs

     total energy              =    -860.02396155 Ry
     Harris-Foulkes estimate   =    -860.02397196 Ry
     estimated scf accuracy    <       0.00000385 Ry

     total magnetization       =     2.00 Bohr mag/cell
     absolute magnetization    =     2.19 Bohr mag/cell

     iteration #163     ecut=    70.00 Ry     beta= 0.30
     Davidson diagonalization with overlap
     ethr =  1.22E-09,  avg # of iterations =  3.5

     negative rho (up, down):  6.495E-04 2.222E-02

     total cpu time spent up to now is    16828.7 secs

     total energy              =    -860.02397068 Ry
     Harris-Foulkes estimate   =    -860.02397229 Ry
     estimated scf accuracy    <       0.00000307 Ry

     total magnetization       =     2.00 Bohr mag/cell
     absolute magnetization    =     2.19 Bohr mag/cell

     iteration #164     ecut=    70.00 Ry     beta= 0.30
     Davidson diagonalization with overlap
     ethr =  1.22E-09,  avg # of iterations =  3.0

     negative rho (up, down):  6.497E-04 2.222E-02

     Magnetic moment per site:
     atom:    1    charge:    0.2155    magn:   -0.0016    constr:    0.0000
     atom:    2    charge:    0.2114    magn:    0.0219    constr:    0.0000
     atom:    3    charge:    1.7151    magn:    0.0037    constr:    0.0000
     atom:    4    charge:    1.7163    magn:    0.0029    constr:    0.0000
     atom:    5    charge:    1.7165    magn:    0.0057    constr:    0.0000
     atom:    6    charge:    1.7153    magn:   -0.0028    constr:    0.0000
     atom:    7    charge:    1.7161    magn:    0.0098    constr:    0.0000
     atom:    8    charge:    1.7164    magn:    0.0024    constr:    0.0000
     atom:    9    charge:    1.7153    magn:    0.0022    constr:    0.0000
     atom:   10    charge:    1.7189    magn:    0.0161    constr:    0.0000
     atom:   11    charge:    1.7153    magn:   -0.0044    constr:    0.0000
     atom:   12    charge:    1.7179    magn:    0.0230    constr:    0.0000
     atom:   13    charge:    1.7153    magn:   -0.0044    constr:    0.0000
     atom:   14    charge:    1.7177    magn:    0.0182    constr:    0.0000
     atom:   15    charge:    1.7128    magn:   -0.0027    constr:    0.0000
     atom:   16    charge:    1.7153    magn:    0.0218    constr:    0.0000
     atom:   17    charge:    1.7182    magn:    0.0241    constr:    0.0000
     atom:   18    charge:    1.7173    magn:    0.0075    constr:    0.0000
     atom:   19    charge:    1.7122    magn:    0.0008    constr:    0.0000
     atom:   20    charge:    1.7188    magn:    0.0069    constr:    0.0000
     atom:   21    charge:    1.7147    magn:   -0.0011    constr:    0.0000
     atom:   22    charge:    1.7189    magn:    0.0161    constr:    0.0000
     atom:   23    charge:    1.7153    magn:    0.0022    constr:    0.0000
     atom:   24    charge:    1.7162    magn:    0.0033    constr:    0.0000
     atom:   25    charge:    1.7125    magn:   -0.0016    constr:    0.0000
     atom:   26    charge:    1.7172    magn:    0.0144    constr:    0.0000
     atom:   27    charge:    1.8509    magn:    0.0086    constr:    0.0000
     atom:   28    charge:   11.1726    magn:    0.4644    constr:    0.0000
     atom:   29    charge:    1.8476    magn:    0.0214    constr:    0.0000
     atom:   30    charge:    1.7173    magn:    0.0075    constr:    0.0000
     atom:   31    charge:    1.7122    magn:    0.0008    constr:    0.0000
     atom:   32    charge:    1.7164    magn:    0.0024    constr:    0.0000
     atom:   33    charge:    1.7161    magn:    0.0098    constr:    0.0000
     atom:   34    charge:    1.7165    magn:   -0.0022    constr:    0.0000
     atom:   35    charge:    1.7166    magn:    0.0050    constr:    0.0000
     atom:   36    charge:    1.7146    magn:    0.0009    constr:    0.0000
     atom:   37    charge:    1.7195    magn:    0.0114    constr:    0.0000
     atom:   38    charge:    1.7172    magn:    0.0144    constr:    0.0000
     atom:   39    charge:    1.8509    magn:    0.0086    constr:    0.0000
     atom:   40    charge:    1.7153    magn:    0.0218    constr:    0.0000
     atom:   41    charge:    1.7182    magn:    0.0241    constr:    0.0000
     atom:   42    charge:    1.7153    magn:   -0.0028    constr:    0.0000
     atom:   43    charge:    1.7165    magn:    0.0057    constr:    0.0000
     atom:   44    charge:    1.7162    magn:    0.0005    constr:    0.0000
     atom:   45    charge:    1.7180    magn:    0.0358    constr:    0.0000
     atom:   46    charge:    1.7165    magn:   -0.0022    constr:    0.0000
     atom:   47    charge:    1.7166    magn:    0.0050    constr:    0.0000
     atom:   48    charge:    1.7162    magn:    0.0033    constr:    0.0000
     atom:   49    charge:    1.7125    magn:   -0.0016    constr:    0.0000
     atom:   50    charge:    1.7177    magn:    0.0182    constr:    0.0000
     atom:   51    charge:    1.7128    magn:   -0.0027    constr:    0.0000
     atom:   52    charge:    1.7163    magn:    0.0029    constr:    0.0000

     total cpu time spent up to now is    16947.3 secs

     End of self-consistent calculation

 ------ SPIN UP ------------


          k = 0.0000 0.0000 0.0000 ( 87777 PWs)   bands (ev):

   -89.1044 -55.9270 -55.9049 -54.5091 -19.7629 -18.9104 -18.8880 -18.8652
   -18.8577 -18.8277 -18.5655 -17.0842 -17.0815 -17.0526 -17.0073 -17.0027
   -16.7029 -16.2237 -16.2163 -16.1456 -16.1037 -16.0934 -15.4612 -14.1282
   -14.1204 -14.0629 -13.9828 -13.9781 -13.4735 -13.0603 -13.0542 -13.0272
   -12.7981 -12.7913 -12.3135 -11.8721 -11.8650 -11.6755 -11.4393 -11.4323
   -10.6016  -9.8087  -9.8063  -9.4416  -9.2965  -9.2934  -9.1969  -9.1871
    -9.1849  -9.1786  -8.7630  -8.7398  -8.3694  -8.2801  -8.2639  -8.0567
    -7.8312  -7.7811  -7.4313  -7.4214  -7.3528  -7.2590  -7.1075  -7.0373
    -7.0369  -6.8200  -6.8135  -6.7968  -6.7298  -6.5405  -6.5314  -6.5303
    -6.5247  -6.5170  -6.4921  -6.3163  -5.8212  -5.7477  -5.7310  -5.7249
    -5.5004  -5.4111  -5.4091  -4.9532  -4.9061  -4.7200  -4.7068  -4.7046
    -4.5432  -4.5307  -4.3740  -4.2542  -4.2460  -3.8226  -3.8074  -3.8065
    -3.6897  -3.6821  -3.1728  -2.8971  -2.8914  -1.8600  -1.7930  -1.7918
    -1.7560  -1.1523  -1.1372  -1.0630   0.9249   0.9766   0.9768   1.4670
     1.4754   1.5879   2.0362   2.1055   2.5381   2.8013   2.8142   2.8202
     3.3212   3.3357   3.4406   3.6764   3.6935   3.7828   3.7848   3.7934

     occupation numbers 
     1.0000   1.0000   1.0000   1.0000   1.0000   1.0000   1.0000   1.0000
     1.0000   1.0000   1.0000   1.0000   1.0000   1.0000   1.0000   1.0000
     1.0000   1.0000   1.0000   1.0000   1.0000   1.0000   1.0000   1.0000
     1.0000   1.0000   1.0000   1.0000   1.0000   1.0000   1.0000   1.0000
     1.0000   1.0000   1.0000   1.0000   1.0000   1.0000   1.0000   1.0000
     1.0000   1.0000   1.0000   1.0000   1.0000   1.0000   1.0000   1.0000
     1.0000   1.0000   1.0000   1.0000   1.0000   1.0000   1.0000   1.0000
     1.0000   1.0000   1.0000   1.0000   1.0000   1.0000   1.0000   1.0000
     1.0000   1.0000   1.0000   1.0000   1.0000   1.0000   1.0000   1.0000
     1.0000   1.0000   1.0000   1.0000   1.0000   1.0000   1.0000   1.0000
     1.0000   1.0000   1.0000   1.0000   1.0000   1.0000   1.0000   1.0000
     1.0000   1.0000   1.0000   1.0000   1.0000   1.0000   1.0000   1.0000
     1.0000   1.0000   1.0000   1.0000   1.0000   1.0000   1.0000   1.0000
     1.0000   1.0000   1.0000   1.0000   0.0000   0.0000   0.0000   0.0000
     0.0000   0.0000   0.0000   0.0000   0.0000   0.0000   0.0000   0.0000
     0.0000   0.0000   0.0000   0.0000   0.0000   0.0000   0.0000   0.0000

 ------ SPIN DOWN ----------


          k = 0.0000 0.0000 0.0000 ( 87777 PWs)   bands (ev):

   -88.3597 -55.3371 -55.3368 -53.5126 -19.7366 -18.8769 -18.8606 -18.8485
   -18.8410 -18.8010 -18.5154 -17.0550 -17.0543 -17.0388 -16.9739 -16.9715
   -16.6711 -16.1952 -16.1934 -16.1119 -16.0720 -16.0672 -15.4281 -14.0811
   -14.0810 -14.0359 -13.9700 -13.9667 -13.4184 -13.0407 -13.0391 -13.0089
   -12.7760 -12.7759 -12.2905 -11.8417 -11.8348 -11.6479 -11.4179 -11.4134
   -10.5603  -9.7507  -9.7459  -9.4274  -9.2728  -9.2716  -9.1869  -9.1716
    -9.1705  -9.1612  -8.7395  -8.7250  -8.2533  -8.2396  -8.1725  -8.0150
    -7.8195  -7.6857  -7.4187  -7.4063  -7.2963  -7.1120  -6.9842  -6.9834
    -6.9571  -6.7799  -6.7737  -6.7322  -6.7209  -6.5268  -6.5221  -6.5196
    -6.5168  -6.5094  -6.4739  -6.1779  -5.6696  -5.6588  -5.6224  -5.4989
    -5.3746  -5.3745  -5.2713  -4.9417  -4.9008  -4.6761  -4.6474  -4.6420
    -4.4698  -4.4614  -4.2928  -4.1760  -4.1758  -3.7522  -3.7497  -3.7182
    -3.6741  -3.6685  -3.0673  -2.7362  -2.7303  -1.7919  -1.7697  -1.7669
    -0.9615  -0.9291  -0.9221  -0.7169   0.9976   1.0109   1.0133   1.5714
     1.5791   1.6921   2.2460   2.3059   2.5525   2.8772   2.8793   2.9129
     3.4334   3.4364   3.5512   3.6881   3.7106   3.7836   3.7847   3.7979

     occupation numbers 
     1.0000   1.0000   1.0000   1.0000   1.0000   1.0000   1.0000   1.0000
     1.0000   1.0000   1.0000   1.0000   1.0000   1.0000   1.0000   1.0000
     1.0000   1.0000   1.0000   1.0000   1.0000   1.0000   1.0000   1.0000
     1.0000   1.0000   1.0000   1.0000   1.0000   1.0000   1.0000   1.0000
     1.0000   1.0000   1.0000   1.0000   1.0000   1.0000   1.0000   1.0000
     1.0000   1.0000   1.0000   1.0000   1.0000   1.0000   1.0000   1.0000
     1.0000   1.0000   1.0000   1.0000   1.0000   1.0000   1.0000   1.0000
     1.0000   1.0000   1.0000   1.0000   1.0000   1.0000   1.0000   1.0000
     1.0000   1.0000   1.0000   1.0000   1.0000   1.0000   1.0000   1.0000
     1.0000   1.0000   1.0000   1.0000   1.0000   1.0000   1.0000   1.0000
     1.0000   1.0000   1.0000   1.0000   1.0000   1.0000   1.0000   1.0000
     1.0000   1.0000   1.0000   1.0000   1.0000   1.0000   1.0000   1.0000
     1.0000   1.0000   1.0000   1.0000   1.0000   1.0000   1.0000   1.0000
     1.0040   0.6812   0.3148   0.0000   0.0000   0.0000   0.0000   0.0000
     0.0000   0.0000   0.0000   0.0000   0.0000   0.0000   0.0000   0.0000
     0.0000   0.0000   0.0000   0.0000   0.0000   0.0000   0.0000   0.0000

     the Fermi energy is    -0.9239 ev

!    total energy              =    -860.02397228 Ry
     Harris-Foulkes estimate   =    -860.02397244 Ry
     estimated scf accuracy    <       0.00000089 Ry

     The total energy is the sum of the following terms:

     one-electron contribution =   -2820.35219810 Ry
     hartree contribution      =    1454.35123308 Ry
     xc contribution           =    -259.45358773 Ry
     ewald contribution        =     765.43085108 Ry
     smearing contrib. (-TS)   =      -0.00027061 Ry

     total magnetization       =     2.00 Bohr mag/cell
     absolute magnetization    =     2.19 Bohr mag/cell

     convergence has been achieved in 164 iterations

     Writing output data file distance-1.8.save/

     init_run     :     69.37s CPU     70.89s WALL (       1 calls)
     electrons    :  16562.92s CPU  16875.38s WALL (       1 calls)

     Called by init_run:
     wfcinit      :     40.15s CPU     40.57s WALL (       1 calls)
     wfcinit:atom :      0.06s CPU      0.09s WALL (       2 calls)
     wfcinit:wfcr :     39.75s CPU     40.07s WALL (       2 calls)
     potinit      :     11.97s CPU     12.42s WALL (       1 calls)
     hinit0       :      9.00s CPU      9.04s WALL (       1 calls)

     Called by electrons:
     c_bands      :  10757.18s CPU  10819.08s WALL (     164 calls)
     sum_band     :   3342.08s CPU   3440.37s WALL (     164 calls)
     v_of_rho     :   1192.65s CPU   1256.07s WALL (     165 calls)
     v_h          :     12.09s CPU     12.43s WALL (     165 calls)
     v_xc         :   1180.56s CPU   1243.64s WALL (     165 calls)
     newd         :   1187.02s CPU   1274.98s WALL (     165 calls)
     mix_rho      :     61.18s CPU     62.14s WALL (     164 calls)

     Called by c_bands:
     init_us_2    :     28.52s CPU     28.62s WALL (     658 calls)
     cegterg      :  10670.08s CPU  10731.50s WALL (     328 calls)

     Called by sum_band:
     sum_band:bec :      0.27s CPU      0.27s WALL (     328 calls)
     addusdens    :   2078.67s CPU   2168.83s WALL (     164 calls)

     Called by *egterg:
     h_psi        :   5390.15s CPU   5432.25s WALL (    1138 calls)
     s_psi        :   1804.53s CPU   1805.54s WALL (    1138 calls)
     g_psi        :      6.25s CPU      6.28s WALL (     808 calls)
     cdiaghg      :     82.76s CPU     82.81s WALL (    1136 calls)
     cegterg:over :   1426.99s CPU   1427.73s WALL (     808 calls)
     cegterg:upda :    875.63s CPU    880.94s WALL (     808 calls)
     cegterg:last :    569.99s CPU    570.22s WALL (     328 calls)

     Called by h_psi:
     h_psi:pot    :   5383.52s CPU   5418.30s WALL (    1138 calls)
     h_psi:calbec :   1804.27s CPU   1805.32s WALL (    1138 calls)
     vloc_psi     :   1776.20s CPU   1809.17s WALL (    1138 calls)
     add_vuspsi   :   1803.03s CPU   1803.81s WALL (    1138 calls)

     General routines
     calbec       :   2557.36s CPU   2558.76s WALL (    1466 calls)
     fft          :    671.22s CPU    695.41s WALL (   12369 calls)
     ffts         :     11.91s CPU     12.29s WALL (     658 calls)
     fftw         :   1892.72s CPU   1927.74s WALL (  243016 calls)
     interpolate  :     27.46s CPU     28.17s WALL (     330 calls)

     Parallel routines
     fft_scatt_xy :    451.63s CPU    457.71s WALL (  256043 calls)
     fft_scatt_yz :    880.53s CPU    921.62s WALL (  256043 calls)

     PWSCF        :      4h37m CPU      4h42m WALL


   This run was terminated on:  21:25:15  16Nov2022            

=------------------------------------------------------------------------------=
   JOB DONE.
=------------------------------------------------------------------------------=
