
     Program PWSCF v.6.4.1 starts on 14Nov2022 at 22: 6:58 

     This program is part of the open-source Quantum ESPRESSO suite
     for quantum simulation of materials; please cite
         "P. Giannozzi et al., J. Phys.:Condens. Matter 21 395502 (2009);
         "P. Giannozzi et al., J. Phys.:Condens. Matter 29 465901 (2017);
          URL http://www.quantum-espresso.org", 
     in publications or presentations arising from this work. More details at
     http://www.quantum-espresso.org/quote

     Parallel version (MPI), running on     6 processors

     MPI processes distributed on     1 nodes
     R & G space division:  proc/nbgrp/npool/nimage =       6
     Reading input from distance-4.0.in

     Current dimensions of program PWSCF are:
     Max number of different atomic species (ntypx) = 10
     Max number of k-points (npk) =  40000
     Max angular momentum in pseudopotentials (lmaxx) =  3

     IMPORTANT: XC functional enforced from input :
     Exchange-correlation      = RVV10 ( 1  4 13  4 3 0)
     Any further DFT definition will be discarded
     Please, verify this is what you really want

               file H.pbe-rrkjus.UPF: wavefunction(s)  1S renormalized

     Subspace diagonalization in iterative solution of the eigenvalue problem:
     a serial algorithm will be used


     Parallelization info
     --------------------
     sticks:   dense  smooth     PW     G-vecs:    dense   smooth      PW
     Min        3051    1746    432               270999   117096   14629
     Max        3053    1747    437               271001   117099   14630
     Sum       18313   10477   2611              1626001   702581   87777



     bravais-lattice index     =            4
     lattice parameter (alat)  =      23.2937  a.u.
     unit-cell volume          =    8879.8548 (a.u.)^3
     number of atoms/cell      =           52
     number of atomic types    =            3
     number of electrons       =       214.00
     number of Kohn-Sham states=          128
     kinetic-energy cutoff     =      70.0000  Ry
     charge density cutoff     =     490.0000  Ry
     convergence threshold     =      1.0E-06
     mixing beta               =       0.3000
     number of iterations used =            4  plain     mixing
     Exchange-correlation      = RVV10 ( 1  4 13  4 3 0)

     celldm(1)=  23.293684  celldm(2)=   0.000000  celldm(3)=   0.811261
     celldm(4)=   0.000000  celldm(5)=   0.000000  celldm(6)=   0.000000

     crystal axes: (cart. coord. in units of alat)
               a(1) = (   1.000000   0.000000   0.000000 )  
               a(2) = (  -0.500000   0.866025   0.000000 )  
               a(3) = (   0.000000   0.000000   0.811261 )  

     reciprocal axes: (cart. coord. in units 2 pi/alat)
               b(1) = (  1.000000  0.577350 -0.000000 )  
               b(2) = (  0.000000  1.154701  0.000000 )  
               b(3) = (  0.000000 -0.000000  1.232649 )  


     PseudoPot. # 1 for H  read from file:
     /home/cristian/Escritorio/Proyecto_Grafeno/pseudopotenciales/H.pbe-rrkjus.UPF
     MD5 check sum: 7cc9d459525c9a0585f487a71c3c9563
     Pseudo is Ultrasoft, Zval =  1.0
     Generated by new atomic code, or converted to UPF format
     Using radial grid of 1061 points,  2 beta functions with: 
                l(1) =   0
                l(2) =   0
     Q(r) pseudized with 0 coefficients 


     PseudoPot. # 2 for C  read from file:
     /home/cristian/Escritorio/Proyecto_Grafeno/pseudopotenciales/C.pbe-n-rrkjus_psl.1.0.0.UPF
     MD5 check sum: 1fdd950c42eb37d8afe3dd2f8d12311e
     Pseudo is Ultrasoft + core correction, Zval =  4.0
     Generated using "atomic" code by A. Dal Corso v.6.3MaX
     Using radial grid of 1073 points,  4 beta functions with: 
                l(1) =   0
                l(2) =   0
                l(3) =   1
                l(4) =   1
     Q(r) pseudized with 0 coefficients 


     PseudoPot. # 3 for Fe read from file:
     /home/cristian/Escritorio/Proyecto_Grafeno/pseudopotenciales/Fe.pbe-spn-rrkjus_psl.1.0.0.UPF
     MD5 check sum: 72ea77fed8e64ab3a2ccf2804dfc1862
     Pseudo is Ultrasoft + core correction, Zval = 16.0
     Generated using "atomic" code by A. Dal Corso v.6.3
     Using radial grid of 1191 points,  6 beta functions with: 
                l(1) =   0
                l(2) =   0
                l(3) =   1
                l(4) =   1
                l(5) =   2
                l(6) =   2
     Q(r) pseudized with 0 coefficients 


     vdW kernel table read from file rVV10_kernel_table
     MD5 check sum: b8e2538accc0c0b3206b45ba4daaba6c

     atomic species   valence    mass     pseudopotential
        H              1.00     1.00794     H ( 1.00)
        C              4.00    12.01070     C ( 1.00)
        Fe            16.00    55.84500     Fe( 1.00)

     Starting magnetic structure 
     atomic species   magnetization
        H            0.500
        C            0.300
        Fe           0.800

      2 Sym. Ops. (no inversion) found


                                    s                        frac. trans.

      isym =  1     identity                                     

 cryst.   s( 1) = (     1          0          0      )
                  (     0          1          0      )
                  (     0          0          1      )

 cart.    s( 1) = (  1.0000000  0.0000000  0.0000000 )
                  (  0.0000000  1.0000000  0.0000000 )
                  (  0.0000000  0.0000000  1.0000000 )


      isym =  2     inv. 180 deg rotation - cryst. axis [1,1,0]  

 cryst.   s( 2) = (     0         -1          0      )
                  (    -1          0          0      )
                  (     0          0          1      )

 cart.    s( 2) = (  0.5000000 -0.8660254  0.0000000 )
                  ( -0.8660254 -0.5000000  0.0000000 )
                  (  0.0000000  0.0000000  1.0000000 )


     point group C_s (m)    
     there are  2 classes
     the character table:

       E     s    
A'     1.00  1.00
A''    1.00 -1.00

     the symmetry operations in each class and the name of the first element:

     E        1
          identity                                               
     s        2
          inv. 180 deg rotation - cryst. axis [1,1,0]            

   Cartesian axes

     site n.     atom                  positions (alat units)
         1           H   tau(   1) = (   0.2500000   0.4330127   0.3245045  )
         2           H   tau(   2) = (   0.2500000   0.4330127   0.3855171  )
         3           C   tau(   3) = (   0.0000000   0.0000000   0.0000000  )
         4           C   tau(   4) = (   0.0000000   0.1154701   0.0000000  )
         5           C   tau(   5) = (  -0.1000000   0.1732051   0.0000000  )
         6           C   tau(   6) = (  -0.1000000   0.2886751   0.0000000  )
         7           C   tau(   7) = (  -0.2000000   0.3464102   0.0000000  )
         8           C   tau(   8) = (  -0.2000000   0.4618802   0.0000000  )
         9           C   tau(   9) = (  -0.3000000   0.5196152   0.0000000  )
        10           C   tau(  10) = (  -0.3000000   0.6350853   0.0000000  )
        11           C   tau(  11) = (  -0.4000000   0.6928203   0.0000000  )
        12           C   tau(  12) = (  -0.4000000   0.8082904   0.0000000  )
        13           C   tau(  13) = (   0.2000000   0.0000000   0.0000000  )
        14           C   tau(  14) = (   0.2000000   0.1154701   0.0000000  )
        15           C   tau(  15) = (   0.1000000   0.1732051   0.0000000  )
        16           C   tau(  16) = (   0.1000000   0.2886751   0.0000000  )
        17           C   tau(  17) = (   0.0000000   0.3464102   0.0000000  )
        18           C   tau(  18) = (   0.0000000   0.4618802   0.0000000  )
        19           C   tau(  19) = (  -0.1000000   0.5196152   0.0000000  )
        20           C   tau(  20) = (  -0.1000000   0.6350853   0.0000000  )
        21           C   tau(  21) = (  -0.2000000   0.6928203   0.0000000  )
        22           C   tau(  22) = (  -0.2000000   0.8082904   0.0000000  )
        23           C   tau(  23) = (   0.4000000   0.0000000   0.0000000  )
        24           C   tau(  24) = (   0.4000000   0.1154701   0.0000000  )
        25           C   tau(  25) = (   0.3000000   0.1732051   0.0000000  )
        26           C   tau(  26) = (   0.3000000   0.2886751   0.0000000  )
        27           C   tau(  27) = (   0.2000000   0.3464102   0.0000000  )
        28           Fe  tau(  28) = (   0.2000000   0.4618802   0.0000000  )
        29           C   tau(  29) = (   0.1000000   0.5196152   0.0000000  )
        30           C   tau(  30) = (   0.1000000   0.6350853   0.0000000  )
        31           C   tau(  31) = (   0.0000000   0.6928203   0.0000000  )
        32           C   tau(  32) = (   0.0000000   0.8082904   0.0000000  )
        33           C   tau(  33) = (   0.6000000   0.0000000   0.0000000  )
        34           C   tau(  34) = (   0.6000000   0.1154701   0.0000000  )
        35           C   tau(  35) = (   0.5000000   0.1732051   0.0000000  )
        36           C   tau(  36) = (   0.5000000   0.2886751   0.0000000  )
        37           C   tau(  37) = (   0.4000000   0.3464102   0.0000000  )
        38           C   tau(  38) = (   0.4000000   0.4618802   0.0000000  )
        39           C   tau(  39) = (   0.3000000   0.5196152   0.0000000  )
        40           C   tau(  40) = (   0.3000000   0.6350853   0.0000000  )
        41           C   tau(  41) = (   0.2000000   0.6928203   0.0000000  )
        42           C   tau(  42) = (   0.2000000   0.8082904   0.0000000  )
        43           C   tau(  43) = (   0.8000000   0.0000000   0.0000000  )
        44           C   tau(  44) = (   0.8000000   0.1154701   0.0000000  )
        45           C   tau(  45) = (   0.7000000   0.1732051   0.0000000  )
        46           C   tau(  46) = (   0.7000000   0.2886751   0.0000000  )
        47           C   tau(  47) = (   0.6000000   0.3464102   0.0000000  )
        48           C   tau(  48) = (   0.6000000   0.4618802   0.0000000  )
        49           C   tau(  49) = (   0.5000000   0.5196152   0.0000000  )
        50           C   tau(  50) = (   0.5000000   0.6350853   0.0000000  )
        51           C   tau(  51) = (   0.4000000   0.6928203   0.0000000  )
        52           C   tau(  52) = (   0.4000000   0.8082904   0.0000000  )

   Crystallographic axes

     site n.     atom                  positions (cryst. coord.)
         1           H   tau(   1) = (  0.5000000  0.5000000  0.4000000  )
         2           H   tau(   2) = (  0.5000000  0.5000000  0.4752072  )
         3           C   tau(   3) = (  0.0000000  0.0000000  0.0000000  )
         4           C   tau(   4) = (  0.0666667  0.1333333  0.0000000  )
         5           C   tau(   5) = (  0.0000000  0.2000000  0.0000000  )
         6           C   tau(   6) = (  0.0666667  0.3333333  0.0000000  )
         7           C   tau(   7) = (  0.0000000  0.4000000  0.0000000  )
         8           C   tau(   8) = (  0.0666667  0.5333333  0.0000000  )
         9           C   tau(   9) = (  0.0000000  0.6000000  0.0000000  )
        10           C   tau(  10) = (  0.0666667  0.7333333  0.0000000  )
        11           C   tau(  11) = (  0.0000000  0.8000000  0.0000000  )
        12           C   tau(  12) = (  0.0666667  0.9333333  0.0000000  )
        13           C   tau(  13) = (  0.2000000  0.0000000  0.0000000  )
        14           C   tau(  14) = (  0.2666667  0.1333333  0.0000000  )
        15           C   tau(  15) = (  0.2000000  0.2000000  0.0000000  )
        16           C   tau(  16) = (  0.2666667  0.3333333  0.0000000  )
        17           C   tau(  17) = (  0.2000000  0.4000000  0.0000000  )
        18           C   tau(  18) = (  0.2666667  0.5333333  0.0000000  )
        19           C   tau(  19) = (  0.2000000  0.6000000  0.0000000  )
        20           C   tau(  20) = (  0.2666667  0.7333333  0.0000000  )
        21           C   tau(  21) = (  0.2000000  0.8000000  0.0000000  )
        22           C   tau(  22) = (  0.2666667  0.9333333  0.0000000  )
        23           C   tau(  23) = (  0.4000000  0.0000000  0.0000000  )
        24           C   tau(  24) = (  0.4666667  0.1333333  0.0000000  )
        25           C   tau(  25) = (  0.4000000  0.2000000  0.0000000  )
        26           C   tau(  26) = (  0.4666667  0.3333333  0.0000000  )
        27           C   tau(  27) = (  0.4000000  0.4000000  0.0000000  )
        28           Fe  tau(  28) = (  0.4666667  0.5333333  0.0000000  )
        29           C   tau(  29) = (  0.4000000  0.6000000  0.0000000  )
        30           C   tau(  30) = (  0.4666667  0.7333333  0.0000000  )
        31           C   tau(  31) = (  0.4000000  0.8000000  0.0000000  )
        32           C   tau(  32) = (  0.4666667  0.9333333  0.0000000  )
        33           C   tau(  33) = (  0.6000000  0.0000000  0.0000000  )
        34           C   tau(  34) = (  0.6666667  0.1333333  0.0000000  )
        35           C   tau(  35) = (  0.6000000  0.2000000  0.0000000  )
        36           C   tau(  36) = (  0.6666667  0.3333333  0.0000000  )
        37           C   tau(  37) = (  0.6000000  0.4000000  0.0000000  )
        38           C   tau(  38) = (  0.6666667  0.5333333  0.0000000  )
        39           C   tau(  39) = (  0.6000000  0.6000000  0.0000000  )
        40           C   tau(  40) = (  0.6666667  0.7333333  0.0000000  )
        41           C   tau(  41) = (  0.6000000  0.8000000  0.0000000  )
        42           C   tau(  42) = (  0.6666667  0.9333333  0.0000000  )
        43           C   tau(  43) = (  0.8000000  0.0000000  0.0000000  )
        44           C   tau(  44) = (  0.8666667  0.1333333  0.0000000  )
        45           C   tau(  45) = (  0.8000000  0.2000000  0.0000000  )
        46           C   tau(  46) = (  0.8666667  0.3333333  0.0000000  )
        47           C   tau(  47) = (  0.8000000  0.4000000  0.0000000  )
        48           C   tau(  48) = (  0.8666667  0.5333333  0.0000000  )
        49           C   tau(  49) = (  0.8000000  0.6000000  0.0000000  )
        50           C   tau(  50) = (  0.8666667  0.7333333  0.0000000  )
        51           C   tau(  51) = (  0.8000000  0.8000000  0.0000000  )
        52           C   tau(  52) = (  0.8666667  0.9333333  0.0000000  )

     number of k points=     1  Marzari-Vanderbilt smearing, width (Ry)=  0.0010
                       cart. coord. in units 2pi/alat
        k(    1) = (   0.0000000   0.0000000   0.0000000), wk =   1.0000000

                       cryst. coord.
        k(    1) = (   0.0000000   0.0000000   0.0000000), wk =   1.0000000

     Dense  grid:  1626001 G-vectors     FFT dimensions: ( 180, 180, 135)

     Smooth grid:   702581 G-vectors     FFT dimensions: ( 125, 125, 108)

     Dynamical RAM for                 wfc:      28.59 MB

     Dynamical RAM for     wfc (w. buffer):      85.76 MB

     Dynamical RAM for           str. fact:      12.41 MB

     Dynamical RAM for           local pot:       0.00 MB

     Dynamical RAM for          nlocal pot:      92.46 MB

     Dynamical RAM for                qrad:      19.73 MB

     Dynamical RAM for          rho,v,vnew:      58.92 MB

     Dynamical RAM for               rhoin:      19.64 MB

     Dynamical RAM for            rho*nmix:      66.16 MB

     Dynamical RAM for           G-vectors:      16.40 MB

     Dynamical RAM for          h,s,v(r/c):      12.00 MB

     Dynamical RAM for          <psi|beta>:       0.81 MB

     Dynamical RAM for                 psi:     114.35 MB

     Dynamical RAM for                hpsi:     114.35 MB

     Dynamical RAM for                spsi:     114.35 MB

     Dynamical RAM for      wfcinit/wfcrot:      93.90 MB

     Dynamical RAM for           addusdens:     975.89 MB

     Estimated static dynamical RAM per process >     422.14 MB

     Estimated max dynamical RAM per process >       1.37 GB

     Estimated total dynamical RAM >       8.19 GB
     Generating pointlists ...
     new r_m :   0.0252 (alat units)  0.5862 (a.u.) for type    1
     new r_m :   0.0476 (alat units)  1.1095 (a.u.) for type    2
     new r_m :   0.0476 (alat units)  1.1095 (a.u.) for type    3

     Check: negative core charge=   -0.000002

     Initial potential from superposition of free atoms

     starting charge  213.80512, renormalised to  214.00000

     negative rho (up, down):  6.306E-05 9.264E-03


---------------------------------------------------------------------------------
Carrying out rVV10 run using the following parameters:
Nqs =      20    Nr_points =    1024   r_max =   100.000
b_value =  6.30000    beta =  0.00901
     q_mesh =  0.00010000  0.00030000  0.00058939  0.00100810
               0.00161396  0.00249058  0.00375900  0.00559430
               0.00824984  0.01209221  0.01765183  0.02569619
               0.03733578  0.05417739  0.07854596  0.11380545
               0.16482331  0.23864234  0.34545298  0.50000000

Gradients computed in Reciprocal space

---------------------------------------------------------------------------------


     Starting wfcs are  208 randomized atomic wfcs

     total cpu time spent up to now is       70.1 secs

     Self-consistent Calculation

     iteration #  1     ecut=    70.00 Ry     beta= 0.30
     Davidson diagonalization with overlap
     ethr =  1.00E-02,  avg # of iterations =  2.5

     negative rho (up, down):  7.451E-05 9.350E-03

     total cpu time spent up to now is      190.6 secs

     total energy              =    -858.10903412 Ry
     Harris-Foulkes estimate   =    -858.63140347 Ry
     estimated scf accuracy    <      10.05976932 Ry

     total magnetization       =     6.00 Bohr mag/cell
     absolute magnetization    =     6.66 Bohr mag/cell

     iteration #  2     ecut=    70.00 Ry     beta= 0.30
     Davidson diagonalization with overlap
     ethr =  4.70E-03,  avg # of iterations =  2.0

     negative rho (up, down):  1.013E-04 1.080E-02

     total cpu time spent up to now is      278.2 secs

     total energy              =    -858.50116182 Ry
     Harris-Foulkes estimate   =    -858.65047213 Ry
     estimated scf accuracy    <       4.89723265 Ry

     total magnetization       =     4.00 Bohr mag/cell
     absolute magnetization    =     5.61 Bohr mag/cell

     iteration #  3     ecut=    70.00 Ry     beta= 0.30
     Davidson diagonalization with overlap
     ethr =  2.29E-03,  avg # of iterations =  3.5

     negative rho (up, down):  1.817E-04 2.274E-02

     total cpu time spent up to now is      370.1 secs

     total energy              =    -858.71982462 Ry
     Harris-Foulkes estimate   =    -859.79374175 Ry
     estimated scf accuracy    <      10.87904008 Ry

     total magnetization       =     6.00 Bohr mag/cell
     absolute magnetization    =     6.17 Bohr mag/cell

     iteration #  4     ecut=    70.00 Ry     beta= 0.30
     Davidson diagonalization with overlap
     ethr =  2.29E-03,  avg # of iterations =  3.0

     negative rho (up, down):  2.298E-04 3.055E-02

     total cpu time spent up to now is      458.8 secs

     total energy              =    -859.84498316 Ry
     Harris-Foulkes estimate   =    -859.59420805 Ry
     estimated scf accuracy    <       0.73796638 Ry

     total magnetization       =     2.00 Bohr mag/cell
     absolute magnetization    =     3.44 Bohr mag/cell

     iteration #  5     ecut=    70.00 Ry     beta= 0.30
     Davidson diagonalization with overlap
     ethr =  3.45E-04,  avg # of iterations = 11.0

     negative rho (up, down):  2.713E-04 3.532E-02

     total cpu time spent up to now is      558.2 secs

     total energy              =    -859.97006869 Ry
     Harris-Foulkes estimate   =    -859.95131010 Ry
     estimated scf accuracy    <       0.57506192 Ry

     total magnetization       =     2.00 Bohr mag/cell
     absolute magnetization    =     3.01 Bohr mag/cell

     iteration #  6     ecut=    70.00 Ry     beta= 0.30
     Davidson diagonalization with overlap
     ethr =  2.69E-04,  avg # of iterations =  4.5

     negative rho (up, down):  5.149E-04 6.391E-02

     total cpu time spent up to now is      647.1 secs

     total energy              =    -860.02156277 Ry
     Harris-Foulkes estimate   =    -860.00182102 Ry
     estimated scf accuracy    <       0.14797448 Ry

     total magnetization       =     2.00 Bohr mag/cell
     absolute magnetization    =     2.89 Bohr mag/cell

     iteration #  7     ecut=    70.00 Ry     beta= 0.30
     Davidson diagonalization with overlap
     ethr =  6.91E-05,  avg # of iterations = 10.0

     negative rho (up, down):  3.031E-03 9.842E-02

     total cpu time spent up to now is      738.0 secs

     total energy              =    -860.04333438 Ry
     Harris-Foulkes estimate   =    -860.04787838 Ry
     estimated scf accuracy    <       0.13269182 Ry

     total magnetization       =     2.00 Bohr mag/cell
     absolute magnetization    =     2.75 Bohr mag/cell

     iteration #  8     ecut=    70.00 Ry     beta= 0.30
     Davidson diagonalization with overlap
     ethr =  6.20E-05,  avg # of iterations =  2.5

     negative rho (up, down):  2.309E-03 8.649E-02

     total cpu time spent up to now is      822.0 secs

     total energy              =    -860.04622785 Ry
     Harris-Foulkes estimate   =    -860.04727636 Ry
     estimated scf accuracy    <       0.05264808 Ry

     total magnetization       =     1.98 Bohr mag/cell
     absolute magnetization    =     2.74 Bohr mag/cell

     iteration #  9     ecut=    70.00 Ry     beta= 0.30
     Davidson diagonalization with overlap
     ethr =  2.46E-05,  avg # of iterations =  2.5

     negative rho (up, down):  2.168E-03 7.785E-02

     total cpu time spent up to now is      907.1 secs

     total energy              =    -860.04439095 Ry
     Harris-Foulkes estimate   =    -860.05010655 Ry
     estimated scf accuracy    <       0.11171935 Ry

     total magnetization       =     2.00 Bohr mag/cell
     absolute magnetization    =     2.74 Bohr mag/cell

     iteration # 10     ecut=    70.00 Ry     beta= 0.30
     Davidson diagonalization with overlap
     ethr =  2.46E-05,  avg # of iterations =  1.0

     negative rho (up, down):  2.163E-03 7.560E-02

     total cpu time spent up to now is      990.2 secs

     total energy              =    -860.05033023 Ry
     Harris-Foulkes estimate   =    -860.05147224 Ry
     estimated scf accuracy    <       0.05951816 Ry

     total magnetization       =     1.18 Bohr mag/cell
     absolute magnetization    =     2.59 Bohr mag/cell

     iteration # 11     ecut=    70.00 Ry     beta= 0.30
     Davidson diagonalization with overlap
     ethr =  2.46E-05,  avg # of iterations =  1.0

     negative rho (up, down):  1.276E-03 6.075E-02

     total cpu time spent up to now is     1072.9 secs

     total energy              =    -860.05280158 Ry
     Harris-Foulkes estimate   =    -860.05138563 Ry
     estimated scf accuracy    <       0.03131742 Ry

     total magnetization       =     2.00 Bohr mag/cell
     absolute magnetization    =     2.75 Bohr mag/cell

     iteration # 12     ecut=    70.00 Ry     beta= 0.30
     Davidson diagonalization with overlap
     ethr =  1.46E-05,  avg # of iterations =  1.0

     negative rho (up, down):  1.045E-03 5.484E-02

     total cpu time spent up to now is     1155.7 secs

     total energy              =    -860.05362394 Ry
     Harris-Foulkes estimate   =    -860.05323732 Ry
     estimated scf accuracy    <       0.02146655 Ry

     total magnetization       =     2.00 Bohr mag/cell
     absolute magnetization    =     2.78 Bohr mag/cell

     iteration # 13     ecut=    70.00 Ry     beta= 0.30
     Davidson diagonalization with overlap
     ethr =  1.00E-05,  avg # of iterations =  3.0

     negative rho (up, down):  1.040E-03 6.250E-02

     total cpu time spent up to now is     1239.8 secs

     total energy              =    -860.05388824 Ry
     Harris-Foulkes estimate   =    -860.05381166 Ry
     estimated scf accuracy    <       0.01736932 Ry

     total magnetization       =     1.98 Bohr mag/cell
     absolute magnetization    =     2.81 Bohr mag/cell

     iteration # 14     ecut=    70.00 Ry     beta= 0.30
     Davidson diagonalization with overlap
     ethr =  8.12E-06,  avg # of iterations =  1.0

     negative rho (up, down):  4.172E-04 4.249E-02

     total cpu time spent up to now is     1322.9 secs

     total energy              =    -860.05124914 Ry
     Harris-Foulkes estimate   =    -860.05392314 Ry
     estimated scf accuracy    <       0.01757923 Ry

     total magnetization       =     1.95 Bohr mag/cell
     absolute magnetization    =     2.83 Bohr mag/cell

     iteration # 15     ecut=    70.00 Ry     beta= 0.30
     Davidson diagonalization with overlap
     ethr =  8.12E-06,  avg # of iterations = 10.0

     negative rho (up, down):  8.117E-04 7.666E-02

     total cpu time spent up to now is     1428.2 secs

     total energy              =    -860.04517437 Ry
     Harris-Foulkes estimate   =    -860.06246805 Ry
     estimated scf accuracy    <       0.26045050 Ry

     total magnetization       =     2.00 Bohr mag/cell
     absolute magnetization    =     3.03 Bohr mag/cell

     iteration # 16     ecut=    70.00 Ry     beta= 0.30
     Davidson diagonalization with overlap
     ethr =  8.12E-06,  avg # of iterations =  3.5

     negative rho (up, down):  7.526E-04 8.835E-02

     total cpu time spent up to now is     1523.3 secs

     total energy              =    -860.05483771 Ry
     Harris-Foulkes estimate   =    -860.05525644 Ry
     estimated scf accuracy    <       0.01572963 Ry

     total magnetization       =     1.92 Bohr mag/cell
     absolute magnetization    =     2.91 Bohr mag/cell

     iteration # 17     ecut=    70.00 Ry     beta= 0.30
     Davidson diagonalization with overlap
     ethr =  7.35E-06,  avg # of iterations =  1.0

     negative rho (up, down):  6.312E-04 1.166E-01

     total cpu time spent up to now is     1606.2 secs

     total energy              =    -860.05220023 Ry
     Harris-Foulkes estimate   =    -860.05489348 Ry
     estimated scf accuracy    <       0.01581475 Ry

     total magnetization       =     1.90 Bohr mag/cell
     absolute magnetization    =     2.91 Bohr mag/cell

     iteration # 18     ecut=    70.00 Ry     beta= 0.30
     Davidson diagonalization with overlap
     ethr =  7.35E-06,  avg # of iterations =  2.0

     negative rho (up, down):  5.368E-04 1.006E-01

     total cpu time spent up to now is     1694.5 secs

     total energy              =    -860.05348433 Ry
     Harris-Foulkes estimate   =    -860.05348854 Ry
     estimated scf accuracy    <       0.01289092 Ry

     total magnetization       =     1.88 Bohr mag/cell
     absolute magnetization    =     2.89 Bohr mag/cell

     iteration # 19     ecut=    70.00 Ry     beta= 0.30
     Davidson diagonalization with overlap
     ethr =  6.02E-06,  avg # of iterations =  2.0

     negative rho (up, down):  5.518E-04 8.162E-02

     total cpu time spent up to now is     1777.7 secs

     total energy              =    -860.05361559 Ry
     Harris-Foulkes estimate   =    -860.05364413 Ry
     estimated scf accuracy    <       0.01665146 Ry

     total magnetization       =     1.73 Bohr mag/cell
     absolute magnetization    =     2.94 Bohr mag/cell

     iteration # 20     ecut=    70.00 Ry     beta= 0.30
     Davidson diagonalization with overlap
     ethr =  6.02E-06,  avg # of iterations =  1.0

     negative rho (up, down):  4.381E-04 6.341E-02

     total cpu time spent up to now is     1860.6 secs

     total energy              =    -860.05319489 Ry
     Harris-Foulkes estimate   =    -860.05367910 Ry
     estimated scf accuracy    <       0.00425558 Ry

     total magnetization       =     2.01 Bohr mag/cell
     absolute magnetization    =     2.93 Bohr mag/cell

     iteration # 21     ecut=    70.00 Ry     beta= 0.30
     Davidson diagonalization with overlap
     ethr =  1.99E-06,  avg # of iterations =  6.5

     negative rho (up, down):  4.543E-04 4.273E-02

     total cpu time spent up to now is     1955.5 secs

     total energy              =    -860.05405916 Ry
     Harris-Foulkes estimate   =    -860.05411298 Ry
     estimated scf accuracy    <       0.00067878 Ry

     total magnetization       =     2.00 Bohr mag/cell
     absolute magnetization    =     3.02 Bohr mag/cell

     iteration # 22     ecut=    70.00 Ry     beta= 0.30
     Davidson diagonalization with overlap
     ethr =  3.17E-07,  avg # of iterations =  2.0

     negative rho (up, down):  4.814E-04 2.880E-02

     total cpu time spent up to now is     2041.1 secs

     total energy              =    -860.05433124 Ry
     Harris-Foulkes estimate   =    -860.05419015 Ry
     estimated scf accuracy    <       0.00046924 Ry

     total magnetization       =     2.00 Bohr mag/cell
     absolute magnetization    =     3.04 Bohr mag/cell

     iteration # 23     ecut=    70.00 Ry     beta= 0.30
     Davidson diagonalization with overlap
     ethr =  2.19E-07,  avg # of iterations =  2.0

     negative rho (up, down):  4.735E-04 2.729E-02

     total cpu time spent up to now is     2129.1 secs

     total energy              =    -860.05436059 Ry
     Harris-Foulkes estimate   =    -860.05437275 Ry
     estimated scf accuracy    <       0.00041405 Ry

     total magnetization       =     2.00 Bohr mag/cell
     absolute magnetization    =     3.06 Bohr mag/cell

     iteration # 24     ecut=    70.00 Ry     beta= 0.30
     Davidson diagonalization with overlap
     ethr =  1.93E-07,  avg # of iterations =  2.0

     negative rho (up, down):  4.582E-04 2.867E-02

     total cpu time spent up to now is     2213.8 secs

     total energy              =    -860.05429908 Ry
     Harris-Foulkes estimate   =    -860.05436953 Ry
     estimated scf accuracy    <       0.00037360 Ry

     total magnetization       =     2.00 Bohr mag/cell
     absolute magnetization    =     3.07 Bohr mag/cell

     iteration # 25     ecut=    70.00 Ry     beta= 0.30
     Davidson diagonalization with overlap
     ethr =  1.75E-07,  avg # of iterations =  2.5

     negative rho (up, down):  4.807E-04 2.589E-02

     total cpu time spent up to now is     2299.5 secs

     total energy              =    -860.05428357 Ry
     Harris-Foulkes estimate   =    -860.05433632 Ry
     estimated scf accuracy    <       0.00034170 Ry

     total magnetization       =     2.00 Bohr mag/cell
     absolute magnetization    =     3.08 Bohr mag/cell

     iteration # 26     ecut=    70.00 Ry     beta= 0.30
     Davidson diagonalization with overlap
     ethr =  1.60E-07,  avg # of iterations =  2.5

     negative rho (up, down):  4.886E-04 2.263E-02

     total cpu time spent up to now is     2391.0 secs

     total energy              =    -860.05442918 Ry
     Harris-Foulkes estimate   =    -860.05434104 Ry
     estimated scf accuracy    <       0.00028491 Ry

     total magnetization       =     2.00 Bohr mag/cell
     absolute magnetization    =     3.07 Bohr mag/cell

     iteration # 27     ecut=    70.00 Ry     beta= 0.30
     Davidson diagonalization with overlap
     ethr =  1.33E-07,  avg # of iterations =  2.0

     negative rho (up, down):  4.921E-04 2.886E-02

     total cpu time spent up to now is     2477.1 secs

     total energy              =    -860.05443219 Ry
     Harris-Foulkes estimate   =    -860.05444594 Ry
     estimated scf accuracy    <       0.00029658 Ry

     total magnetization       =     2.00 Bohr mag/cell
     absolute magnetization    =     3.09 Bohr mag/cell

     iteration # 28     ecut=    70.00 Ry     beta= 0.30
     Davidson diagonalization with overlap
     ethr =  1.33E-07,  avg # of iterations =  1.0

     negative rho (up, down):  5.191E-04 4.835E-02

     total cpu time spent up to now is     2560.4 secs

     total energy              =    -860.05415348 Ry
     Harris-Foulkes estimate   =    -860.05443268 Ry
     estimated scf accuracy    <       0.00028984 Ry

     total magnetization       =     2.00 Bohr mag/cell
     absolute magnetization    =     3.09 Bohr mag/cell

     iteration # 29     ecut=    70.00 Ry     beta= 0.30
     Davidson diagonalization with overlap
     ethr =  1.33E-07,  avg # of iterations =  2.5

     negative rho (up, down):  5.251E-04 4.348E-02

     total cpu time spent up to now is     2655.0 secs

     total energy              =    -860.05428117 Ry
     Harris-Foulkes estimate   =    -860.05424326 Ry
     estimated scf accuracy    <       0.00016697 Ry

     total magnetization       =     2.00 Bohr mag/cell
     absolute magnetization    =     3.09 Bohr mag/cell

     iteration # 30     ecut=    70.00 Ry     beta= 0.30
     Davidson diagonalization with overlap
     ethr =  7.80E-08,  avg # of iterations =  2.0

     negative rho (up, down):  5.175E-04 3.521E-02

     total cpu time spent up to now is     2741.5 secs

     total energy              =    -860.05433520 Ry
     Harris-Foulkes estimate   =    -860.05429359 Ry
     estimated scf accuracy    <       0.00017612 Ry

     total magnetization       =     2.00 Bohr mag/cell
     absolute magnetization    =     3.10 Bohr mag/cell

     iteration # 31     ecut=    70.00 Ry     beta= 0.30
     Davidson diagonalization with overlap
     ethr =  7.80E-08,  avg # of iterations =  2.0

     negative rho (up, down):  5.078E-04 3.421E-02

     total cpu time spent up to now is     2830.9 secs

     total energy              =    -860.05431541 Ry
     Harris-Foulkes estimate   =    -860.05434154 Ry
     estimated scf accuracy    <       0.00019435 Ry

     total magnetization       =     2.00 Bohr mag/cell
     absolute magnetization    =     3.10 Bohr mag/cell

     iteration # 32     ecut=    70.00 Ry     beta= 0.30
     Davidson diagonalization with overlap
     ethr =  7.80E-08,  avg # of iterations =  2.0

     negative rho (up, down):  5.072E-04 3.296E-02

     total cpu time spent up to now is     2923.5 secs

     total energy              =    -860.05432067 Ry
     Harris-Foulkes estimate   =    -860.05432869 Ry
     estimated scf accuracy    <       0.00020448 Ry

     total magnetization       =     2.00 Bohr mag/cell
     absolute magnetization    =     3.10 Bohr mag/cell

     iteration # 33     ecut=    70.00 Ry     beta= 0.30
     Davidson diagonalization with overlap
     ethr =  7.80E-08,  avg # of iterations =  1.0

     negative rho (up, down):  5.099E-04 2.929E-02

     total cpu time spent up to now is     3010.4 secs

     total energy              =    -860.05435392 Ry
     Harris-Foulkes estimate   =    -860.05432109 Ry
     estimated scf accuracy    <       0.00019674 Ry

     total magnetization       =     2.00 Bohr mag/cell
     absolute magnetization    =     3.10 Bohr mag/cell

     iteration # 34     ecut=    70.00 Ry     beta= 0.30
     Davidson diagonalization with overlap
     ethr =  7.80E-08,  avg # of iterations =  2.0

     negative rho (up, down):  5.086E-04 3.388E-02

     total cpu time spent up to now is     3098.9 secs

     total energy              =    -860.05430969 Ry
     Harris-Foulkes estimate   =    -860.05435933 Ry
     estimated scf accuracy    <       0.00020072 Ry

     total magnetization       =     2.00 Bohr mag/cell
     absolute magnetization    =     3.10 Bohr mag/cell

     iteration # 35     ecut=    70.00 Ry     beta= 0.30
     Davidson diagonalization with overlap
     ethr =  7.80E-08,  avg # of iterations =  2.0

     negative rho (up, down):  5.234E-04 3.298E-02

     total cpu time spent up to now is     3189.1 secs

     total energy              =    -860.05431292 Ry
     Harris-Foulkes estimate   =    -860.05432902 Ry
     estimated scf accuracy    <       0.00021170 Ry

     total magnetization       =     2.00 Bohr mag/cell
     absolute magnetization    =     3.10 Bohr mag/cell

     iteration # 36     ecut=    70.00 Ry     beta= 0.30
     Davidson diagonalization with overlap
     ethr =  7.80E-08,  avg # of iterations =  2.0

     negative rho (up, down):  5.354E-04 3.962E-02

     total cpu time spent up to now is     3277.6 secs

     total energy              =    -860.05423861 Ry
     Harris-Foulkes estimate   =    -860.05432399 Ry
     estimated scf accuracy    <       0.00016841 Ry

     total magnetization       =     2.00 Bohr mag/cell
     absolute magnetization    =     3.10 Bohr mag/cell

     iteration # 37     ecut=    70.00 Ry     beta= 0.30
     Davidson diagonalization with overlap
     ethr =  7.80E-08,  avg # of iterations =  2.0

     negative rho (up, down):  5.503E-04 3.677E-02

     total cpu time spent up to now is     3370.0 secs

     total energy              =    -860.05428986 Ry
     Harris-Foulkes estimate   =    -860.05426573 Ry
     estimated scf accuracy    <       0.00014864 Ry

     total magnetization       =     2.00 Bohr mag/cell
     absolute magnetization    =     3.10 Bohr mag/cell

     iteration # 38     ecut=    70.00 Ry     beta= 0.30
     Davidson diagonalization with overlap
     ethr =  6.95E-08,  avg # of iterations =  2.0

     negative rho (up, down):  5.507E-04 3.164E-02

     total cpu time spent up to now is     3461.8 secs

     total energy              =    -860.05432843 Ry
     Harris-Foulkes estimate   =    -860.05431895 Ry
     estimated scf accuracy    <       0.00014625 Ry

     total magnetization       =     2.00 Bohr mag/cell
     absolute magnetization    =     3.11 Bohr mag/cell

     iteration # 39     ecut=    70.00 Ry     beta= 0.30
     Davidson diagonalization with overlap
     ethr =  6.83E-08,  avg # of iterations =  1.0

     negative rho (up, down):  5.626E-04 3.091E-02

     total cpu time spent up to now is     3544.6 secs

     total energy              =    -860.05432432 Ry
     Harris-Foulkes estimate   =    -860.05432939 Ry
     estimated scf accuracy    <       0.00014700 Ry

     total magnetization       =     2.00 Bohr mag/cell
     absolute magnetization    =     3.11 Bohr mag/cell

     iteration # 40     ecut=    70.00 Ry     beta= 0.30
     Davidson diagonalization with overlap
     ethr =  6.83E-08,  avg # of iterations =  2.0

     negative rho (up, down):  5.563E-04 2.633E-02

     total cpu time spent up to now is     3632.0 secs

     total energy              =    -860.05437866 Ry
     Harris-Foulkes estimate   =    -860.05434057 Ry
     estimated scf accuracy    <       0.00015024 Ry

     total magnetization       =     2.00 Bohr mag/cell
     absolute magnetization    =     3.11 Bohr mag/cell

     iteration # 41     ecut=    70.00 Ry     beta= 0.30
     Davidson diagonalization with overlap
     ethr =  6.83E-08,  avg # of iterations =  2.0

     negative rho (up, down):  5.440E-04 2.636E-02

     total cpu time spent up to now is     3716.2 secs

     total energy              =    -860.05438799 Ry
     Harris-Foulkes estimate   =    -860.05438365 Ry
     estimated scf accuracy    <       0.00017366 Ry

     total magnetization       =     2.00 Bohr mag/cell
     absolute magnetization    =     3.12 Bohr mag/cell

     iteration # 42     ecut=    70.00 Ry     beta= 0.30
     Davidson diagonalization with overlap
     ethr =  6.83E-08,  avg # of iterations =  1.0

     negative rho (up, down):  5.599E-04 3.513E-02

     total cpu time spent up to now is     3799.0 secs

     total energy              =    -860.05431179 Ry
     Harris-Foulkes estimate   =    -860.05439045 Ry
     estimated scf accuracy    <       0.00017644 Ry

     total magnetization       =     2.00 Bohr mag/cell
     absolute magnetization    =     3.11 Bohr mag/cell

     iteration # 43     ecut=    70.00 Ry     beta= 0.30
     Davidson diagonalization with overlap
     ethr =  6.83E-08,  avg # of iterations =  2.0

     negative rho (up, down):  5.578E-04 3.902E-02

     total cpu time spent up to now is     3894.3 secs

     total energy              =    -860.05425679 Ry
     Harris-Foulkes estimate   =    -860.05438349 Ry
     estimated scf accuracy    <       0.00018633 Ry

     total magnetization       =     2.00 Bohr mag/cell
     absolute magnetization    =     3.12 Bohr mag/cell

     iteration # 44     ecut=    70.00 Ry     beta= 0.30
     Davidson diagonalization with overlap
     ethr =  6.83E-08,  avg # of iterations =  2.0

     negative rho (up, down):  5.771E-04 4.616E-02

     total cpu time spent up to now is     3985.7 secs

     total energy              =    -860.05414387 Ry
     Harris-Foulkes estimate   =    -860.05428493 Ry
     estimated scf accuracy    <       0.00013317 Ry

     total magnetization       =     2.00 Bohr mag/cell
     absolute magnetization    =     3.11 Bohr mag/cell

     iteration # 45     ecut=    70.00 Ry     beta= 0.30
     Davidson diagonalization with overlap
     ethr =  6.22E-08,  avg # of iterations =  2.0

     negative rho (up, down):  5.746E-04 4.513E-02

     total cpu time spent up to now is     4082.6 secs

     total energy              =    -860.05417527 Ry
     Harris-Foulkes estimate   =    -860.05422188 Ry
     estimated scf accuracy    <       0.00006322 Ry

     total magnetization       =     2.00 Bohr mag/cell
     absolute magnetization    =     3.12 Bohr mag/cell

     iteration # 46     ecut=    70.00 Ry     beta= 0.30
     Davidson diagonalization with overlap
     ethr =  2.95E-08,  avg # of iterations =  2.0

     negative rho (up, down):  5.700E-04 3.887E-02

     total cpu time spent up to now is     4176.1 secs

     total energy              =    -860.05419434 Ry
     Harris-Foulkes estimate   =    -860.05419819 Ry
     estimated scf accuracy    <       0.00003745 Ry

     total magnetization       =     2.00 Bohr mag/cell
     absolute magnetization    =     3.12 Bohr mag/cell

     iteration # 47     ecut=    70.00 Ry     beta= 0.30
     Davidson diagonalization with overlap
     ethr =  1.75E-08,  avg # of iterations =  2.0

     negative rho (up, down):  5.595E-04 2.844E-02

     total cpu time spent up to now is     4268.6 secs

     total energy              =    -860.05422418 Ry
     Harris-Foulkes estimate   =    -860.05420305 Ry
     estimated scf accuracy    <       0.00002824 Ry

     total magnetization       =     2.00 Bohr mag/cell
     absolute magnetization    =     3.13 Bohr mag/cell

     iteration # 48     ecut=    70.00 Ry     beta= 0.30
     Davidson diagonalization with overlap
     ethr =  1.32E-08,  avg # of iterations =  2.0

     negative rho (up, down):  5.652E-04 2.352E-02

     total cpu time spent up to now is     4353.5 secs

     total energy              =    -860.05421811 Ry
     Harris-Foulkes estimate   =    -860.05422604 Ry
     estimated scf accuracy    <       0.00003118 Ry

     total magnetization       =     2.00 Bohr mag/cell
     absolute magnetization    =     3.14 Bohr mag/cell

     iteration # 49     ecut=    70.00 Ry     beta= 0.30
     Davidson diagonalization with overlap
     ethr =  1.32E-08,  avg # of iterations =  2.0

     negative rho (up, down):  5.684E-04 2.567E-02

     total cpu time spent up to now is     4437.4 secs

     total energy              =    -860.05419862 Ry
     Harris-Foulkes estimate   =    -860.05421947 Ry
     estimated scf accuracy    <       0.00002713 Ry

     total magnetization       =     2.00 Bohr mag/cell
     absolute magnetization    =     3.13 Bohr mag/cell

     iteration # 50     ecut=    70.00 Ry     beta= 0.30
     Davidson diagonalization with overlap
     ethr =  1.27E-08,  avg # of iterations =  2.5

     negative rho (up, down):  5.662E-04 1.993E-02

     total cpu time spent up to now is     4532.4 secs

     total energy              =    -860.05421809 Ry
     Harris-Foulkes estimate   =    -860.05421120 Ry
     estimated scf accuracy    <       0.00002402 Ry

     total magnetization       =     2.00 Bohr mag/cell
     absolute magnetization    =     3.14 Bohr mag/cell

     iteration # 51     ecut=    70.00 Ry     beta= 0.30
     Davidson diagonalization with overlap
     ethr =  1.12E-08,  avg # of iterations =  2.0

     negative rho (up, down):  5.650E-04 1.680E-02

     total cpu time spent up to now is     4616.6 secs

     total energy              =    -860.05421696 Ry
     Harris-Foulkes estimate   =    -860.05421889 Ry
     estimated scf accuracy    <       0.00002383 Ry

     total magnetization       =     2.00 Bohr mag/cell
     absolute magnetization    =     3.14 Bohr mag/cell

     iteration # 52     ecut=    70.00 Ry     beta= 0.30
     Davidson diagonalization with overlap
     ethr =  1.11E-08,  avg # of iterations =  2.0

     negative rho (up, down):  5.656E-04 1.516E-02

     total cpu time spent up to now is     4701.6 secs

     total energy              =    -860.05421633 Ry
     Harris-Foulkes estimate   =    -860.05421807 Ry
     estimated scf accuracy    <       0.00002345 Ry

     total magnetization       =     2.00 Bohr mag/cell
     absolute magnetization    =     3.14 Bohr mag/cell

     iteration # 53     ecut=    70.00 Ry     beta= 0.30
     Davidson diagonalization with overlap
     ethr =  1.10E-08,  avg # of iterations =  1.0

     negative rho (up, down):  5.534E-04 1.533E-02

     total cpu time spent up to now is     4784.3 secs

     total energy              =    -860.05421624 Ry
     Harris-Foulkes estimate   =    -860.05421657 Ry
     estimated scf accuracy    <       0.00002103 Ry

     total magnetization       =     2.00 Bohr mag/cell
     absolute magnetization    =     3.13 Bohr mag/cell

     iteration # 54     ecut=    70.00 Ry     beta= 0.30
     Davidson diagonalization with overlap
     ethr =  9.83E-09,  avg # of iterations =  2.0

     negative rho (up, down):  5.477E-04 1.471E-02

     total cpu time spent up to now is     4877.9 secs

     total energy              =    -860.05422706 Ry
     Harris-Foulkes estimate   =    -860.05422219 Ry
     estimated scf accuracy    <       0.00002098 Ry

     total magnetization       =     2.00 Bohr mag/cell
     absolute magnetization    =     3.14 Bohr mag/cell

     iteration # 55     ecut=    70.00 Ry     beta= 0.30
     Davidson diagonalization with overlap
     ethr =  9.80E-09,  avg # of iterations =  2.0

     negative rho (up, down):  5.466E-04 1.219E-02

     total cpu time spent up to now is     4968.1 secs

     total energy              =    -860.05422829 Ry
     Harris-Foulkes estimate   =    -860.05423034 Ry
     estimated scf accuracy    <       0.00002093 Ry

     total magnetization       =     2.00 Bohr mag/cell
     absolute magnetization    =     3.14 Bohr mag/cell

     iteration # 56     ecut=    70.00 Ry     beta= 0.30
     Davidson diagonalization with overlap
     ethr =  9.78E-09,  avg # of iterations =  2.0

     negative rho (up, down):  5.438E-04 1.265E-02

     total cpu time spent up to now is     5052.6 secs

     total energy              =    -860.05421568 Ry
     Harris-Foulkes estimate   =    -860.05422896 Ry
     estimated scf accuracy    <       0.00001865 Ry

     total magnetization       =     2.00 Bohr mag/cell
     absolute magnetization    =     3.14 Bohr mag/cell

     iteration # 57     ecut=    70.00 Ry     beta= 0.30
     Davidson diagonalization with overlap
     ethr =  8.71E-09,  avg # of iterations =  2.0

     negative rho (up, down):  5.378E-04 1.212E-02

     total cpu time spent up to now is     5146.8 secs

     total energy              =    -860.05422537 Ry
     Harris-Foulkes estimate   =    -860.05422322 Ry
     estimated scf accuracy    <       0.00001831 Ry

     total magnetization       =     2.00 Bohr mag/cell
     absolute magnetization    =     3.14 Bohr mag/cell

     iteration # 58     ecut=    70.00 Ry     beta= 0.30
     Davidson diagonalization with overlap
     ethr =  8.56E-09,  avg # of iterations =  2.0

     negative rho (up, down):  5.290E-04 1.091E-02

     total cpu time spent up to now is     5233.2 secs

     total energy              =    -860.05423040 Ry
     Harris-Foulkes estimate   =    -860.05422726 Ry
     estimated scf accuracy    <       0.00001239 Ry

     total magnetization       =     2.00 Bohr mag/cell
     absolute magnetization    =     3.15 Bohr mag/cell

     iteration # 59     ecut=    70.00 Ry     beta= 0.30
     Davidson diagonalization with overlap
     ethr =  5.79E-09,  avg # of iterations =  2.5

     negative rho (up, down):  5.338E-04 1.081E-02

     total cpu time spent up to now is     5320.8 secs

     total energy              =    -860.05423289 Ry
     Harris-Foulkes estimate   =    -860.05423222 Ry
     estimated scf accuracy    <       0.00001394 Ry

     total magnetization       =     2.00 Bohr mag/cell
     absolute magnetization    =     3.17 Bohr mag/cell

     iteration # 60     ecut=    70.00 Ry     beta= 0.30
     Davidson diagonalization with overlap
     ethr =  5.79E-09,  avg # of iterations =  2.0

     negative rho (up, down):  5.297E-04 1.187E-02

     total cpu time spent up to now is     5411.1 secs

     total energy              =    -860.05422575 Ry
     Harris-Foulkes estimate   =    -860.05423455 Ry
     estimated scf accuracy    <       0.00001578 Ry

     total magnetization       =     2.00 Bohr mag/cell
     absolute magnetization    =     3.17 Bohr mag/cell

     iteration # 61     ecut=    70.00 Ry     beta= 0.30
     Davidson diagonalization with overlap
     ethr =  5.79E-09,  avg # of iterations =  2.0

     negative rho (up, down):  5.306E-04 1.159E-02

     total cpu time spent up to now is     5505.4 secs

     total energy              =    -860.05423293 Ry
     Harris-Foulkes estimate   =    -860.05423219 Ry
     estimated scf accuracy    <       0.00001236 Ry

     total magnetization       =     2.00 Bohr mag/cell
     absolute magnetization    =     3.17 Bohr mag/cell

     iteration # 62     ecut=    70.00 Ry     beta= 0.30
     Davidson diagonalization with overlap
     ethr =  5.78E-09,  avg # of iterations =  2.0

     negative rho (up, down):  5.339E-04 1.106E-02

     total cpu time spent up to now is     5589.2 secs

     total energy              =    -860.05422978 Ry
     Harris-Foulkes estimate   =    -860.05423312 Ry
     estimated scf accuracy    <       0.00001284 Ry

     total magnetization       =     2.00 Bohr mag/cell
     absolute magnetization    =     3.17 Bohr mag/cell

     iteration # 63     ecut=    70.00 Ry     beta= 0.30
     Davidson diagonalization with overlap
     ethr =  5.78E-09,  avg # of iterations =  2.0

     negative rho (up, down):  5.271E-04 1.001E-02

     total cpu time spent up to now is     5676.3 secs

     total energy              =    -860.05423326 Ry
     Harris-Foulkes estimate   =    -860.05423129 Ry
     estimated scf accuracy    <       0.00001421 Ry

     total magnetization       =     2.00 Bohr mag/cell
     absolute magnetization    =     3.16 Bohr mag/cell

     iteration # 64     ecut=    70.00 Ry     beta= 0.30
     Davidson diagonalization with overlap
     ethr =  5.78E-09,  avg # of iterations =  3.0

     negative rho (up, down):  5.320E-04 1.107E-02

     total cpu time spent up to now is     5770.9 secs

     total energy              =    -860.05423470 Ry
     Harris-Foulkes estimate   =    -860.05423598 Ry
     estimated scf accuracy    <       0.00001504 Ry

     total magnetization       =     2.00 Bohr mag/cell
     absolute magnetization    =     3.18 Bohr mag/cell

     iteration # 65     ecut=    70.00 Ry     beta= 0.30
     Davidson diagonalization with overlap
     ethr =  5.78E-09,  avg # of iterations =  2.0

     negative rho (up, down):  5.390E-04 1.308E-02

     total cpu time spent up to now is     5854.1 secs

     total energy              =    -860.05422792 Ry
     Harris-Foulkes estimate   =    -860.05423522 Ry
     estimated scf accuracy    <       0.00001456 Ry

     total magnetization       =     2.00 Bohr mag/cell
     absolute magnetization    =     3.17 Bohr mag/cell

     iteration # 66     ecut=    70.00 Ry     beta= 0.30
     Davidson diagonalization with overlap
     ethr =  5.78E-09,  avg # of iterations =  2.5

     negative rho (up, down):  5.370E-04 1.165E-02

     total cpu time spent up to now is     5949.6 secs

     total energy              =    -860.05423380 Ry
     Harris-Foulkes estimate   =    -860.05423124 Ry
     estimated scf accuracy    <       0.00001434 Ry

     total magnetization       =     2.00 Bohr mag/cell
     absolute magnetization    =     3.16 Bohr mag/cell

     iteration # 67     ecut=    70.00 Ry     beta= 0.30
     Davidson diagonalization with overlap
     ethr =  5.78E-09,  avg # of iterations =  2.0

     negative rho (up, down):  5.370E-04 1.033E-02

     total cpu time spent up to now is     6044.7 secs

     total energy              =    -860.05423715 Ry
     Harris-Foulkes estimate   =    -860.05423900 Ry
     estimated scf accuracy    <       0.00001654 Ry

     total magnetization       =     2.00 Bohr mag/cell
     absolute magnetization    =     3.17 Bohr mag/cell

     iteration # 68     ecut=    70.00 Ry     beta= 0.30
     Davidson diagonalization with overlap
     ethr =  5.78E-09,  avg # of iterations =  2.0

     negative rho (up, down):  5.324E-04 1.372E-02

     total cpu time spent up to now is     6131.6 secs

     total energy              =    -860.05423062 Ry
     Harris-Foulkes estimate   =    -860.05423863 Ry
     estimated scf accuracy    <       0.00001812 Ry

     total magnetization       =     2.00 Bohr mag/cell
     absolute magnetization    =     3.16 Bohr mag/cell

     iteration # 69     ecut=    70.00 Ry     beta= 0.30
     Davidson diagonalization with overlap
     ethr =  5.78E-09,  avg # of iterations =  3.0

     negative rho (up, down):  5.277E-04 1.596E-02

     total cpu time spent up to now is     6230.5 secs

     total energy              =    -860.05421856 Ry
     Harris-Foulkes estimate   =    -860.05423691 Ry
     estimated scf accuracy    <       0.00001710 Ry

     total magnetization       =     2.00 Bohr mag/cell
     absolute magnetization    =     3.19 Bohr mag/cell

     iteration # 70     ecut=    70.00 Ry     beta= 0.30
     Davidson diagonalization with overlap
     ethr =  5.78E-09,  avg # of iterations =  3.0

     negative rho (up, down):  5.299E-04 1.321E-02

     total cpu time spent up to now is     6329.6 secs

     total energy              =    -860.05423163 Ry
     Harris-Foulkes estimate   =    -860.05422620 Ry
     estimated scf accuracy    <       0.00000854 Ry

     total magnetization       =     2.00 Bohr mag/cell
     absolute magnetization    =     3.20 Bohr mag/cell

     iteration # 71     ecut=    70.00 Ry     beta= 0.30
     Davidson diagonalization with overlap
     ethr =  3.99E-09,  avg # of iterations =  2.0

     negative rho (up, down):  5.273E-04 1.193E-02

     total cpu time spent up to now is     6420.0 secs

     total energy              =    -860.05423083 Ry
     Harris-Foulkes estimate   =    -860.05423291 Ry
     estimated scf accuracy    <       0.00001088 Ry

     total magnetization       =     2.00 Bohr mag/cell
     absolute magnetization    =     3.20 Bohr mag/cell

     iteration # 72     ecut=    70.00 Ry     beta= 0.30
     Davidson diagonalization with overlap
     ethr =  3.99E-09,  avg # of iterations =  2.0

     negative rho (up, down):  5.233E-04 1.288E-02

     total cpu time spent up to now is     6506.0 secs

     total energy              =    -860.05422047 Ry
     Harris-Foulkes estimate   =    -860.05423129 Ry
     estimated scf accuracy    <       0.00000882 Ry

     total magnetization       =     2.00 Bohr mag/cell
     absolute magnetization    =     3.20 Bohr mag/cell

     iteration # 73     ecut=    70.00 Ry     beta= 0.30
     Davidson diagonalization with overlap
     ethr =  3.99E-09,  avg # of iterations =  2.0

     negative rho (up, down):  5.286E-04 1.294E-02

     total cpu time spent up to now is     6600.6 secs

     total energy              =    -860.05422220 Ry
     Harris-Foulkes estimate   =    -860.05422453 Ry
     estimated scf accuracy    <       0.00000377 Ry

     total magnetization       =     2.00 Bohr mag/cell
     absolute magnetization    =     3.20 Bohr mag/cell

     iteration # 74     ecut=    70.00 Ry     beta= 0.30
     Davidson diagonalization with overlap
     ethr =  1.76E-09,  avg # of iterations =  3.0

     negative rho (up, down):  5.325E-04 1.095E-02

     total cpu time spent up to now is     6700.2 secs

     total energy              =    -860.05422753 Ry
     Harris-Foulkes estimate   =    -860.05422553 Ry
     estimated scf accuracy    <       0.00000159 Ry

     total magnetization       =     2.00 Bohr mag/cell
     absolute magnetization    =     3.19 Bohr mag/cell

     iteration # 75     ecut=    70.00 Ry     beta= 0.30
     Davidson diagonalization with overlap
     ethr =  7.41E-10,  avg # of iterations =  2.0

     negative rho (up, down):  5.336E-04 9.584E-03

     total cpu time spent up to now is     6791.1 secs

     total energy              =    -860.05422861 Ry
     Harris-Foulkes estimate   =    -860.05422779 Ry
     estimated scf accuracy    <       0.00000114 Ry

     total magnetization       =     2.00 Bohr mag/cell
     absolute magnetization    =     3.19 Bohr mag/cell

     iteration # 76     ecut=    70.00 Ry     beta= 0.30
     Davidson diagonalization with overlap
     ethr =  5.31E-10,  avg # of iterations =  2.0

     negative rho (up, down):  5.336E-04 8.614E-03

     total cpu time spent up to now is     6875.9 secs

     total energy              =    -860.05422894 Ry
     Harris-Foulkes estimate   =    -860.05422867 Ry
     estimated scf accuracy    <       0.00000116 Ry

     total magnetization       =     2.00 Bohr mag/cell
     absolute magnetization    =     3.20 Bohr mag/cell

     iteration # 77     ecut=    70.00 Ry     beta= 0.30
     Davidson diagonalization with overlap
     ethr =  5.31E-10,  avg # of iterations =  2.0

     negative rho (up, down):  5.343E-04 7.966E-03

     total cpu time spent up to now is     6961.4 secs

     total energy              =    -860.05422948 Ry
     Harris-Foulkes estimate   =    -860.05422902 Ry
     estimated scf accuracy    <       0.00000112 Ry

     total magnetization       =     2.00 Bohr mag/cell
     absolute magnetization    =     3.19 Bohr mag/cell

     iteration # 78     ecut=    70.00 Ry     beta= 0.30
     Davidson diagonalization with overlap
     ethr =  5.25E-10,  avg # of iterations =  2.0

     negative rho (up, down):  5.341E-04 8.240E-03

     total cpu time spent up to now is     7049.7 secs

     total energy              =    -860.05422898 Ry
     Harris-Foulkes estimate   =    -860.05422960 Ry
     estimated scf accuracy    <       0.00000132 Ry

     total magnetization       =     2.00 Bohr mag/cell
     absolute magnetization    =     3.20 Bohr mag/cell

     iteration # 79     ecut=    70.00 Ry     beta= 0.30
     Davidson diagonalization with overlap
     ethr =  5.25E-10,  avg # of iterations =  2.0

     negative rho (up, down):  5.340E-04 8.003E-03

     total cpu time spent up to now is     7146.4 secs

     total energy              =    -860.05422934 Ry
     Harris-Foulkes estimate   =    -860.05422930 Ry
     estimated scf accuracy    <       0.00000119 Ry

     total magnetization       =     2.00 Bohr mag/cell
     absolute magnetization    =     3.19 Bohr mag/cell

     iteration # 80     ecut=    70.00 Ry     beta= 0.30
     Davidson diagonalization with overlap
     ethr =  5.25E-10,  avg # of iterations =  1.0

     negative rho (up, down):  5.356E-04 8.200E-03

     total cpu time spent up to now is     7233.3 secs

     total energy              =    -860.05422860 Ry
     Harris-Foulkes estimate   =    -860.05422934 Ry
     estimated scf accuracy    <       0.00000119 Ry

     total magnetization       =     2.00 Bohr mag/cell
     absolute magnetization    =     3.19 Bohr mag/cell

     iteration # 81     ecut=    70.00 Ry     beta= 0.30
     Davidson diagonalization with overlap
     ethr =  5.25E-10,  avg # of iterations =  2.0

     negative rho (up, down):  5.350E-04 7.965E-03

     total cpu time spent up to now is     7333.3 secs

     total energy              =    -860.05422921 Ry
     Harris-Foulkes estimate   =    -860.05422914 Ry
     estimated scf accuracy    <       0.00000141 Ry

     total magnetization       =     2.00 Bohr mag/cell
     absolute magnetization    =     3.20 Bohr mag/cell

     iteration # 82     ecut=    70.00 Ry     beta= 0.30
     Davidson diagonalization with overlap
     ethr =  5.25E-10,  avg # of iterations =  3.0

     negative rho (up, down):  5.356E-04 7.805E-03

     total cpu time spent up to now is     7425.1 secs

     total energy              =    -860.05422961 Ry
     Harris-Foulkes estimate   =    -860.05422940 Ry
     estimated scf accuracy    <       0.00000116 Ry

     total magnetization       =     2.00 Bohr mag/cell
     absolute magnetization    =     3.20 Bohr mag/cell

     iteration # 83     ecut=    70.00 Ry     beta= 0.30
     Davidson diagonalization with overlap
     ethr =  5.25E-10,  avg # of iterations =  1.0

     negative rho (up, down):  5.353E-04 7.939E-03

     total cpu time spent up to now is     7512.3 secs

     total energy              =    -860.05422940 Ry
     Harris-Foulkes estimate   =    -860.05422963 Ry
     estimated scf accuracy    <       0.00000125 Ry

     total magnetization       =     2.00 Bohr mag/cell
     absolute magnetization    =     3.20 Bohr mag/cell

     iteration # 84     ecut=    70.00 Ry     beta= 0.30
     Davidson diagonalization with overlap
     ethr =  5.25E-10,  avg # of iterations =  2.0

     negative rho (up, down):  5.355E-04 7.932E-03

     total cpu time spent up to now is     7603.5 secs

     total energy              =    -860.05422960 Ry
     Harris-Foulkes estimate   =    -860.05422950 Ry
     estimated scf accuracy    <       0.00000123 Ry

     total magnetization       =     2.00 Bohr mag/cell
     absolute magnetization    =     3.20 Bohr mag/cell

     iteration # 85     ecut=    70.00 Ry     beta= 0.30
     Davidson diagonalization with overlap
     ethr =  5.25E-10,  avg # of iterations =  1.5

     negative rho (up, down):  5.340E-04 8.065E-03

     total cpu time spent up to now is     7690.6 secs

     total energy              =    -860.05422870 Ry
     Harris-Foulkes estimate   =    -860.05422961 Ry
     estimated scf accuracy    <       0.00000127 Ry

     total magnetization       =     2.00 Bohr mag/cell
     absolute magnetization    =     3.20 Bohr mag/cell

     iteration # 86     ecut=    70.00 Ry     beta= 0.30
     Davidson diagonalization with overlap
     ethr =  5.25E-10,  avg # of iterations =  2.0

     negative rho (up, down):  5.380E-04 7.574E-03

     Magnetic moment per site:
     atom:    1    charge:    0.2107    magn:   -0.0000    constr:    0.0000
     atom:    2    charge:    0.2119    magn:   -0.0000    constr:    0.0000
     atom:    3    charge:    1.7171    magn:   -0.0128    constr:    0.0000
     atom:    4    charge:    1.7153    magn:    0.0180    constr:    0.0000
     atom:    5    charge:    1.7177    magn:   -0.0088    constr:    0.0000
     atom:    6    charge:    1.7142    magn:    0.0059    constr:    0.0000
     atom:    7    charge:    1.7177    magn:   -0.0088    constr:    0.0000
     atom:    8    charge:    1.7153    magn:    0.0180    constr:    0.0000
     atom:    9    charge:    1.7171    magn:   -0.0129    constr:    0.0000
     atom:   10    charge:    1.7149    magn:    0.0589    constr:    0.0000
     atom:   11    charge:    1.7176    magn:   -0.0173    constr:    0.0000
     atom:   12    charge:    1.7149    magn:    0.0588    constr:    0.0000
     atom:   13    charge:    1.7176    magn:   -0.0173    constr:    0.0000
     atom:   14    charge:    1.7155    magn:    0.0460    constr:    0.0000
     atom:   15    charge:    1.7140    magn:   -0.0137    constr:    0.0000
     atom:   16    charge:    1.7106    magn:    0.0556    constr:    0.0000
     atom:   17    charge:    1.7228    magn:   -0.0124    constr:    0.0000
     atom:   18    charge:    1.7106    magn:    0.0556    constr:    0.0000
     atom:   19    charge:    1.7140    magn:   -0.0137    constr:    0.0000
     atom:   20    charge:    1.7155    magn:    0.0460    constr:    0.0000
     atom:   21    charge:    1.7176    magn:   -0.0173    constr:    0.0000
     atom:   22    charge:    1.7149    magn:    0.0589    constr:    0.0000
     atom:   23    charge:    1.7171    magn:   -0.0129    constr:    0.0000
     atom:   24    charge:    1.7153    magn:    0.0180    constr:    0.0000
     atom:   25    charge:    1.7140    magn:   -0.0137    constr:    0.0000
     atom:   26    charge:    1.7106    magn:    0.0556    constr:    0.0000
     atom:   27    charge:    1.8519    magn:   -0.0195    constr:    0.0000
     atom:   28    charge:   11.1425    magn:    0.4523    constr:    0.0000
     atom:   29    charge:    1.8518    magn:   -0.0194    constr:    0.0000
     atom:   30    charge:    1.7106    magn:    0.0556    constr:    0.0000
     atom:   31    charge:    1.7140    magn:   -0.0137    constr:    0.0000
     atom:   32    charge:    1.7153    magn:    0.0180    constr:    0.0000
     atom:   33    charge:    1.7177    magn:   -0.0088    constr:    0.0000
     atom:   34    charge:    1.7139    magn:    0.0128    constr:    0.0000
     atom:   35    charge:    1.7177    magn:   -0.0088    constr:    0.0000
     atom:   36    charge:    1.7142    magn:    0.0059    constr:    0.0000
     atom:   37    charge:    1.7229    magn:   -0.0124    constr:    0.0000
     atom:   38    charge:    1.7106    magn:    0.0556    constr:    0.0000
     atom:   39    charge:    1.8519    magn:   -0.0195    constr:    0.0000
     atom:   40    charge:    1.7106    magn:    0.0556    constr:    0.0000
     atom:   41    charge:    1.7228    magn:   -0.0124    constr:    0.0000
     atom:   42    charge:    1.7142    magn:    0.0059    constr:    0.0000
     atom:   43    charge:    1.7177    magn:   -0.0088    constr:    0.0000
     atom:   44    charge:    1.7139    magn:    0.0128    constr:    0.0000
     atom:   45    charge:    1.7236    magn:   -0.0056    constr:    0.0000
     atom:   46    charge:    1.7139    magn:    0.0128    constr:    0.0000
     atom:   47    charge:    1.7177    magn:   -0.0088    constr:    0.0000
     atom:   48    charge:    1.7153    magn:    0.0180    constr:    0.0000
     atom:   49    charge:    1.7140    magn:   -0.0137    constr:    0.0000
     atom:   50    charge:    1.7155    magn:    0.0460    constr:    0.0000
     atom:   51    charge:    1.7140    magn:   -0.0137    constr:    0.0000
     atom:   52    charge:    1.7153    magn:    0.0180    constr:    0.0000

     total cpu time spent up to now is     7783.9 secs

     End of self-consistent calculation

 ------ SPIN UP ------------


          k = 0.0000 0.0000 0.0000 ( 87777 PWs)   bands (ev):

   -88.6944 -55.5827 -55.5822 -53.8675 -19.8879 -19.0531 -19.0528 -18.9666
   -18.9284 -18.9281 -18.5845 -17.1780 -17.1778 -17.1777 -17.1061 -17.1061
   -16.8006 -16.3315 -16.3315 -16.2298 -16.1779 -16.1779 -15.4864 -14.2336
   -14.2334 -14.1482 -14.1013 -14.1012 -13.4320 -13.1653 -13.1653 -13.1407
   -12.8607 -12.8607 -12.4519 -11.9440 -11.9439 -11.7558 -11.5085 -11.5084
   -10.6271  -9.7938  -9.7938  -9.5310  -9.4219  -9.4218  -9.3390  -9.3079
    -9.3078  -9.2950  -8.8289  -8.8288  -8.2858  -8.2857  -8.1970  -8.0352
    -7.9375  -7.5481  -7.5480  -7.3412  -7.2243  -7.2240  -7.0806  -7.0804
    -6.9466  -6.9233  -6.9231  -6.8127  -6.6700  -6.6698  -6.6396  -6.6270
    -6.6270  -6.5852  -6.5800  -6.2780  -5.7362  -5.7361  -5.6705  -5.6698
    -5.4816  -5.4816  -5.2761  -5.0925  -4.9824  -4.8452  -4.8186  -4.8184
    -4.5345  -4.5345  -4.5038  -4.3366  -4.3365  -3.9817  -3.9815  -3.8941
    -3.7860  -3.7860  -3.2095  -2.8965  -2.8964  -1.9778  -1.9079  -1.9077
    -1.3017  -1.3006  -1.0634  -0.8886   0.8199   0.8672   0.8675   1.3957
     1.3960   1.5058   2.3850   2.3858   2.5215   2.6622   2.6625   2.7621
     3.2961   3.2966   3.4170   3.6518   3.6801   3.7224   3.7462   3.8859

     occupation numbers 
     1.0000   1.0000   1.0000   1.0000   1.0000   1.0000   1.0000   1.0000
     1.0000   1.0000   1.0000   1.0000   1.0000   1.0000   1.0000   1.0000
     1.0000   1.0000   1.0000   1.0000   1.0000   1.0000   1.0000   1.0000
     1.0000   1.0000   1.0000   1.0000   1.0000   1.0000   1.0000   1.0000
     1.0000   1.0000   1.0000   1.0000   1.0000   1.0000   1.0000   1.0000
     1.0000   1.0000   1.0000   1.0000   1.0000   1.0000   1.0000   1.0000
     1.0000   1.0000   1.0000   1.0000   1.0000   1.0000   1.0000   1.0000
     1.0000   1.0000   1.0000   1.0000   1.0000   1.0000   1.0000   1.0000
     1.0000   1.0000   1.0000   1.0000   1.0000   1.0000   1.0000   1.0000
     1.0000   1.0000   1.0000   1.0000   1.0000   1.0000   1.0000   1.0000
     1.0000   1.0000   1.0000   1.0000   1.0000   1.0000   1.0000   1.0000
     1.0000   1.0000   1.0000   1.0000   1.0000   1.0000   1.0000   1.0000
     1.0000   1.0000   1.0000   1.0000   1.0000   1.0000   1.0000   1.0000
     1.0000   1.0000   1.0000   1.0001   0.0000   0.0000   0.0000   0.0000
     0.0000   0.0000   0.0000   0.0000   0.0000   0.0000   0.0000   0.0000
     0.0000   0.0000   0.0000   0.0000   0.0000   0.0000   0.0000   0.0000

 ------ SPIN DOWN ----------


          k = 0.0000 0.0000 0.0000 ( 87777 PWs)   bands (ev):

   -87.9738 -54.9951 -54.9944 -52.9739 -19.8457 -19.0064 -19.0061 -18.9268
   -18.9019 -18.9016 -18.5256 -17.1499 -17.1413 -17.1412 -17.0522 -17.0521
   -16.7704 -16.2857 -16.2857 -16.1959 -16.1344 -16.1344 -15.4616 -14.1625
   -14.1623 -14.0908 -14.0907 -14.0855 -13.4396 -13.1401 -13.1401 -13.1082
   -12.8413 -12.8413 -12.4208 -11.9063 -11.9062 -11.7328 -11.4862 -11.4861
   -10.6041  -9.7450  -9.7449  -9.4989  -9.3896  -9.3895  -9.3216  -9.2841
    -9.2841  -9.2769  -8.8160  -8.8159  -8.2498  -8.2498  -8.1772  -7.9380
    -7.9200  -7.5332  -7.5331  -7.3089  -7.0601  -7.0601  -7.0343  -7.0343
    -6.8642  -6.8639  -6.8473  -6.7970  -6.6532  -6.6530  -6.6287  -6.6130
    -6.6130  -6.5619  -6.4514  -6.2762  -5.6906  -5.6904  -5.4393  -5.4393
    -5.4366  -5.4364  -5.1962  -5.0784  -4.9723  -4.7702  -4.7269  -4.7265
    -4.4511  -4.4508  -4.4309  -4.2107  -4.2106  -3.8474  -3.8470  -3.7987
    -3.7710  -3.7709  -3.1665  -2.6664  -2.6661  -1.8801  -1.8799  -1.8169
    -0.9076  -0.8521  -0.7923  -0.7922   0.9147   0.9150   0.9765   1.5515
     1.5516   1.6281   2.5321   2.5325   2.5362   2.8028   2.8032   2.8350
     3.4534   3.4548   3.5071   3.6692   3.6956   3.7320   3.7345   3.7525

     occupation numbers 
     1.0000   1.0000   1.0000   1.0000   1.0000   1.0000   1.0000   1.0000
     1.0000   1.0000   1.0000   1.0000   1.0000   1.0000   1.0000   1.0000
     1.0000   1.0000   1.0000   1.0000   1.0000   1.0000   1.0000   1.0000
     1.0000   1.0000   1.0000   1.0000   1.0000   1.0000   1.0000   1.0000
     1.0000   1.0000   1.0000   1.0000   1.0000   1.0000   1.0000   1.0000
     1.0000   1.0000   1.0000   1.0000   1.0000   1.0000   1.0000   1.0000
     1.0000   1.0000   1.0000   1.0000   1.0000   1.0000   1.0000   1.0000
     1.0000   1.0000   1.0000   1.0000   1.0000   1.0000   1.0000   1.0000
     1.0000   1.0000   1.0000   1.0000   1.0000   1.0000   1.0000   1.0000
     1.0000   1.0000   1.0000   1.0000   1.0000   1.0000   1.0000   1.0000
     1.0000   1.0000   1.0000   1.0000   1.0000   1.0000   1.0000   1.0000
     1.0000   1.0000   1.0000   1.0000   1.0000   1.0000   1.0000   1.0000
     1.0000   1.0000   1.0000   1.0000   1.0000   1.0000   1.0000   1.0000
     1.0000   0.9999   0.0000   0.0000   0.0000   0.0000   0.0000   0.0000
     0.0000   0.0000   0.0000   0.0000   0.0000   0.0000   0.0000   0.0000
     0.0000   0.0000   0.0000   0.0000   0.0000   0.0000   0.0000   0.0000

     the Fermi energy is    -0.8396 ev

!    total energy              =    -860.05422997 Ry
     Harris-Foulkes estimate   =    -860.05422884 Ry
     estimated scf accuracy    <       0.00000093 Ry

     The total energy is the sum of the following terms:

     one-electron contribution =   -2780.29030534 Ry
     hartree contribution      =    1433.93211459 Ry
     xc contribution           =    -259.29933501 Ry
     ewald contribution        =     745.60321404 Ry
     smearing contrib. (-TS)   =       0.00008175 Ry

     total magnetization       =     2.00 Bohr mag/cell
     absolute magnetization    =     3.20 Bohr mag/cell

     convergence has been achieved in  86 iterations

     Writing output data file distance-4.0.save/

     init_run     :     67.69s CPU     68.98s WALL (       1 calls)
     electrons    :   7559.60s CPU   7713.96s WALL (       1 calls)

     Called by init_run:
     wfcinit      :     37.62s CPU     37.89s WALL (       1 calls)
     wfcinit:atom :      0.05s CPU      0.07s WALL (       2 calls)
     wfcinit:wfcr :     37.21s CPU     37.40s WALL (       2 calls)
     potinit      :     12.66s CPU     13.09s WALL (       1 calls)
     hinit0       :      9.72s CPU      9.76s WALL (       1 calls)

     Called by electrons:
     c_bands      :   4629.93s CPU   4655.72s WALL (      86 calls)
     sum_band     :   1676.56s CPU   1726.35s WALL (      86 calls)
     v_of_rho     :    607.13s CPU    640.98s WALL (      87 calls)
     v_h          :      6.13s CPU      6.28s WALL (      87 calls)
     v_xc         :    601.00s CPU    634.69s WALL (      87 calls)
     newd         :    610.02s CPU    654.81s WALL (      87 calls)
     mix_rho      :     30.61s CPU     31.14s WALL (      86 calls)

     Called by c_bands:
     init_us_2    :     15.30s CPU     15.36s WALL (     346 calls)
     cegterg      :   4588.99s CPU   4614.60s WALL (     172 calls)

     Called by sum_band:
     sum_band:bec :      0.14s CPU      0.14s WALL (     172 calls)
     addusdens    :   1064.96s CPU   1111.04s WALL (      86 calls)

     Called by *egterg:
     h_psi        :   2387.01s CPU   2404.43s WALL (     584 calls)
     s_psi        :    765.33s CPU    765.74s WALL (     584 calls)
     g_psi        :      2.89s CPU      2.91s WALL (     410 calls)
     cdiaghg      :     36.03s CPU     36.05s WALL (     582 calls)
     cegterg:over :    591.60s CPU    591.92s WALL (     410 calls)
     cegterg:upda :    325.08s CPU    327.04s WALL (     410 calls)
     cegterg:last :    255.27s CPU    255.34s WALL (     172 calls)

     Called by h_psi:
     h_psi:pot    :   2384.01s CPU   2398.28s WALL (     584 calls)
     h_psi:calbec :    775.23s CPU    775.57s WALL (     584 calls)
     vloc_psi     :    842.82s CPU    856.51s WALL (     584 calls)
     add_vuspsi   :    765.95s CPU    766.19s WALL (     584 calls)

     General routines
     calbec       :   1126.61s CPU   1127.10s WALL (     756 calls)
     fft          :    343.63s CPU    356.38s WALL (    6519 calls)
     ffts         :      6.00s CPU      6.17s WALL (     346 calls)
     fftw         :    916.45s CPU    931.27s WALL (  119126 calls)
     interpolate  :     13.80s CPU     14.21s WALL (     174 calls)

     Parallel routines
     fft_scatt_xy :    222.29s CPU    225.06s WALL (  125991 calls)
     fft_scatt_yz :    433.19s CPU    452.24s WALL (  125991 calls)

     PWSCF        :      2h 7m CPU      2h 9m WALL


   This run was terminated on:   0:16:42  15Nov2022            

=------------------------------------------------------------------------------=
   JOB DONE.
=------------------------------------------------------------------------------=
