
     Program PWSCF v.6.4.1 starts on 15Nov2022 at  0:16:43 

     This program is part of the open-source Quantum ESPRESSO suite
     for quantum simulation of materials; please cite
         "P. Giannozzi et al., J. Phys.:Condens. Matter 21 395502 (2009);
         "P. Giannozzi et al., J. Phys.:Condens. Matter 29 465901 (2017);
          URL http://www.quantum-espresso.org", 
     in publications or presentations arising from this work. More details at
     http://www.quantum-espresso.org/quote

     Parallel version (MPI), running on     6 processors

     MPI processes distributed on     1 nodes
     R & G space division:  proc/nbgrp/npool/nimage =       6
     Reading input from distance-3.5.in

     Current dimensions of program PWSCF are:
     Max number of different atomic species (ntypx) = 10
     Max number of k-points (npk) =  40000
     Max angular momentum in pseudopotentials (lmaxx) =  3

     IMPORTANT: XC functional enforced from input :
     Exchange-correlation      = RVV10 ( 1  4 13  4 3 0)
     Any further DFT definition will be discarded
     Please, verify this is what you really want

               file H.pbe-rrkjus.UPF: wavefunction(s)  1S renormalized

     Subspace diagonalization in iterative solution of the eigenvalue problem:
     a serial algorithm will be used


     Parallelization info
     --------------------
     sticks:   dense  smooth     PW     G-vecs:    dense   smooth      PW
     Min        3051    1746    432               270999   117096   14629
     Max        3053    1747    437               271001   117099   14630
     Sum       18313   10477   2611              1626001   702581   87777



     bravais-lattice index     =            4
     lattice parameter (alat)  =      23.2937  a.u.
     unit-cell volume          =    8879.8548 (a.u.)^3
     number of atoms/cell      =           52
     number of atomic types    =            3
     number of electrons       =       214.00
     number of Kohn-Sham states=          128
     kinetic-energy cutoff     =      70.0000  Ry
     charge density cutoff     =     490.0000  Ry
     convergence threshold     =      1.0E-06
     mixing beta               =       0.3000
     number of iterations used =            4  plain     mixing
     Exchange-correlation      = RVV10 ( 1  4 13  4 3 0)

     celldm(1)=  23.293684  celldm(2)=   0.000000  celldm(3)=   0.811261
     celldm(4)=   0.000000  celldm(5)=   0.000000  celldm(6)=   0.000000

     crystal axes: (cart. coord. in units of alat)
               a(1) = (   1.000000   0.000000   0.000000 )  
               a(2) = (  -0.500000   0.866025   0.000000 )  
               a(3) = (   0.000000   0.000000   0.811261 )  

     reciprocal axes: (cart. coord. in units 2 pi/alat)
               b(1) = (  1.000000  0.577350 -0.000000 )  
               b(2) = (  0.000000  1.154701  0.000000 )  
               b(3) = (  0.000000 -0.000000  1.232649 )  


     PseudoPot. # 1 for H  read from file:
     /home/cristian/Escritorio/Proyecto_Grafeno/pseudopotenciales/H.pbe-rrkjus.UPF
     MD5 check sum: 7cc9d459525c9a0585f487a71c3c9563
     Pseudo is Ultrasoft, Zval =  1.0
     Generated by new atomic code, or converted to UPF format
     Using radial grid of 1061 points,  2 beta functions with: 
                l(1) =   0
                l(2) =   0
     Q(r) pseudized with 0 coefficients 


     PseudoPot. # 2 for C  read from file:
     /home/cristian/Escritorio/Proyecto_Grafeno/pseudopotenciales/C.pbe-n-rrkjus_psl.1.0.0.UPF
     MD5 check sum: 1fdd950c42eb37d8afe3dd2f8d12311e
     Pseudo is Ultrasoft + core correction, Zval =  4.0
     Generated using "atomic" code by A. Dal Corso v.6.3MaX
     Using radial grid of 1073 points,  4 beta functions with: 
                l(1) =   0
                l(2) =   0
                l(3) =   1
                l(4) =   1
     Q(r) pseudized with 0 coefficients 


     PseudoPot. # 3 for Fe read from file:
     /home/cristian/Escritorio/Proyecto_Grafeno/pseudopotenciales/Fe.pbe-spn-rrkjus_psl.1.0.0.UPF
     MD5 check sum: 72ea77fed8e64ab3a2ccf2804dfc1862
     Pseudo is Ultrasoft + core correction, Zval = 16.0
     Generated using "atomic" code by A. Dal Corso v.6.3
     Using radial grid of 1191 points,  6 beta functions with: 
                l(1) =   0
                l(2) =   0
                l(3) =   1
                l(4) =   1
                l(5) =   2
                l(6) =   2
     Q(r) pseudized with 0 coefficients 


     vdW kernel table read from file rVV10_kernel_table
     MD5 check sum: b8e2538accc0c0b3206b45ba4daaba6c

     atomic species   valence    mass     pseudopotential
        H              1.00     1.00794     H ( 1.00)
        C              4.00    12.01070     C ( 1.00)
        Fe            16.00    55.84500     Fe( 1.00)

     Starting magnetic structure 
     atomic species   magnetization
        H            0.500
        C            0.300
        Fe           0.800

      2 Sym. Ops. (no inversion) found


                                    s                        frac. trans.

      isym =  1     identity                                     

 cryst.   s( 1) = (     1          0          0      )
                  (     0          1          0      )
                  (     0          0          1      )

 cart.    s( 1) = (  1.0000000  0.0000000  0.0000000 )
                  (  0.0000000  1.0000000  0.0000000 )
                  (  0.0000000  0.0000000  1.0000000 )


      isym =  2     inv. 180 deg rotation - cryst. axis [1,1,0]  

 cryst.   s( 2) = (     0         -1          0      )
                  (    -1          0          0      )
                  (     0          0          1      )

 cart.    s( 2) = (  0.5000000 -0.8660254  0.0000000 )
                  ( -0.8660254 -0.5000000  0.0000000 )
                  (  0.0000000  0.0000000  1.0000000 )


     point group C_s (m)    
     there are  2 classes
     the character table:

       E     s    
A'     1.00  1.00
A''    1.00 -1.00

     the symmetry operations in each class and the name of the first element:

     E        1
          identity                                               
     s        2
          inv. 180 deg rotation - cryst. axis [1,1,0]            

   Cartesian axes

     site n.     atom                  positions (alat units)
         1           H   tau(   1) = (   0.2500000   0.4330127   0.2839414  )
         2           H   tau(   2) = (   0.2500000   0.4330127   0.3449541  )
         3           C   tau(   3) = (   0.0000000   0.0000000   0.0000000  )
         4           C   tau(   4) = (   0.0000000   0.1154701   0.0000000  )
         5           C   tau(   5) = (  -0.1000000   0.1732051   0.0000000  )
         6           C   tau(   6) = (  -0.1000000   0.2886751   0.0000000  )
         7           C   tau(   7) = (  -0.2000000   0.3464102   0.0000000  )
         8           C   tau(   8) = (  -0.2000000   0.4618802   0.0000000  )
         9           C   tau(   9) = (  -0.3000000   0.5196152   0.0000000  )
        10           C   tau(  10) = (  -0.3000000   0.6350853   0.0000000  )
        11           C   tau(  11) = (  -0.4000000   0.6928203   0.0000000  )
        12           C   tau(  12) = (  -0.4000000   0.8082904   0.0000000  )
        13           C   tau(  13) = (   0.2000000   0.0000000   0.0000000  )
        14           C   tau(  14) = (   0.2000000   0.1154701   0.0000000  )
        15           C   tau(  15) = (   0.1000000   0.1732051   0.0000000  )
        16           C   tau(  16) = (   0.1000000   0.2886751   0.0000000  )
        17           C   tau(  17) = (   0.0000000   0.3464102   0.0000000  )
        18           C   tau(  18) = (   0.0000000   0.4618802   0.0000000  )
        19           C   tau(  19) = (  -0.1000000   0.5196152   0.0000000  )
        20           C   tau(  20) = (  -0.1000000   0.6350853   0.0000000  )
        21           C   tau(  21) = (  -0.2000000   0.6928203   0.0000000  )
        22           C   tau(  22) = (  -0.2000000   0.8082904   0.0000000  )
        23           C   tau(  23) = (   0.4000000   0.0000000   0.0000000  )
        24           C   tau(  24) = (   0.4000000   0.1154701   0.0000000  )
        25           C   tau(  25) = (   0.3000000   0.1732051   0.0000000  )
        26           C   tau(  26) = (   0.3000000   0.2886751   0.0000000  )
        27           C   tau(  27) = (   0.2000000   0.3464102   0.0000000  )
        28           Fe  tau(  28) = (   0.2000000   0.4618802   0.0000000  )
        29           C   tau(  29) = (   0.1000000   0.5196152   0.0000000  )
        30           C   tau(  30) = (   0.1000000   0.6350853   0.0000000  )
        31           C   tau(  31) = (   0.0000000   0.6928203   0.0000000  )
        32           C   tau(  32) = (   0.0000000   0.8082904   0.0000000  )
        33           C   tau(  33) = (   0.6000000   0.0000000   0.0000000  )
        34           C   tau(  34) = (   0.6000000   0.1154701   0.0000000  )
        35           C   tau(  35) = (   0.5000000   0.1732051   0.0000000  )
        36           C   tau(  36) = (   0.5000000   0.2886751   0.0000000  )
        37           C   tau(  37) = (   0.4000000   0.3464102   0.0000000  )
        38           C   tau(  38) = (   0.4000000   0.4618802   0.0000000  )
        39           C   tau(  39) = (   0.3000000   0.5196152   0.0000000  )
        40           C   tau(  40) = (   0.3000000   0.6350853   0.0000000  )
        41           C   tau(  41) = (   0.2000000   0.6928203   0.0000000  )
        42           C   tau(  42) = (   0.2000000   0.8082904   0.0000000  )
        43           C   tau(  43) = (   0.8000000   0.0000000   0.0000000  )
        44           C   tau(  44) = (   0.8000000   0.1154701   0.0000000  )
        45           C   tau(  45) = (   0.7000000   0.1732051   0.0000000  )
        46           C   tau(  46) = (   0.7000000   0.2886751   0.0000000  )
        47           C   tau(  47) = (   0.6000000   0.3464102   0.0000000  )
        48           C   tau(  48) = (   0.6000000   0.4618802   0.0000000  )
        49           C   tau(  49) = (   0.5000000   0.5196152   0.0000000  )
        50           C   tau(  50) = (   0.5000000   0.6350853   0.0000000  )
        51           C   tau(  51) = (   0.4000000   0.6928203   0.0000000  )
        52           C   tau(  52) = (   0.4000000   0.8082904   0.0000000  )

   Crystallographic axes

     site n.     atom                  positions (cryst. coord.)
         1           H   tau(   1) = (  0.5000000  0.5000000  0.3500000  )
         2           H   tau(   2) = (  0.5000000  0.5000000  0.4252072  )
         3           C   tau(   3) = (  0.0000000  0.0000000  0.0000000  )
         4           C   tau(   4) = (  0.0666667  0.1333333  0.0000000  )
         5           C   tau(   5) = (  0.0000000  0.2000000  0.0000000  )
         6           C   tau(   6) = (  0.0666667  0.3333333  0.0000000  )
         7           C   tau(   7) = (  0.0000000  0.4000000  0.0000000  )
         8           C   tau(   8) = (  0.0666667  0.5333333  0.0000000  )
         9           C   tau(   9) = (  0.0000000  0.6000000  0.0000000  )
        10           C   tau(  10) = (  0.0666667  0.7333333  0.0000000  )
        11           C   tau(  11) = (  0.0000000  0.8000000  0.0000000  )
        12           C   tau(  12) = (  0.0666667  0.9333333  0.0000000  )
        13           C   tau(  13) = (  0.2000000  0.0000000  0.0000000  )
        14           C   tau(  14) = (  0.2666667  0.1333333  0.0000000  )
        15           C   tau(  15) = (  0.2000000  0.2000000  0.0000000  )
        16           C   tau(  16) = (  0.2666667  0.3333333  0.0000000  )
        17           C   tau(  17) = (  0.2000000  0.4000000  0.0000000  )
        18           C   tau(  18) = (  0.2666667  0.5333333  0.0000000  )
        19           C   tau(  19) = (  0.2000000  0.6000000  0.0000000  )
        20           C   tau(  20) = (  0.2666667  0.7333333  0.0000000  )
        21           C   tau(  21) = (  0.2000000  0.8000000  0.0000000  )
        22           C   tau(  22) = (  0.2666667  0.9333333  0.0000000  )
        23           C   tau(  23) = (  0.4000000  0.0000000  0.0000000  )
        24           C   tau(  24) = (  0.4666667  0.1333333  0.0000000  )
        25           C   tau(  25) = (  0.4000000  0.2000000  0.0000000  )
        26           C   tau(  26) = (  0.4666667  0.3333333  0.0000000  )
        27           C   tau(  27) = (  0.4000000  0.4000000  0.0000000  )
        28           Fe  tau(  28) = (  0.4666667  0.5333333  0.0000000  )
        29           C   tau(  29) = (  0.4000000  0.6000000  0.0000000  )
        30           C   tau(  30) = (  0.4666667  0.7333333  0.0000000  )
        31           C   tau(  31) = (  0.4000000  0.8000000  0.0000000  )
        32           C   tau(  32) = (  0.4666667  0.9333333  0.0000000  )
        33           C   tau(  33) = (  0.6000000  0.0000000  0.0000000  )
        34           C   tau(  34) = (  0.6666667  0.1333333  0.0000000  )
        35           C   tau(  35) = (  0.6000000  0.2000000  0.0000000  )
        36           C   tau(  36) = (  0.6666667  0.3333333  0.0000000  )
        37           C   tau(  37) = (  0.6000000  0.4000000  0.0000000  )
        38           C   tau(  38) = (  0.6666667  0.5333333  0.0000000  )
        39           C   tau(  39) = (  0.6000000  0.6000000  0.0000000  )
        40           C   tau(  40) = (  0.6666667  0.7333333  0.0000000  )
        41           C   tau(  41) = (  0.6000000  0.8000000  0.0000000  )
        42           C   tau(  42) = (  0.6666667  0.9333333  0.0000000  )
        43           C   tau(  43) = (  0.8000000  0.0000000  0.0000000  )
        44           C   tau(  44) = (  0.8666667  0.1333333  0.0000000  )
        45           C   tau(  45) = (  0.8000000  0.2000000  0.0000000  )
        46           C   tau(  46) = (  0.8666667  0.3333333  0.0000000  )
        47           C   tau(  47) = (  0.8000000  0.4000000  0.0000000  )
        48           C   tau(  48) = (  0.8666667  0.5333333  0.0000000  )
        49           C   tau(  49) = (  0.8000000  0.6000000  0.0000000  )
        50           C   tau(  50) = (  0.8666667  0.7333333  0.0000000  )
        51           C   tau(  51) = (  0.8000000  0.8000000  0.0000000  )
        52           C   tau(  52) = (  0.8666667  0.9333333  0.0000000  )

     number of k points=     1  Marzari-Vanderbilt smearing, width (Ry)=  0.0010
                       cart. coord. in units 2pi/alat
        k(    1) = (   0.0000000   0.0000000   0.0000000), wk =   1.0000000

                       cryst. coord.
        k(    1) = (   0.0000000   0.0000000   0.0000000), wk =   1.0000000

     Dense  grid:  1626001 G-vectors     FFT dimensions: ( 180, 180, 135)

     Smooth grid:   702581 G-vectors     FFT dimensions: ( 125, 125, 108)

     Dynamical RAM for                 wfc:      28.59 MB

     Dynamical RAM for     wfc (w. buffer):      85.76 MB

     Dynamical RAM for           str. fact:      12.41 MB

     Dynamical RAM for           local pot:       0.00 MB

     Dynamical RAM for          nlocal pot:      92.46 MB

     Dynamical RAM for                qrad:      19.73 MB

     Dynamical RAM for          rho,v,vnew:      58.92 MB

     Dynamical RAM for               rhoin:      19.64 MB

     Dynamical RAM for            rho*nmix:      66.16 MB

     Dynamical RAM for           G-vectors:      16.40 MB

     Dynamical RAM for          h,s,v(r/c):      12.00 MB

     Dynamical RAM for          <psi|beta>:       0.81 MB

     Dynamical RAM for                 psi:     114.35 MB

     Dynamical RAM for                hpsi:     114.35 MB

     Dynamical RAM for                spsi:     114.35 MB

     Dynamical RAM for      wfcinit/wfcrot:      93.90 MB

     Dynamical RAM for           addusdens:     975.89 MB

     Estimated static dynamical RAM per process >     422.14 MB

     Estimated max dynamical RAM per process >       1.37 GB

     Estimated total dynamical RAM >       8.19 GB
     Generating pointlists ...
     new r_m :   0.0252 (alat units)  0.5862 (a.u.) for type    1
     new r_m :   0.0476 (alat units)  1.1095 (a.u.) for type    2
     new r_m :   0.0476 (alat units)  1.1095 (a.u.) for type    3

     Check: negative core charge=   -0.000002

     Initial potential from superposition of free atoms

     starting charge  213.80512, renormalised to  214.00000

     negative rho (up, down):  5.915E-05 1.004E-02


---------------------------------------------------------------------------------
Carrying out rVV10 run using the following parameters:
Nqs =      20    Nr_points =    1024   r_max =   100.000
b_value =  6.30000    beta =  0.00901
     q_mesh =  0.00010000  0.00030000  0.00058939  0.00100810
               0.00161396  0.00249058  0.00375900  0.00559430
               0.00824984  0.01209221  0.01765183  0.02569619
               0.03733578  0.05417739  0.07854596  0.11380545
               0.16482331  0.23864234  0.34545298  0.50000000

Gradients computed in Reciprocal space

---------------------------------------------------------------------------------


     Starting wfcs are  208 randomized atomic wfcs

     total cpu time spent up to now is       69.9 secs

     Self-consistent Calculation

     iteration #  1     ecut=    70.00 Ry     beta= 0.30
     Davidson diagonalization with overlap
     ethr =  1.00E-02,  avg # of iterations =  4.0

     negative rho (up, down):  7.150E-05 1.001E-02

     total cpu time spent up to now is      187.7 secs

     total energy              =    -858.09372030 Ry
     Harris-Foulkes estimate   =    -858.62582797 Ry
     estimated scf accuracy    <      10.08339445 Ry

     total magnetization       =     6.00 Bohr mag/cell
     absolute magnetization    =     6.66 Bohr mag/cell

     iteration #  2     ecut=    70.00 Ry     beta= 0.30
     Davidson diagonalization with overlap
     ethr =  4.71E-03,  avg # of iterations =  2.0

     negative rho (up, down):  9.948E-05 1.090E-02

     total cpu time spent up to now is      272.5 secs

     total energy              =    -858.46948027 Ry
     Harris-Foulkes estimate   =    -858.65373529 Ry
     estimated scf accuracy    <       4.95540050 Ry

     total magnetization       =     4.00 Bohr mag/cell
     absolute magnetization    =     5.67 Bohr mag/cell

     iteration #  3     ecut=    70.00 Ry     beta= 0.30
     Davidson diagonalization with overlap
     ethr =  2.32E-03,  avg # of iterations =  2.5

     negative rho (up, down):  1.848E-04 2.307E-02

     total cpu time spent up to now is      361.8 secs

     total energy              =    -858.71499573 Ry
     Harris-Foulkes estimate   =    -859.77112637 Ry
     estimated scf accuracy    <      10.85837882 Ry

     total magnetization       =     6.00 Bohr mag/cell
     absolute magnetization    =     6.17 Bohr mag/cell

     iteration #  4     ecut=    70.00 Ry     beta= 0.30
     Davidson diagonalization with overlap
     ethr =  2.32E-03,  avg # of iterations =  3.0

     negative rho (up, down):  2.377E-04 3.197E-02

     total cpu time spent up to now is      447.2 secs

     total energy              =    -859.84443760 Ry
     Harris-Foulkes estimate   =    -859.59068341 Ry
     estimated scf accuracy    <       0.74818082 Ry

     total magnetization       =     2.00 Bohr mag/cell
     absolute magnetization    =     3.48 Bohr mag/cell

     iteration #  5     ecut=    70.00 Ry     beta= 0.30
     Davidson diagonalization with overlap
     ethr =  3.50E-04,  avg # of iterations = 10.0

     negative rho (up, down):  2.835E-04 3.703E-02

     total cpu time spent up to now is      543.5 secs

     total energy              =    -859.97163041 Ry
     Harris-Foulkes estimate   =    -859.95248934 Ry
     estimated scf accuracy    <       0.57133524 Ry

     total magnetization       =     2.00 Bohr mag/cell
     absolute magnetization    =     3.01 Bohr mag/cell

     iteration #  6     ecut=    70.00 Ry     beta= 0.30
     Davidson diagonalization with overlap
     ethr =  2.67E-04,  avg # of iterations =  4.0

     negative rho (up, down):  5.766E-04 6.783E-02

     total cpu time spent up to now is      629.5 secs

     total energy              =    -860.02518539 Ry
     Harris-Foulkes estimate   =    -860.00067105 Ry
     estimated scf accuracy    <       0.12543908 Ry

     total magnetization       =     2.00 Bohr mag/cell
     absolute magnetization    =     2.89 Bohr mag/cell

     iteration #  7     ecut=    70.00 Ry     beta= 0.30
     Davidson diagonalization with overlap
     ethr =  5.86E-05,  avg # of iterations =  3.0

     negative rho (up, down):  3.017E-03 9.895E-02

     total cpu time spent up to now is      716.8 secs

     total energy              =    -860.04419181 Ry
     Harris-Foulkes estimate   =    -860.04838759 Ry
     estimated scf accuracy    <       0.12059969 Ry

     total magnetization       =     2.01 Bohr mag/cell
     absolute magnetization    =     2.76 Bohr mag/cell

     iteration #  8     ecut=    70.00 Ry     beta= 0.30
     Davidson diagonalization with overlap
     ethr =  5.64E-05,  avg # of iterations =  9.0

     negative rho (up, down):  2.656E-03 9.073E-02

     total cpu time spent up to now is      806.1 secs

     total energy              =    -860.04630577 Ry
     Harris-Foulkes estimate   =    -860.04814072 Ry
     estimated scf accuracy    <       0.06236205 Ry

     total magnetization       =     1.83 Bohr mag/cell
     absolute magnetization    =     2.75 Bohr mag/cell

     iteration #  9     ecut=    70.00 Ry     beta= 0.30
     Davidson diagonalization with overlap
     ethr =  2.91E-05,  avg # of iterations =  2.0

     negative rho (up, down):  2.458E-03 8.111E-02

     total cpu time spent up to now is      891.1 secs

     total energy              =    -860.04654409 Ry
     Harris-Foulkes estimate   =    -860.05266055 Ry
     estimated scf accuracy    <       0.13304070 Ry

     total magnetization       =     2.00 Bohr mag/cell
     absolute magnetization    =     2.75 Bohr mag/cell

     iteration # 10     ecut=    70.00 Ry     beta= 0.30
     Davidson diagonalization with overlap
     ethr =  2.91E-05,  avg # of iterations =  1.0

     negative rho (up, down):  1.846E-03 6.929E-02

     total cpu time spent up to now is      975.0 secs

     total energy              =    -860.05189405 Ry
     Harris-Foulkes estimate   =    -860.05116371 Ry
     estimated scf accuracy    <       0.03352288 Ry

     total magnetization       =     1.60 Bohr mag/cell
     absolute magnetization    =     2.67 Bohr mag/cell

     iteration # 11     ecut=    70.00 Ry     beta= 0.30
     Davidson diagonalization with overlap
     ethr =  1.57E-05,  avg # of iterations =  1.0

     negative rho (up, down):  1.259E-03 5.907E-02

     total cpu time spent up to now is     1059.2 secs

     total energy              =    -860.05355901 Ry
     Harris-Foulkes estimate   =    -860.05269832 Ry
     estimated scf accuracy    <       0.03392823 Ry

     total magnetization       =     1.84 Bohr mag/cell
     absolute magnetization    =     2.77 Bohr mag/cell

     iteration # 12     ecut=    70.00 Ry     beta= 0.30
     Davidson diagonalization with overlap
     ethr =  1.57E-05,  avg # of iterations =  1.0

     negative rho (up, down):  9.992E-04 5.050E-02

     total cpu time spent up to now is     1143.3 secs

     total energy              =    -860.05426205 Ry
     Harris-Foulkes estimate   =    -860.05388322 Ry
     estimated scf accuracy    <       0.02384684 Ry

     total magnetization       =     1.84 Bohr mag/cell
     absolute magnetization    =     2.80 Bohr mag/cell

     iteration # 13     ecut=    70.00 Ry     beta= 0.30
     Davidson diagonalization with overlap
     ethr =  1.11E-05,  avg # of iterations =  2.0

     negative rho (up, down):  8.880E-04 4.635E-02

     total cpu time spent up to now is     1227.7 secs

     total energy              =    -860.05484960 Ry
     Harris-Foulkes estimate   =    -860.05454292 Ry
     estimated scf accuracy    <       0.00624898 Ry

     total magnetization       =     2.09 Bohr mag/cell
     absolute magnetization    =     2.86 Bohr mag/cell

     iteration # 14     ecut=    70.00 Ry     beta= 0.30
     Davidson diagonalization with overlap
     ethr =  2.92E-06,  avg # of iterations = 10.5

     negative rho (up, down):  7.643E-04 4.159E-02

     total cpu time spent up to now is     1320.6 secs

     total energy              =    -860.05520740 Ry
     Harris-Foulkes estimate   =    -860.05495274 Ry
     estimated scf accuracy    <       0.00899581 Ry

     total magnetization       =     1.98 Bohr mag/cell
     absolute magnetization    =     2.87 Bohr mag/cell

     iteration # 15     ecut=    70.00 Ry     beta= 0.30
     Davidson diagonalization with overlap
     ethr =  2.92E-06,  avg # of iterations =  2.5

     negative rho (up, down):  5.464E-04 2.549E-02

     total cpu time spent up to now is     1405.4 secs

     total energy              =    -860.05649876 Ry
     Harris-Foulkes estimate   =    -860.05537406 Ry
     estimated scf accuracy    <       0.00401993 Ry

     total magnetization       =     2.04 Bohr mag/cell
     absolute magnetization    =     2.91 Bohr mag/cell

     iteration # 16     ecut=    70.00 Ry     beta= 0.30
     Davidson diagonalization with overlap
     ethr =  1.88E-06,  avg # of iterations =  6.5

     negative rho (up, down):  4.996E-04 5.041E-02

     total cpu time spent up to now is     1509.6 secs

     total energy              =    -860.05643874 Ry
     Harris-Foulkes estimate   =    -860.05760803 Ry
     estimated scf accuracy    <       0.00279037 Ry

     total magnetization       =     2.15 Bohr mag/cell
     absolute magnetization    =     3.04 Bohr mag/cell

     iteration # 17     ecut=    70.00 Ry     beta= 0.30
     Davidson diagonalization with overlap
     ethr =  1.30E-06,  avg # of iterations =  2.0

     negative rho (up, down):  5.256E-04 1.058E-01

     total cpu time spent up to now is     1599.6 secs

     total energy              =    -860.05376509 Ry
     Harris-Foulkes estimate   =    -860.05666784 Ry
     estimated scf accuracy    <       0.00175969 Ry

     total magnetization       =     2.10 Bohr mag/cell
     absolute magnetization    =     3.00 Bohr mag/cell

     iteration # 18     ecut=    70.00 Ry     beta= 0.30
     Davidson diagonalization with overlap
     ethr =  8.22E-07,  avg # of iterations =  3.0

     negative rho (up, down):  4.768E-04 9.598E-02

     total cpu time spent up to now is     1701.0 secs

     total energy              =    -860.05493655 Ry
     Harris-Foulkes estimate   =    -860.05506346 Ry
     estimated scf accuracy    <       0.00114336 Ry

     total magnetization       =     2.01 Bohr mag/cell
     absolute magnetization    =     2.94 Bohr mag/cell

     iteration # 19     ecut=    70.00 Ry     beta= 0.30
     Davidson diagonalization with overlap
     ethr =  5.34E-07,  avg # of iterations =  3.0

     negative rho (up, down):  4.844E-04 8.713E-02

     total cpu time spent up to now is     1795.1 secs

     total energy              =    -860.05518229 Ry
     Harris-Foulkes estimate   =    -860.05519852 Ry
     estimated scf accuracy    <       0.00053407 Ry

     total magnetization       =     2.00 Bohr mag/cell
     absolute magnetization    =     3.00 Bohr mag/cell

     iteration # 20     ecut=    70.00 Ry     beta= 0.30
     Davidson diagonalization with overlap
     ethr =  2.50E-07,  avg # of iterations =  2.0

     negative rho (up, down):  5.050E-04 6.893E-02

     total cpu time spent up to now is     1886.5 secs

     total energy              =    -860.05540814 Ry
     Harris-Foulkes estimate   =    -860.05525105 Ry
     estimated scf accuracy    <       0.00045079 Ry

     total magnetization       =     2.00 Bohr mag/cell
     absolute magnetization    =     3.02 Bohr mag/cell

     iteration # 21     ecut=    70.00 Ry     beta= 0.30
     Davidson diagonalization with overlap
     ethr =  2.11E-07,  avg # of iterations =  2.0

     negative rho (up, down):  4.957E-04 7.052E-02

     total cpu time spent up to now is     1973.4 secs

     total energy              =    -860.05486711 Ry
     Harris-Foulkes estimate   =    -860.05543383 Ry
     estimated scf accuracy    <       0.00057379 Ry

     total magnetization       =     2.00 Bohr mag/cell
     absolute magnetization    =     3.03 Bohr mag/cell

     iteration # 22     ecut=    70.00 Ry     beta= 0.30
     Davidson diagonalization with overlap
     ethr =  2.11E-07,  avg # of iterations =  2.5

     negative rho (up, down):  5.148E-04 6.574E-02

     total cpu time spent up to now is     2071.6 secs

     total energy              =    -860.05506330 Ry
     Harris-Foulkes estimate   =    -860.05510616 Ry
     estimated scf accuracy    <       0.00024736 Ry

     total magnetization       =     2.00 Bohr mag/cell
     absolute magnetization    =     3.03 Bohr mag/cell

     iteration # 23     ecut=    70.00 Ry     beta= 0.30
     Davidson diagonalization with overlap
     ethr =  1.16E-07,  avg # of iterations =  2.0

     negative rho (up, down):  5.733E-04 6.145E-02

     total cpu time spent up to now is     2165.2 secs

     total energy              =    -860.05516815 Ry
     Harris-Foulkes estimate   =    -860.05511376 Ry
     estimated scf accuracy    <       0.00010941 Ry

     total magnetization       =     2.00 Bohr mag/cell
     absolute magnetization    =     3.05 Bohr mag/cell

     iteration # 24     ecut=    70.00 Ry     beta= 0.30
     Davidson diagonalization with overlap
     ethr =  5.11E-08,  avg # of iterations =  3.0

     negative rho (up, down):  5.755E-04 4.486E-02

     total cpu time spent up to now is     2268.5 secs

     total energy              =    -860.05527242 Ry
     Harris-Foulkes estimate   =    -860.05523480 Ry
     estimated scf accuracy    <       0.00005822 Ry

     total magnetization       =     2.00 Bohr mag/cell
     absolute magnetization    =     3.10 Bohr mag/cell

     iteration # 25     ecut=    70.00 Ry     beta= 0.30
     Davidson diagonalization with overlap
     ethr =  2.72E-08,  avg # of iterations =  1.5

     negative rho (up, down):  5.543E-04 3.270E-02

     total cpu time spent up to now is     2352.7 secs

     total energy              =    -860.05527247 Ry
     Harris-Foulkes estimate   =    -860.05527410 Ry
     estimated scf accuracy    <       0.00006512 Ry

     total magnetization       =     2.00 Bohr mag/cell
     absolute magnetization    =     3.11 Bohr mag/cell

     iteration # 26     ecut=    70.00 Ry     beta= 0.30
     Davidson diagonalization with overlap
     ethr =  2.72E-08,  avg # of iterations =  2.0

     negative rho (up, down):  5.519E-04 3.173E-02

     total cpu time spent up to now is     2438.5 secs

     total energy              =    -860.05526286 Ry
     Harris-Foulkes estimate   =    -860.05527620 Ry
     estimated scf accuracy    <       0.00011758 Ry

     total magnetization       =     2.00 Bohr mag/cell
     absolute magnetization    =     3.10 Bohr mag/cell

     iteration # 27     ecut=    70.00 Ry     beta= 0.30
     Davidson diagonalization with overlap
     ethr =  2.72E-08,  avg # of iterations =  2.0

     negative rho (up, down):  5.459E-04 2.381E-02

     total cpu time spent up to now is     2526.6 secs

     total energy              =    -860.05527928 Ry
     Harris-Foulkes estimate   =    -860.05526855 Ry
     estimated scf accuracy    <       0.00009828 Ry

     total magnetization       =     2.00 Bohr mag/cell
     absolute magnetization    =     3.10 Bohr mag/cell

     iteration # 28     ecut=    70.00 Ry     beta= 0.30
     Davidson diagonalization with overlap
     ethr =  2.72E-08,  avg # of iterations =  2.0

     negative rho (up, down):  5.611E-04 2.521E-02

     total cpu time spent up to now is     2611.5 secs

     total energy              =    -860.05528078 Ry
     Harris-Foulkes estimate   =    -860.05528074 Ry
     estimated scf accuracy    <       0.00010334 Ry

     total magnetization       =     2.00 Bohr mag/cell
     absolute magnetization    =     3.10 Bohr mag/cell

     iteration # 29     ecut=    70.00 Ry     beta= 0.30
     Davidson diagonalization with overlap
     ethr =  2.72E-08,  avg # of iterations =  2.0

     negative rho (up, down):  5.775E-04 2.094E-02

     total cpu time spent up to now is     2699.6 secs

     total energy              =    -860.05531390 Ry
     Harris-Foulkes estimate   =    -860.05528567 Ry
     estimated scf accuracy    <       0.00009304 Ry

     total magnetization       =     2.00 Bohr mag/cell
     absolute magnetization    =     3.11 Bohr mag/cell

     iteration # 30     ecut=    70.00 Ry     beta= 0.30
     Davidson diagonalization with overlap
     ethr =  2.72E-08,  avg # of iterations =  2.0

     negative rho (up, down):  5.528E-04 2.959E-02

     total cpu time spent up to now is     2790.9 secs

     total energy              =    -860.05525747 Ry
     Harris-Foulkes estimate   =    -860.05532232 Ry
     estimated scf accuracy    <       0.00010323 Ry

     total magnetization       =     2.00 Bohr mag/cell
     absolute magnetization    =     3.12 Bohr mag/cell

     iteration # 31     ecut=    70.00 Ry     beta= 0.30
     Davidson diagonalization with overlap
     ethr =  2.72E-08,  avg # of iterations =  3.0

     negative rho (up, down):  5.389E-04 2.399E-02

     total cpu time spent up to now is     2886.6 secs

     total energy              =    -860.05526182 Ry
     Harris-Foulkes estimate   =    -860.05528511 Ry
     estimated scf accuracy    <       0.00008774 Ry

     total magnetization       =     2.00 Bohr mag/cell
     absolute magnetization    =     3.11 Bohr mag/cell

     iteration # 32     ecut=    70.00 Ry     beta= 0.30
     Davidson diagonalization with overlap
     ethr =  2.72E-08,  avg # of iterations =  3.0

     negative rho (up, down):  5.370E-04 2.235E-02

     total cpu time spent up to now is     2980.9 secs

     total energy              =    -860.05528451 Ry
     Harris-Foulkes estimate   =    -860.05527733 Ry
     estimated scf accuracy    <       0.00006021 Ry

     total magnetization       =     2.00 Bohr mag/cell
     absolute magnetization    =     3.11 Bohr mag/cell

     iteration # 33     ecut=    70.00 Ry     beta= 0.30
     Davidson diagonalization with overlap
     ethr =  2.72E-08,  avg # of iterations =  2.0

     negative rho (up, down):  5.308E-04 2.044E-02

     total cpu time spent up to now is     3066.6 secs

     total energy              =    -860.05527231 Ry
     Harris-Foulkes estimate   =    -860.05528636 Ry
     estimated scf accuracy    <       0.00006175 Ry

     total magnetization       =     2.00 Bohr mag/cell
     absolute magnetization    =     3.11 Bohr mag/cell

     iteration # 34     ecut=    70.00 Ry     beta= 0.30
     Davidson diagonalization with overlap
     ethr =  2.72E-08,  avg # of iterations =  2.0

     negative rho (up, down):  5.255E-04 2.055E-02

     total cpu time spent up to now is     3155.3 secs

     total energy              =    -860.05526958 Ry
     Harris-Foulkes estimate   =    -860.05527789 Ry
     estimated scf accuracy    <       0.00005889 Ry

     total magnetization       =     2.00 Bohr mag/cell
     absolute magnetization    =     3.11 Bohr mag/cell

     iteration # 35     ecut=    70.00 Ry     beta= 0.30
     Davidson diagonalization with overlap
     ethr =  2.72E-08,  avg # of iterations =  2.0

     negative rho (up, down):  5.389E-04 1.563E-02

     total cpu time spent up to now is     3242.6 secs

     total energy              =    -860.05529346 Ry
     Harris-Foulkes estimate   =    -860.05527324 Ry
     estimated scf accuracy    <       0.00006174 Ry

     total magnetization       =     2.00 Bohr mag/cell
     absolute magnetization    =     3.11 Bohr mag/cell

     iteration # 36     ecut=    70.00 Ry     beta= 0.30
     Davidson diagonalization with overlap
     ethr =  2.72E-08,  avg # of iterations =  2.0

     negative rho (up, down):  5.545E-04 2.597E-02

     total cpu time spent up to now is     3336.1 secs

     total energy              =    -860.05523451 Ry
     Harris-Foulkes estimate   =    -860.05530495 Ry
     estimated scf accuracy    <       0.00006844 Ry

     total magnetization       =     2.00 Bohr mag/cell
     absolute magnetization    =     3.12 Bohr mag/cell

     iteration # 37     ecut=    70.00 Ry     beta= 0.30
     Davidson diagonalization with overlap
     ethr =  2.72E-08,  avg # of iterations =  3.0

     negative rho (up, down):  5.471E-04 2.639E-02

     total cpu time spent up to now is     3430.4 secs

     total energy              =    -860.05522349 Ry
     Harris-Foulkes estimate   =    -860.05525468 Ry
     estimated scf accuracy    <       0.00004161 Ry

     total magnetization       =     2.00 Bohr mag/cell
     absolute magnetization    =     3.10 Bohr mag/cell

     iteration # 38     ecut=    70.00 Ry     beta= 0.30
     Davidson diagonalization with overlap
     ethr =  1.94E-08,  avg # of iterations =  2.0

     negative rho (up, down):  5.896E-04 3.097E-02

     total cpu time spent up to now is     3527.8 secs

     total energy              =    -860.05520071 Ry
     Harris-Foulkes estimate   =    -860.05524444 Ry
     estimated scf accuracy    <       0.00004592 Ry

     total magnetization       =     2.00 Bohr mag/cell
     absolute magnetization    =     3.09 Bohr mag/cell

     iteration # 39     ecut=    70.00 Ry     beta= 0.30
     Davidson diagonalization with overlap
     ethr =  1.94E-08,  avg # of iterations =  3.0

     negative rho (up, down):  5.765E-04 2.288E-02

     total cpu time spent up to now is     3618.0 secs

     total energy              =    -860.05524311 Ry
     Harris-Foulkes estimate   =    -860.05522417 Ry
     estimated scf accuracy    <       0.00001563 Ry

     total magnetization       =     2.00 Bohr mag/cell
     absolute magnetization    =     3.09 Bohr mag/cell

     iteration # 40     ecut=    70.00 Ry     beta= 0.30
     Davidson diagonalization with overlap
     ethr =  7.30E-09,  avg # of iterations =  2.0

     negative rho (up, down):  5.731E-04 1.982E-02

     total cpu time spent up to now is     3706.0 secs

     total energy              =    -860.05525849 Ry
     Harris-Foulkes estimate   =    -860.05524467 Ry
     estimated scf accuracy    <       0.00001257 Ry

     total magnetization       =     2.00 Bohr mag/cell
     absolute magnetization    =     3.10 Bohr mag/cell

     iteration # 41     ecut=    70.00 Ry     beta= 0.30
     Davidson diagonalization with overlap
     ethr =  5.87E-09,  avg # of iterations =  3.0

     negative rho (up, down):  5.632E-04 1.631E-02

     total cpu time spent up to now is     3806.4 secs

     total energy              =    -860.05526847 Ry
     Harris-Foulkes estimate   =    -860.05526291 Ry
     estimated scf accuracy    <       0.00000815 Ry

     total magnetization       =     2.00 Bohr mag/cell
     absolute magnetization    =     3.12 Bohr mag/cell

     iteration # 42     ecut=    70.00 Ry     beta= 0.30
     Davidson diagonalization with overlap
     ethr =  3.81E-09,  avg # of iterations =  3.0

     negative rho (up, down):  5.565E-04 1.248E-02

     total cpu time spent up to now is     3910.1 secs

     total energy              =    -860.05527620 Ry
     Harris-Foulkes estimate   =    -860.05527183 Ry
     estimated scf accuracy    <       0.00000292 Ry

     total magnetization       =     2.00 Bohr mag/cell
     absolute magnetization    =     3.14 Bohr mag/cell

     iteration # 43     ecut=    70.00 Ry     beta= 0.30
     Davidson diagonalization with overlap
     ethr =  1.36E-09,  avg # of iterations =  3.0

     negative rho (up, down):  5.537E-04 1.087E-02

     total cpu time spent up to now is     4005.0 secs

     total energy              =    -860.05527874 Ry
     Harris-Foulkes estimate   =    -860.05527700 Ry
     estimated scf accuracy    <       0.00000246 Ry

     total magnetization       =     2.00 Bohr mag/cell
     absolute magnetization    =     3.16 Bohr mag/cell

     iteration # 44     ecut=    70.00 Ry     beta= 0.30
     Davidson diagonalization with overlap
     ethr =  1.15E-09,  avg # of iterations =  2.5

     negative rho (up, down):  5.529E-04 9.463E-03

     total cpu time spent up to now is     4101.9 secs

     total energy              =    -860.05528080 Ry
     Harris-Foulkes estimate   =    -860.05527951 Ry
     estimated scf accuracy    <       0.00000198 Ry

     total magnetization       =     2.00 Bohr mag/cell
     absolute magnetization    =     3.16 Bohr mag/cell

     iteration # 45     ecut=    70.00 Ry     beta= 0.30
     Davidson diagonalization with overlap
     ethr =  9.27E-10,  avg # of iterations =  2.0

     negative rho (up, down):  5.532E-04 9.410E-03

     total cpu time spent up to now is     4188.2 secs

     total energy              =    -860.05528094 Ry
     Harris-Foulkes estimate   =    -860.05528092 Ry
     estimated scf accuracy    <       0.00000236 Ry

     total magnetization       =     2.00 Bohr mag/cell
     absolute magnetization    =     3.17 Bohr mag/cell

     iteration # 46     ecut=    70.00 Ry     beta= 0.30
     Davidson diagonalization with overlap
     ethr =  9.27E-10,  avg # of iterations =  2.0

     negative rho (up, down):  5.545E-04 9.558E-03

     total cpu time spent up to now is     4278.0 secs

     total energy              =    -860.05528012 Ry
     Harris-Foulkes estimate   =    -860.05528118 Ry
     estimated scf accuracy    <       0.00000263 Ry

     total magnetization       =     2.00 Bohr mag/cell
     absolute magnetization    =     3.17 Bohr mag/cell

     iteration # 47     ecut=    70.00 Ry     beta= 0.30
     Davidson diagonalization with overlap
     ethr =  9.27E-10,  avg # of iterations =  2.0

     negative rho (up, down):  5.547E-04 8.878E-03

     total cpu time spent up to now is     4370.0 secs

     total energy              =    -860.05528018 Ry
     Harris-Foulkes estimate   =    -860.05528049 Ry
     estimated scf accuracy    <       0.00000234 Ry

     total magnetization       =     2.00 Bohr mag/cell
     absolute magnetization    =     3.17 Bohr mag/cell

     iteration # 48     ecut=    70.00 Ry     beta= 0.30
     Davidson diagonalization with overlap
     ethr =  9.27E-10,  avg # of iterations =  1.5

     negative rho (up, down):  5.554E-04 8.814E-03

     total cpu time spent up to now is     4454.5 secs

     total energy              =    -860.05527939 Ry
     Harris-Foulkes estimate   =    -860.05528022 Ry
     estimated scf accuracy    <       0.00000211 Ry

     total magnetization       =     2.00 Bohr mag/cell
     absolute magnetization    =     3.17 Bohr mag/cell

     iteration # 49     ecut=    70.00 Ry     beta= 0.30
     Davidson diagonalization with overlap
     ethr =  9.27E-10,  avg # of iterations =  2.0

     negative rho (up, down):  5.567E-04 9.175E-03

     total cpu time spent up to now is     4540.0 secs

     total energy              =    -860.05527692 Ry
     Harris-Foulkes estimate   =    -860.05527948 Ry
     estimated scf accuracy    <       0.00000180 Ry

     total magnetization       =     2.00 Bohr mag/cell
     absolute magnetization    =     3.16 Bohr mag/cell

     iteration # 50     ecut=    70.00 Ry     beta= 0.30
     Davidson diagonalization with overlap
     ethr =  8.39E-10,  avg # of iterations =  2.5

     negative rho (up, down):  5.562E-04 9.039E-03

     total cpu time spent up to now is     4636.7 secs

     total energy              =    -860.05527816 Ry
     Harris-Foulkes estimate   =    -860.05527758 Ry
     estimated scf accuracy    <       0.00000100 Ry

     total magnetization       =     2.00 Bohr mag/cell
     absolute magnetization    =     3.16 Bohr mag/cell

     iteration # 51     ecut=    70.00 Ry     beta= 0.30
     Davidson diagonalization with overlap
     ethr =  4.68E-10,  avg # of iterations =  2.0

     negative rho (up, down):  5.537E-04 7.773E-03

     Magnetic moment per site:
     atom:    1    charge:    0.2100    magn:   -0.0000    constr:    0.0000
     atom:    2    charge:    0.2122    magn:   -0.0001    constr:    0.0000
     atom:    3    charge:    1.7171    magn:   -0.0125    constr:    0.0000
     atom:    4    charge:    1.7153    magn:    0.0176    constr:    0.0000
     atom:    5    charge:    1.7177    magn:   -0.0085    constr:    0.0000
     atom:    6    charge:    1.7142    magn:    0.0055    constr:    0.0000
     atom:    7    charge:    1.7177    magn:   -0.0085    constr:    0.0000
     atom:    8    charge:    1.7153    magn:    0.0176    constr:    0.0000
     atom:    9    charge:    1.7171    magn:   -0.0124    constr:    0.0000
     atom:   10    charge:    1.7149    magn:    0.0586    constr:    0.0000
     atom:   11    charge:    1.7176    magn:   -0.0170    constr:    0.0000
     atom:   12    charge:    1.7149    magn:    0.0585    constr:    0.0000
     atom:   13    charge:    1.7176    magn:   -0.0170    constr:    0.0000
     atom:   14    charge:    1.7155    magn:    0.0457    constr:    0.0000
     atom:   15    charge:    1.7140    magn:   -0.0134    constr:    0.0000
     atom:   16    charge:    1.7106    magn:    0.0553    constr:    0.0000
     atom:   17    charge:    1.7228    magn:   -0.0121    constr:    0.0000
     atom:   18    charge:    1.7106    magn:    0.0555    constr:    0.0000
     atom:   19    charge:    1.7140    magn:   -0.0135    constr:    0.0000
     atom:   20    charge:    1.7155    magn:    0.0459    constr:    0.0000
     atom:   21    charge:    1.7176    magn:   -0.0170    constr:    0.0000
     atom:   22    charge:    1.7149    magn:    0.0586    constr:    0.0000
     atom:   23    charge:    1.7171    magn:   -0.0124    constr:    0.0000
     atom:   24    charge:    1.7153    magn:    0.0176    constr:    0.0000
     atom:   25    charge:    1.7140    magn:   -0.0133    constr:    0.0000
     atom:   26    charge:    1.7106    magn:    0.0551    constr:    0.0000
     atom:   27    charge:    1.8519    magn:   -0.0194    constr:    0.0000
     atom:   28    charge:   11.1426    magn:    0.4530    constr:    0.0000
     atom:   29    charge:    1.8519    magn:   -0.0197    constr:    0.0000
     atom:   30    charge:    1.7106    magn:    0.0555    constr:    0.0000
     atom:   31    charge:    1.7140    magn:   -0.0135    constr:    0.0000
     atom:   32    charge:    1.7153    magn:    0.0176    constr:    0.0000
     atom:   33    charge:    1.7177    magn:   -0.0085    constr:    0.0000
     atom:   34    charge:    1.7139    magn:    0.0124    constr:    0.0000
     atom:   35    charge:    1.7177    magn:   -0.0084    constr:    0.0000
     atom:   36    charge:    1.7141    magn:    0.0054    constr:    0.0000
     atom:   37    charge:    1.7228    magn:   -0.0118    constr:    0.0000
     atom:   38    charge:    1.7106    magn:    0.0551    constr:    0.0000
     atom:   39    charge:    1.8519    magn:   -0.0194    constr:    0.0000
     atom:   40    charge:    1.7106    magn:    0.0553    constr:    0.0000
     atom:   41    charge:    1.7228    magn:   -0.0121    constr:    0.0000
     atom:   42    charge:    1.7142    magn:    0.0055    constr:    0.0000
     atom:   43    charge:    1.7177    magn:   -0.0085    constr:    0.0000
     atom:   44    charge:    1.7139    magn:    0.0124    constr:    0.0000
     atom:   45    charge:    1.7236    magn:   -0.0050    constr:    0.0000
     atom:   46    charge:    1.7139    magn:    0.0124    constr:    0.0000
     atom:   47    charge:    1.7177    magn:   -0.0084    constr:    0.0000
     atom:   48    charge:    1.7153    magn:    0.0176    constr:    0.0000
     atom:   49    charge:    1.7140    magn:   -0.0133    constr:    0.0000
     atom:   50    charge:    1.7155    magn:    0.0457    constr:    0.0000
     atom:   51    charge:    1.7140    magn:   -0.0134    constr:    0.0000
     atom:   52    charge:    1.7153    magn:    0.0176    constr:    0.0000

     total cpu time spent up to now is     4733.0 secs

     End of self-consistent calculation

 ------ SPIN UP ------------


          k = 0.0000 0.0000 0.0000 ( 87777 PWs)   bands (ev):

   -88.6971 -55.5851 -55.5847 -53.8703 -19.8886 -19.0536 -19.0536 -18.9675
   -18.9289 -18.9288 -18.5853 -17.1785 -17.1784 -17.1784 -17.1069 -17.1068
   -16.8014 -16.3322 -16.3321 -16.2306 -16.1786 -16.1785 -15.4872 -14.2343
   -14.2339 -14.1487 -14.1020 -14.1019 -13.4336 -13.1659 -13.1658 -13.1415
   -12.8615 -12.8614 -12.4524 -11.9448 -11.9447 -11.7565 -11.5091 -11.5090
   -10.6278  -9.7947  -9.7946  -9.5317  -9.4226  -9.4225  -9.3396  -9.3085
    -9.3085  -9.2957  -8.8295  -8.8294  -8.2864  -8.2863  -8.1978  -8.0364
    -7.9382  -7.5488  -7.5487  -7.3418  -7.2258  -7.2252  -7.0814  -7.0813
    -6.9482  -6.9242  -6.9239  -6.8133  -6.6707  -6.6705  -6.6403  -6.6276
    -6.6276  -6.5942  -6.5807  -6.2336  -5.7371  -5.7368  -5.6721  -5.6710
    -5.4824  -5.4823  -5.2769  -5.0931  -4.9830  -4.8457  -4.8196  -4.8193
    -4.5354  -4.5352  -4.5044  -4.3377  -4.3376  -3.9825  -3.9825  -3.8952
    -3.7867  -3.7867  -3.2102  -2.8980  -2.8977  -1.9784  -1.9086  -1.9084
    -1.3014  -1.3012  -1.0655  -0.8920   0.8186   0.8661   0.8667   1.3941
     1.3946   1.5045   2.3821   2.3841   2.5247   2.6610   2.6612   2.7608
     3.2943   3.2952   3.4219   3.6553   3.6835   3.7224   3.7271   3.7483

     occupation numbers 
     1.0000   1.0000   1.0000   1.0000   1.0000   1.0000   1.0000   1.0000
     1.0000   1.0000   1.0000   1.0000   1.0000   1.0000   1.0000   1.0000
     1.0000   1.0000   1.0000   1.0000   1.0000   1.0000   1.0000   1.0000
     1.0000   1.0000   1.0000   1.0000   1.0000   1.0000   1.0000   1.0000
     1.0000   1.0000   1.0000   1.0000   1.0000   1.0000   1.0000   1.0000
     1.0000   1.0000   1.0000   1.0000   1.0000   1.0000   1.0000   1.0000
     1.0000   1.0000   1.0000   1.0000   1.0000   1.0000   1.0000   1.0000
     1.0000   1.0000   1.0000   1.0000   1.0000   1.0000   1.0000   1.0000
     1.0000   1.0000   1.0000   1.0000   1.0000   1.0000   1.0000   1.0000
     1.0000   1.0000   1.0000   1.0000   1.0000   1.0000   1.0000   1.0000
     1.0000   1.0000   1.0000   1.0000   1.0000   1.0000   1.0000   1.0000
     1.0000   1.0000   1.0000   1.0000   1.0000   1.0000   1.0000   1.0000
     1.0000   1.0000   1.0000   1.0000   1.0000   1.0000   1.0000   1.0000
     1.0000   1.0000   1.0000   1.0000   0.0000   0.0000   0.0000   0.0000
     0.0000   0.0000   0.0000   0.0000   0.0000   0.0000   0.0000   0.0000
     0.0000   0.0000   0.0000   0.0000   0.0000   0.0000   0.0000   0.0000

 ------ SPIN DOWN ----------


          k = 0.0000 0.0000 0.0000 ( 87777 PWs)   bands (ev):

   -87.9738 -54.9952 -54.9947 -52.9741 -19.8467 -19.0072 -19.0072 -18.9278
   -18.9028 -18.9027 -18.5267 -17.1509 -17.1422 -17.1422 -17.0533 -17.0532
   -16.7714 -16.2867 -16.2866 -16.1968 -16.1355 -16.1355 -15.4628 -14.1636
   -14.1635 -14.0917 -14.0917 -14.0865 -13.4399 -13.1412 -13.1412 -13.1091
   -12.8425 -12.8424 -12.4220 -11.9074 -11.9072 -11.7338 -11.4872 -11.4872
   -10.6053  -9.7461  -9.7460  -9.5001  -9.3906  -9.3905  -9.3227  -9.2852
    -9.2852  -9.2779  -8.8171  -8.8170  -8.2510  -8.2509  -8.1782  -7.9391
    -7.9212  -7.5343  -7.5342  -7.3102  -7.0616  -7.0609  -7.0355  -7.0353
    -6.8650  -6.8647  -6.8481  -6.7981  -6.6542  -6.6541  -6.6298  -6.6141
    -6.6140  -6.5629  -6.4658  -6.2268  -5.6919  -5.6916  -5.4404  -5.4404
    -5.4379  -5.4370  -5.1977  -5.0795  -4.9733  -4.7710  -4.7274  -4.7271
    -4.4523  -4.4520  -4.4312  -4.2114  -4.2114  -3.8480  -3.8477  -3.7990
    -3.7721  -3.7720  -3.1668  -2.6668  -2.6666  -1.8807  -1.8806  -1.8175
    -0.9066  -0.8534  -0.7948  -0.7938   0.9137   0.9140   0.9757   1.5509
     1.5509   1.6267   2.5282   2.5317   2.5392   2.8018   2.8025   2.8346
     3.4521   3.4536   3.5136   3.6732   3.7004   3.7335   3.7350   3.7540

     occupation numbers 
     1.0000   1.0000   1.0000   1.0000   1.0000   1.0000   1.0000   1.0000
     1.0000   1.0000   1.0000   1.0000   1.0000   1.0000   1.0000   1.0000
     1.0000   1.0000   1.0000   1.0000   1.0000   1.0000   1.0000   1.0000
     1.0000   1.0000   1.0000   1.0000   1.0000   1.0000   1.0000   1.0000
     1.0000   1.0000   1.0000   1.0000   1.0000   1.0000   1.0000   1.0000
     1.0000   1.0000   1.0000   1.0000   1.0000   1.0000   1.0000   1.0000
     1.0000   1.0000   1.0000   1.0000   1.0000   1.0000   1.0000   1.0000
     1.0000   1.0000   1.0000   1.0000   1.0000   1.0000   1.0000   1.0000
     1.0000   1.0000   1.0000   1.0000   1.0000   1.0000   1.0000   1.0000
     1.0000   1.0000   1.0000   1.0000   1.0000   1.0000   1.0000   1.0000
     1.0000   1.0000   1.0000   1.0000   1.0000   1.0000   1.0000   1.0000
     1.0000   1.0000   1.0000   1.0000   1.0000   1.0000   1.0000   1.0000
     1.0000   1.0000   1.0000   1.0000   1.0000   1.0000   1.0000   1.0000
     1.0000   1.0000   0.0000   0.0000   0.0000   0.0000   0.0000   0.0000
     0.0000   0.0000   0.0000   0.0000   0.0000   0.0000   0.0000   0.0000
     0.0000   0.0000   0.0000   0.0000   0.0000   0.0000   0.0000   0.0000

     the Fermi energy is    -0.8409 ev

!    total energy              =    -860.05528059 Ry
     Harris-Foulkes estimate   =    -860.05527853 Ry
     estimated scf accuracy    <       0.00000095 Ry

     The total energy is the sum of the following terms:

     one-electron contribution =   -2784.59403276 Ry
     hartree contribution      =    1436.08220981 Ry
     xc contribution           =    -259.30145904 Ry
     ewald contribution        =     747.75791977 Ry
     smearing contrib. (-TS)   =       0.00008163 Ry

     total magnetization       =     2.00 Bohr mag/cell
     absolute magnetization    =     3.16 Bohr mag/cell

     convergence has been achieved in  51 iterations

     Writing output data file distance-3.5.save/

     init_run     :     67.62s CPU     68.81s WALL (       1 calls)
     electrons    :   4571.69s CPU   4663.16s WALL (       1 calls)

     Called by init_run:
     wfcinit      :     36.92s CPU     37.17s WALL (       1 calls)
     wfcinit:atom :      0.05s CPU      0.08s WALL (       2 calls)
     wfcinit:wfcr :     36.48s CPU     36.68s WALL (       2 calls)
     potinit      :     12.68s CPU     13.05s WALL (       1 calls)
     hinit0       :      9.73s CPU      9.76s WALL (       1 calls)

     Called by electrons:
     c_bands      :   2827.49s CPU   2843.37s WALL (      51 calls)
     sum_band     :    995.42s CPU   1025.40s WALL (      51 calls)
     v_of_rho     :    364.53s CPU    383.81s WALL (      52 calls)
     v_h          :      3.57s CPU      3.68s WALL (      52 calls)
     v_xc         :    360.95s CPU    380.12s WALL (      52 calls)
     newd         :    369.82s CPU    396.41s WALL (      52 calls)
     mix_rho      :     17.54s CPU     17.86s WALL (      51 calls)

     Called by c_bands:
     init_us_2    :      9.17s CPU      9.21s WALL (     206 calls)
     cegterg      :   2805.23s CPU   2820.98s WALL (     102 calls)

     Called by sum_band:
     sum_band:bec :      0.08s CPU      0.08s WALL (     102 calls)
     addusdens    :    641.20s CPU    668.88s WALL (      51 calls)

     Called by *egterg:
     h_psi        :   1446.84s CPU   1457.37s WALL (     393 calls)
     s_psi        :    474.46s CPU    474.74s WALL (     393 calls)
     g_psi        :      1.74s CPU      1.75s WALL (     289 calls)
     cdiaghg      :     26.14s CPU     26.16s WALL (     391 calls)
     cegterg:over :    363.20s CPU    363.40s WALL (     289 calls)
     cegterg:upda :    215.77s CPU    217.18s WALL (     289 calls)
     cegterg:last :    160.50s CPU    160.56s WALL (     102 calls)

     Called by h_psi:
     h_psi:pot    :   1445.03s CPU   1453.56s WALL (     393 calls)
     h_psi:calbec :    469.85s CPU    470.13s WALL (     393 calls)
     vloc_psi     :    501.86s CPU    509.90s WALL (     393 calls)
     add_vuspsi   :    473.32s CPU    473.52s WALL (     393 calls)

     General routines
     calbec       :    677.25s CPU    677.65s WALL (     495 calls)
     fft          :    203.17s CPU    210.44s WALL (    3894 calls)
     ffts         :      3.55s CPU      3.70s WALL (     206 calls)
     fftw         :    543.50s CPU    552.26s WALL (   72270 calls)
     interpolate  :      8.08s CPU      8.28s WALL (     104 calls)

     Parallel routines
     fft_scatt_xy :    135.19s CPU    136.88s WALL (   76370 calls)
     fft_scatt_yz :    246.28s CPU    257.59s WALL (   76370 calls)

     PWSCF        :      1h17m CPU      1h18m WALL


   This run was terminated on:   1:35:36  15Nov2022            

=------------------------------------------------------------------------------=
   JOB DONE.
=------------------------------------------------------------------------------=
