
     Program PWSCF v.6.4.1 starts on 16Nov2022 at  8:43:24 

     This program is part of the open-source Quantum ESPRESSO suite
     for quantum simulation of materials; please cite
         "P. Giannozzi et al., J. Phys.:Condens. Matter 21 395502 (2009);
         "P. Giannozzi et al., J. Phys.:Condens. Matter 29 465901 (2017);
          URL http://www.quantum-espresso.org", 
     in publications or presentations arising from this work. More details at
     http://www.quantum-espresso.org/quote

     Parallel version (MPI), running on     6 processors

     MPI processes distributed on     1 nodes
     R & G space division:  proc/nbgrp/npool/nimage =       6
     Reading input from distance-2.2.in

     Current dimensions of program PWSCF are:
     Max number of different atomic species (ntypx) = 10
     Max number of k-points (npk) =  40000
     Max angular momentum in pseudopotentials (lmaxx) =  3

     IMPORTANT: XC functional enforced from input :
     Exchange-correlation      = RVV10 ( 1  4 13  4 3 0)
     Any further DFT definition will be discarded
     Please, verify this is what you really want

               file H.pbe-rrkjus.UPF: wavefunction(s)  1S renormalized

     Subspace diagonalization in iterative solution of the eigenvalue problem:
     a serial algorithm will be used


     Parallelization info
     --------------------
     sticks:   dense  smooth     PW     G-vecs:    dense   smooth      PW
     Min        3051    1746    432               270999   117096   14629
     Max        3053    1747    437               271001   117099   14630
     Sum       18313   10477   2611              1626001   702581   87777



     bravais-lattice index     =            4
     lattice parameter (alat)  =      23.2937  a.u.
     unit-cell volume          =    8879.8548 (a.u.)^3
     number of atoms/cell      =           52
     number of atomic types    =            3
     number of electrons       =       214.00
     number of Kohn-Sham states=          128
     kinetic-energy cutoff     =      70.0000  Ry
     charge density cutoff     =     490.0000  Ry
     convergence threshold     =      1.0E-06
     mixing beta               =       0.3000
     number of iterations used =            4  plain     mixing
     Exchange-correlation      = RVV10 ( 1  4 13  4 3 0)

     celldm(1)=  23.293684  celldm(2)=   0.000000  celldm(3)=   0.811261
     celldm(4)=   0.000000  celldm(5)=   0.000000  celldm(6)=   0.000000

     crystal axes: (cart. coord. in units of alat)
               a(1) = (   1.000000   0.000000   0.000000 )  
               a(2) = (  -0.500000   0.866025   0.000000 )  
               a(3) = (   0.000000   0.000000   0.811261 )  

     reciprocal axes: (cart. coord. in units 2 pi/alat)
               b(1) = (  1.000000  0.577350 -0.000000 )  
               b(2) = (  0.000000  1.154701  0.000000 )  
               b(3) = (  0.000000 -0.000000  1.232649 )  


     PseudoPot. # 1 for H  read from file:
     /home/cristian/Escritorio/Proyecto_Grafeno/pseudopotenciales/H.pbe-rrkjus.UPF
     MD5 check sum: 7cc9d459525c9a0585f487a71c3c9563
     Pseudo is Ultrasoft, Zval =  1.0
     Generated by new atomic code, or converted to UPF format
     Using radial grid of 1061 points,  2 beta functions with: 
                l(1) =   0
                l(2) =   0
     Q(r) pseudized with 0 coefficients 


     PseudoPot. # 2 for C  read from file:
     /home/cristian/Escritorio/Proyecto_Grafeno/pseudopotenciales/C.pbe-n-rrkjus_psl.1.0.0.UPF
     MD5 check sum: 1fdd950c42eb37d8afe3dd2f8d12311e
     Pseudo is Ultrasoft + core correction, Zval =  4.0
     Generated using "atomic" code by A. Dal Corso v.6.3MaX
     Using radial grid of 1073 points,  4 beta functions with: 
                l(1) =   0
                l(2) =   0
                l(3) =   1
                l(4) =   1
     Q(r) pseudized with 0 coefficients 


     PseudoPot. # 3 for Fe read from file:
     /home/cristian/Escritorio/Proyecto_Grafeno/pseudopotenciales/Fe.pbe-spn-rrkjus_psl.1.0.0.UPF
     MD5 check sum: 72ea77fed8e64ab3a2ccf2804dfc1862
     Pseudo is Ultrasoft + core correction, Zval = 16.0
     Generated using "atomic" code by A. Dal Corso v.6.3
     Using radial grid of 1191 points,  6 beta functions with: 
                l(1) =   0
                l(2) =   0
                l(3) =   1
                l(4) =   1
                l(5) =   2
                l(6) =   2
     Q(r) pseudized with 0 coefficients 


     vdW kernel table read from file rVV10_kernel_table
     MD5 check sum: b8e2538accc0c0b3206b45ba4daaba6c

     atomic species   valence    mass     pseudopotential
        H              1.00     1.00794     H ( 1.00)
        C              4.00    12.01070     C ( 1.00)
        Fe            16.00    55.84500     Fe( 1.00)

     Starting magnetic structure 
     atomic species   magnetization
        H            0.500
        C            0.300
        Fe           0.800

      2 Sym. Ops. (no inversion) found


                                    s                        frac. trans.

      isym =  1     identity                                     

 cryst.   s( 1) = (     1          0          0      )
                  (     0          1          0      )
                  (     0          0          1      )

 cart.    s( 1) = (  1.0000000  0.0000000  0.0000000 )
                  (  0.0000000  1.0000000  0.0000000 )
                  (  0.0000000  0.0000000  1.0000000 )


      isym =  2     inv. 180 deg rotation - cryst. axis [1,1,0]  

 cryst.   s( 2) = (     0         -1          0      )
                  (    -1          0          0      )
                  (     0          0          1      )

 cart.    s( 2) = (  0.5000000 -0.8660254  0.0000000 )
                  ( -0.8660254 -0.5000000  0.0000000 )
                  (  0.0000000  0.0000000  1.0000000 )


     point group C_s (m)    
     there are  2 classes
     the character table:

       E     s    
A'     1.00  1.00
A''    1.00 -1.00

     the symmetry operations in each class and the name of the first element:

     E        1
          identity                                               
     s        2
          inv. 180 deg rotation - cryst. axis [1,1,0]            

   Cartesian axes

     site n.     atom                  positions (alat units)
         1           H   tau(   1) = (   0.2500000   0.4330127   0.1784775  )
         2           H   tau(   2) = (   0.2500000   0.4330127   0.2394901  )
         3           C   tau(   3) = (   0.0000000   0.0000000   0.0000000  )
         4           C   tau(   4) = (   0.0000000   0.1154701   0.0000000  )
         5           C   tau(   5) = (  -0.1000000   0.1732051   0.0000000  )
         6           C   tau(   6) = (  -0.1000000   0.2886751   0.0000000  )
         7           C   tau(   7) = (  -0.2000000   0.3464102   0.0000000  )
         8           C   tau(   8) = (  -0.2000000   0.4618802   0.0000000  )
         9           C   tau(   9) = (  -0.3000000   0.5196152   0.0000000  )
        10           C   tau(  10) = (  -0.3000000   0.6350853   0.0000000  )
        11           C   tau(  11) = (  -0.4000000   0.6928203   0.0000000  )
        12           C   tau(  12) = (  -0.4000000   0.8082904   0.0000000  )
        13           C   tau(  13) = (   0.2000000   0.0000000   0.0000000  )
        14           C   tau(  14) = (   0.2000000   0.1154701   0.0000000  )
        15           C   tau(  15) = (   0.1000000   0.1732051   0.0000000  )
        16           C   tau(  16) = (   0.1000000   0.2886751   0.0000000  )
        17           C   tau(  17) = (   0.0000000   0.3464102   0.0000000  )
        18           C   tau(  18) = (   0.0000000   0.4618802   0.0000000  )
        19           C   tau(  19) = (  -0.1000000   0.5196152   0.0000000  )
        20           C   tau(  20) = (  -0.1000000   0.6350853   0.0000000  )
        21           C   tau(  21) = (  -0.2000000   0.6928203   0.0000000  )
        22           C   tau(  22) = (  -0.2000000   0.8082904   0.0000000  )
        23           C   tau(  23) = (   0.4000000   0.0000000   0.0000000  )
        24           C   tau(  24) = (   0.4000000   0.1154701   0.0000000  )
        25           C   tau(  25) = (   0.3000000   0.1732051   0.0000000  )
        26           C   tau(  26) = (   0.3000000   0.2886751   0.0000000  )
        27           C   tau(  27) = (   0.2000000   0.3464102   0.0000000  )
        28           Fe  tau(  28) = (   0.2000000   0.4618802   0.0000000  )
        29           C   tau(  29) = (   0.1000000   0.5196152   0.0000000  )
        30           C   tau(  30) = (   0.1000000   0.6350853   0.0000000  )
        31           C   tau(  31) = (   0.0000000   0.6928203   0.0000000  )
        32           C   tau(  32) = (   0.0000000   0.8082904   0.0000000  )
        33           C   tau(  33) = (   0.6000000   0.0000000   0.0000000  )
        34           C   tau(  34) = (   0.6000000   0.1154701   0.0000000  )
        35           C   tau(  35) = (   0.5000000   0.1732051   0.0000000  )
        36           C   tau(  36) = (   0.5000000   0.2886751   0.0000000  )
        37           C   tau(  37) = (   0.4000000   0.3464102   0.0000000  )
        38           C   tau(  38) = (   0.4000000   0.4618802   0.0000000  )
        39           C   tau(  39) = (   0.3000000   0.5196152   0.0000000  )
        40           C   tau(  40) = (   0.3000000   0.6350853   0.0000000  )
        41           C   tau(  41) = (   0.2000000   0.6928203   0.0000000  )
        42           C   tau(  42) = (   0.2000000   0.8082904   0.0000000  )
        43           C   tau(  43) = (   0.8000000   0.0000000   0.0000000  )
        44           C   tau(  44) = (   0.8000000   0.1154701   0.0000000  )
        45           C   tau(  45) = (   0.7000000   0.1732051   0.0000000  )
        46           C   tau(  46) = (   0.7000000   0.2886751   0.0000000  )
        47           C   tau(  47) = (   0.6000000   0.3464102   0.0000000  )
        48           C   tau(  48) = (   0.6000000   0.4618802   0.0000000  )
        49           C   tau(  49) = (   0.5000000   0.5196152   0.0000000  )
        50           C   tau(  50) = (   0.5000000   0.6350853   0.0000000  )
        51           C   tau(  51) = (   0.4000000   0.6928203   0.0000000  )
        52           C   tau(  52) = (   0.4000000   0.8082904   0.0000000  )

   Crystallographic axes

     site n.     atom                  positions (cryst. coord.)
         1           H   tau(   1) = (  0.5000000  0.5000000  0.2200000  )
         2           H   tau(   2) = (  0.5000000  0.5000000  0.2952072  )
         3           C   tau(   3) = (  0.0000000  0.0000000  0.0000000  )
         4           C   tau(   4) = (  0.0666667  0.1333333  0.0000000  )
         5           C   tau(   5) = (  0.0000000  0.2000000  0.0000000  )
         6           C   tau(   6) = (  0.0666667  0.3333333  0.0000000  )
         7           C   tau(   7) = (  0.0000000  0.4000000  0.0000000  )
         8           C   tau(   8) = (  0.0666667  0.5333333  0.0000000  )
         9           C   tau(   9) = (  0.0000000  0.6000000  0.0000000  )
        10           C   tau(  10) = (  0.0666667  0.7333333  0.0000000  )
        11           C   tau(  11) = (  0.0000000  0.8000000  0.0000000  )
        12           C   tau(  12) = (  0.0666667  0.9333333  0.0000000  )
        13           C   tau(  13) = (  0.2000000  0.0000000  0.0000000  )
        14           C   tau(  14) = (  0.2666667  0.1333333  0.0000000  )
        15           C   tau(  15) = (  0.2000000  0.2000000  0.0000000  )
        16           C   tau(  16) = (  0.2666667  0.3333333  0.0000000  )
        17           C   tau(  17) = (  0.2000000  0.4000000  0.0000000  )
        18           C   tau(  18) = (  0.2666667  0.5333333  0.0000000  )
        19           C   tau(  19) = (  0.2000000  0.6000000  0.0000000  )
        20           C   tau(  20) = (  0.2666667  0.7333333  0.0000000  )
        21           C   tau(  21) = (  0.2000000  0.8000000  0.0000000  )
        22           C   tau(  22) = (  0.2666667  0.9333333  0.0000000  )
        23           C   tau(  23) = (  0.4000000  0.0000000  0.0000000  )
        24           C   tau(  24) = (  0.4666667  0.1333333  0.0000000  )
        25           C   tau(  25) = (  0.4000000  0.2000000  0.0000000  )
        26           C   tau(  26) = (  0.4666667  0.3333333  0.0000000  )
        27           C   tau(  27) = (  0.4000000  0.4000000  0.0000000  )
        28           Fe  tau(  28) = (  0.4666667  0.5333333  0.0000000  )
        29           C   tau(  29) = (  0.4000000  0.6000000  0.0000000  )
        30           C   tau(  30) = (  0.4666667  0.7333333  0.0000000  )
        31           C   tau(  31) = (  0.4000000  0.8000000  0.0000000  )
        32           C   tau(  32) = (  0.4666667  0.9333333  0.0000000  )
        33           C   tau(  33) = (  0.6000000  0.0000000  0.0000000  )
        34           C   tau(  34) = (  0.6666667  0.1333333  0.0000000  )
        35           C   tau(  35) = (  0.6000000  0.2000000  0.0000000  )
        36           C   tau(  36) = (  0.6666667  0.3333333  0.0000000  )
        37           C   tau(  37) = (  0.6000000  0.4000000  0.0000000  )
        38           C   tau(  38) = (  0.6666667  0.5333333  0.0000000  )
        39           C   tau(  39) = (  0.6000000  0.6000000  0.0000000  )
        40           C   tau(  40) = (  0.6666667  0.7333333  0.0000000  )
        41           C   tau(  41) = (  0.6000000  0.8000000  0.0000000  )
        42           C   tau(  42) = (  0.6666667  0.9333333  0.0000000  )
        43           C   tau(  43) = (  0.8000000  0.0000000  0.0000000  )
        44           C   tau(  44) = (  0.8666667  0.1333333  0.0000000  )
        45           C   tau(  45) = (  0.8000000  0.2000000  0.0000000  )
        46           C   tau(  46) = (  0.8666667  0.3333333  0.0000000  )
        47           C   tau(  47) = (  0.8000000  0.4000000  0.0000000  )
        48           C   tau(  48) = (  0.8666667  0.5333333  0.0000000  )
        49           C   tau(  49) = (  0.8000000  0.6000000  0.0000000  )
        50           C   tau(  50) = (  0.8666667  0.7333333  0.0000000  )
        51           C   tau(  51) = (  0.8000000  0.8000000  0.0000000  )
        52           C   tau(  52) = (  0.8666667  0.9333333  0.0000000  )

     number of k points=     1  Marzari-Vanderbilt smearing, width (Ry)=  0.0010
                       cart. coord. in units 2pi/alat
        k(    1) = (   0.0000000   0.0000000   0.0000000), wk =   1.0000000

                       cryst. coord.
        k(    1) = (   0.0000000   0.0000000   0.0000000), wk =   1.0000000

     Dense  grid:  1626001 G-vectors     FFT dimensions: ( 180, 180, 135)

     Smooth grid:   702581 G-vectors     FFT dimensions: ( 125, 125, 108)

     Dynamical RAM for                 wfc:      28.59 MB

     Dynamical RAM for     wfc (w. buffer):      85.76 MB

     Dynamical RAM for           str. fact:      12.41 MB

     Dynamical RAM for           local pot:       0.00 MB

     Dynamical RAM for          nlocal pot:      92.46 MB

     Dynamical RAM for                qrad:      19.73 MB

     Dynamical RAM for          rho,v,vnew:      58.92 MB

     Dynamical RAM for               rhoin:      19.64 MB

     Dynamical RAM for            rho*nmix:      66.16 MB

     Dynamical RAM for           G-vectors:      16.40 MB

     Dynamical RAM for          h,s,v(r/c):      12.00 MB

     Dynamical RAM for          <psi|beta>:       0.81 MB

     Dynamical RAM for                 psi:     114.35 MB

     Dynamical RAM for                hpsi:     114.35 MB

     Dynamical RAM for                spsi:     114.35 MB

     Dynamical RAM for      wfcinit/wfcrot:      93.90 MB

     Dynamical RAM for           addusdens:     975.89 MB

     Estimated static dynamical RAM per process >     422.14 MB

     Estimated max dynamical RAM per process >       1.37 GB

     Estimated total dynamical RAM >       8.19 GB
     Generating pointlists ...
     new r_m :   0.0252 (alat units)  0.5862 (a.u.) for type    1
     new r_m :   0.0476 (alat units)  1.1095 (a.u.) for type    2
     new r_m :   0.0476 (alat units)  1.1095 (a.u.) for type    3

     Check: negative core charge=   -0.000002

     Initial potential from superposition of free atoms

     starting charge  213.80512, renormalised to  214.00000

     negative rho (up, down):  6.501E-05 1.240E-02


---------------------------------------------------------------------------------
Carrying out rVV10 run using the following parameters:
Nqs =      20    Nr_points =    1024   r_max =   100.000
b_value =  6.30000    beta =  0.00901
     q_mesh =  0.00010000  0.00030000  0.00058939  0.00100810
               0.00161396  0.00249058  0.00375900  0.00559430
               0.00824984  0.01209221  0.01765183  0.02569619
               0.03733578  0.05417739  0.07854596  0.11380545
               0.16482331  0.23864234  0.34545298  0.50000000

Gradients computed in Reciprocal space

---------------------------------------------------------------------------------


     Starting wfcs are  208 randomized atomic wfcs

     total cpu time spent up to now is       72.1 secs

     Self-consistent Calculation

     iteration #  1     ecut=    70.00 Ry     beta= 0.30
     Davidson diagonalization with overlap
     ethr =  1.00E-02,  avg # of iterations =  2.5

     negative rho (up, down):  8.438E-05 1.227E-02

     total cpu time spent up to now is      196.0 secs

     total energy              =    -857.94185182 Ry
     Harris-Foulkes estimate   =    -858.66772262 Ry
     estimated scf accuracy    <      10.52801156 Ry

     total magnetization       =     6.00 Bohr mag/cell
     absolute magnetization    =     6.63 Bohr mag/cell

     iteration #  2     ecut=    70.00 Ry     beta= 0.30
     Davidson diagonalization with overlap
     ethr =  4.92E-03,  avg # of iterations =  2.0

     negative rho (up, down):  1.148E-04 1.317E-02

     total cpu time spent up to now is      285.2 secs

     total energy              =    -858.34792923 Ry
     Harris-Foulkes estimate   =    -858.71440048 Ry
     estimated scf accuracy    <       5.43093043 Ry

     total magnetization       =     4.00 Bohr mag/cell
     absolute magnetization    =     5.61 Bohr mag/cell

     iteration #  3     ecut=    70.00 Ry     beta= 0.30
     Davidson diagonalization with overlap
     ethr =  2.54E-03,  avg # of iterations =  3.0

     negative rho (up, down):  2.074E-04 2.430E-02

     total cpu time spent up to now is      376.8 secs

     total energy              =    -858.63236574 Ry
     Harris-Foulkes estimate   =    -859.48962055 Ry
     estimated scf accuracy    <       9.13051684 Ry

     total magnetization       =     6.00 Bohr mag/cell
     absolute magnetization    =     6.19 Bohr mag/cell

     iteration #  4     ecut=    70.00 Ry     beta= 0.30
     Davidson diagonalization with overlap
     ethr =  2.54E-03,  avg # of iterations =  5.5

     negative rho (up, down):  2.715E-04 3.632E-02

     total cpu time spent up to now is      468.8 secs

     total energy              =    -859.81029317 Ry
     Harris-Foulkes estimate   =    -859.59344978 Ry
     estimated scf accuracy    <       1.04024558 Ry

     total magnetization       =     2.00 Bohr mag/cell
     absolute magnetization    =     3.55 Bohr mag/cell

     iteration #  5     ecut=    70.00 Ry     beta= 0.30
     Davidson diagonalization with overlap
     ethr =  4.86E-04,  avg # of iterations =  8.0

     negative rho (up, down):  3.257E-04 4.273E-02

     total cpu time spent up to now is      565.2 secs

     total energy              =    -859.96633673 Ry
     Harris-Foulkes estimate   =    -859.91780822 Ry
     estimated scf accuracy    <       0.43612455 Ry

     total magnetization       =     2.00 Bohr mag/cell
     absolute magnetization    =     3.00 Bohr mag/cell

     iteration #  6     ecut=    70.00 Ry     beta= 0.30
     Davidson diagonalization with overlap
     ethr =  2.04E-04,  avg # of iterations =  8.0

     negative rho (up, down):  4.247E-04 5.862E-02

     total cpu time spent up to now is      659.9 secs

     total energy              =    -860.01467167 Ry
     Harris-Foulkes estimate   =    -860.00096945 Ry
     estimated scf accuracy    <       0.14804367 Ry

     total magnetization       =     2.00 Bohr mag/cell
     absolute magnetization    =     2.86 Bohr mag/cell

     iteration #  7     ecut=    70.00 Ry     beta= 0.30
     Davidson diagonalization with overlap
     ethr =  6.92E-05,  avg # of iterations =  2.5

     negative rho (up, down):  2.280E-03 9.982E-02

     total cpu time spent up to now is      749.8 secs

     total energy              =    -860.03339345 Ry
     Harris-Foulkes estimate   =    -860.03540101 Ry
     estimated scf accuracy    <       0.13919809 Ry

     total magnetization       =     2.00 Bohr mag/cell
     absolute magnetization    =     2.73 Bohr mag/cell

     iteration #  8     ecut=    70.00 Ry     beta= 0.30
     Davidson diagonalization with overlap
     ethr =  6.50E-05,  avg # of iterations =  6.5

     negative rho (up, down):  1.890E-03 8.374E-02

     total cpu time spent up to now is      842.1 secs

     total energy              =    -860.03774155 Ry
     Harris-Foulkes estimate   =    -860.04074844 Ry
     estimated scf accuracy    <       0.04900510 Ry

     total magnetization       =     2.09 Bohr mag/cell
     absolute magnetization    =     2.65 Bohr mag/cell

     iteration #  9     ecut=    70.00 Ry     beta= 0.30
     Davidson diagonalization with overlap
     ethr =  2.29E-05,  avg # of iterations =  8.0

     negative rho (up, down):  2.169E-03 7.810E-02

     total cpu time spent up to now is      936.9 secs

     total energy              =    -860.04075856 Ry
     Harris-Foulkes estimate   =    -860.04058597 Ry
     estimated scf accuracy    <       0.02025897 Ry

     total magnetization       =     2.04 Bohr mag/cell
     absolute magnetization    =     2.52 Bohr mag/cell

     iteration # 10     ecut=    70.00 Ry     beta= 0.30
     Davidson diagonalization with overlap
     ethr =  9.47E-06,  avg # of iterations =  2.5

     negative rho (up, down):  1.919E-03 7.315E-02

     total cpu time spent up to now is     1028.6 secs

     total energy              =    -860.04269759 Ry
     Harris-Foulkes estimate   =    -860.04288895 Ry
     estimated scf accuracy    <       0.02736789 Ry

     total magnetization       =     2.00 Bohr mag/cell
     absolute magnetization    =     2.60 Bohr mag/cell

     iteration # 11     ecut=    70.00 Ry     beta= 0.30
     Davidson diagonalization with overlap
     ethr =  9.47E-06,  avg # of iterations =  2.0

     negative rho (up, down):  1.541E-03 7.038E-02

     total cpu time spent up to now is     1118.1 secs

     total energy              =    -860.04588247 Ry
     Harris-Foulkes estimate   =    -860.04442981 Ry
     estimated scf accuracy    <       0.02216839 Ry

     total magnetization       =     2.05 Bohr mag/cell
     absolute magnetization    =     2.58 Bohr mag/cell

     iteration # 12     ecut=    70.00 Ry     beta= 0.30
     Davidson diagonalization with overlap
     ethr =  9.47E-06,  avg # of iterations =  2.0

     negative rho (up, down):  1.601E-03 1.034E-01

     total cpu time spent up to now is     1207.7 secs

     total energy              =    -860.04532343 Ry
     Harris-Foulkes estimate   =    -860.04625228 Ry
     estimated scf accuracy    <       0.01414345 Ry

     total magnetization       =     2.14 Bohr mag/cell
     absolute magnetization    =     2.62 Bohr mag/cell

     iteration # 13     ecut=    70.00 Ry     beta= 0.30
     Davidson diagonalization with overlap
     ethr =  6.61E-06,  avg # of iterations =  2.0

     negative rho (up, down):  1.593E-03 1.230E-01

     total cpu time spent up to now is     1296.9 secs

     total energy              =    -860.04440361 Ry
     Harris-Foulkes estimate   =    -860.04540246 Ry
     estimated scf accuracy    <       0.01585509 Ry

     total magnetization       =     2.16 Bohr mag/cell
     absolute magnetization    =     2.62 Bohr mag/cell

     iteration # 14     ecut=    70.00 Ry     beta= 0.30
     Davidson diagonalization with overlap
     ethr =  6.61E-06,  avg # of iterations =  1.5

     negative rho (up, down):  1.599E-03 1.292E-01

     total cpu time spent up to now is     1386.1 secs

     total energy              =    -860.04417406 Ry
     Harris-Foulkes estimate   =    -860.04461256 Ry
     estimated scf accuracy    <       0.02715255 Ry

     total magnetization       =     2.09 Bohr mag/cell
     absolute magnetization    =     2.58 Bohr mag/cell

     iteration # 15     ecut=    70.00 Ry     beta= 0.30
     Davidson diagonalization with overlap
     ethr =  6.61E-06,  avg # of iterations =  2.5

     negative rho (up, down):  6.004E-04 6.325E-02

     total cpu time spent up to now is     1475.4 secs

     total energy              =    -860.04654434 Ry
     Harris-Foulkes estimate   =    -860.04426672 Ry
     estimated scf accuracy    <       0.01972144 Ry

     total magnetization       =     2.02 Bohr mag/cell
     absolute magnetization    =     2.56 Bohr mag/cell

     iteration # 16     ecut=    70.00 Ry     beta= 0.30
     Davidson diagonalization with overlap
     ethr =  6.61E-06,  avg # of iterations =  6.5

     negative rho (up, down):  6.834E-04 1.191E-01

     total cpu time spent up to now is     1583.1 secs

     total energy              =    -860.04670451 Ry
     Harris-Foulkes estimate   =    -860.05172229 Ry
     estimated scf accuracy    <       0.03614774 Ry

     total magnetization       =     2.00 Bohr mag/cell
     absolute magnetization    =     2.64 Bohr mag/cell

     iteration # 17     ecut=    70.00 Ry     beta= 0.30
     Davidson diagonalization with overlap
     ethr =  6.61E-06,  avg # of iterations =  6.0

     negative rho (up, down):  9.659E-04 1.478E-01

     total cpu time spent up to now is     1678.2 secs

     total energy              =    -860.04640664 Ry
     Harris-Foulkes estimate   =    -860.04821411 Ry
     estimated scf accuracy    <       0.01084786 Ry

     total magnetization       =     2.00 Bohr mag/cell
     absolute magnetization    =     2.64 Bohr mag/cell

     iteration # 18     ecut=    70.00 Ry     beta= 0.30
     Davidson diagonalization with overlap
     ethr =  5.07E-06,  avg # of iterations =  2.5

     negative rho (up, down):  2.136E-03 1.747E-01

     total cpu time spent up to now is     1769.7 secs

     total energy              =    -860.04029507 Ry
     Harris-Foulkes estimate   =    -860.04674066 Ry
     estimated scf accuracy    <       0.01133286 Ry

     total magnetization       =     2.00 Bohr mag/cell
     absolute magnetization    =     2.63 Bohr mag/cell

     iteration # 19     ecut=    70.00 Ry     beta= 0.30
     Davidson diagonalization with overlap
     ethr =  5.07E-06,  avg # of iterations =  9.0

     negative rho (up, down):  1.877E-03 1.631E-01

     total cpu time spent up to now is     1876.4 secs

     total energy              =    -860.04328340 Ry
     Harris-Foulkes estimate   =    -860.04287188 Ry
     estimated scf accuracy    <       0.01376473 Ry

     total magnetization       =     2.01 Bohr mag/cell
     absolute magnetization    =     2.50 Bohr mag/cell

     iteration # 20     ecut=    70.00 Ry     beta= 0.30
     Davidson diagonalization with overlap
     ethr =  5.07E-06,  avg # of iterations =  2.0

     negative rho (up, down):  1.864E-03 1.492E-01

     total cpu time spent up to now is     1967.0 secs

     total energy              =    -860.04338807 Ry
     Harris-Foulkes estimate   =    -860.04369610 Ry
     estimated scf accuracy    <       0.01679084 Ry

     total magnetization       =     2.00 Bohr mag/cell
     absolute magnetization    =     2.46 Bohr mag/cell

     iteration # 21     ecut=    70.00 Ry     beta= 0.30
     Davidson diagonalization with overlap
     ethr =  5.07E-06,  avg # of iterations =  1.5

     negative rho (up, down):  7.720E-04 1.259E-01

     total cpu time spent up to now is     2056.2 secs

     total energy              =    -860.04387540 Ry
     Harris-Foulkes estimate   =    -860.04376156 Ry
     estimated scf accuracy    <       0.00669514 Ry

     total magnetization       =     2.00 Bohr mag/cell
     absolute magnetization    =     2.45 Bohr mag/cell

     iteration # 22     ecut=    70.00 Ry     beta= 0.30
     Davidson diagonalization with overlap
     ethr =  3.13E-06,  avg # of iterations =  4.0

     negative rho (up, down):  1.097E-03 1.210E-01

     total cpu time spent up to now is     2165.9 secs

     total energy              =    -860.04450689 Ry
     Harris-Foulkes estimate   =    -860.04707035 Ry
     estimated scf accuracy    <       0.02570105 Ry

     total magnetization       =     2.00 Bohr mag/cell
     absolute magnetization    =     2.45 Bohr mag/cell

     iteration # 23     ecut=    70.00 Ry     beta= 0.30
     Davidson diagonalization with overlap
     ethr =  3.13E-06,  avg # of iterations =  3.0

     negative rho (up, down):  1.205E-03 1.200E-01

     total cpu time spent up to now is     2260.8 secs

     total energy              =    -860.04303197 Ry
     Harris-Foulkes estimate   =    -860.04559544 Ry
     estimated scf accuracy    <       0.00409012 Ry

     total magnetization       =     2.00 Bohr mag/cell
     absolute magnetization    =     2.44 Bohr mag/cell

     iteration # 24     ecut=    70.00 Ry     beta= 0.30
     Davidson diagonalization with overlap
     ethr =  1.91E-06,  avg # of iterations =  2.5

     negative rho (up, down):  1.038E-03 9.019E-02

     total cpu time spent up to now is     2364.1 secs

     total energy              =    -860.04499752 Ry
     Harris-Foulkes estimate   =    -860.04449736 Ry
     estimated scf accuracy    <       0.00542105 Ry

     total magnetization       =     2.00 Bohr mag/cell
     absolute magnetization    =     2.39 Bohr mag/cell

     iteration # 25     ecut=    70.00 Ry     beta= 0.30
     Davidson diagonalization with overlap
     ethr =  1.91E-06,  avg # of iterations =  2.0

     negative rho (up, down):  8.650E-04 8.092E-02

     total cpu time spent up to now is     2458.8 secs

     total energy              =    -860.04599043 Ry
     Harris-Foulkes estimate   =    -860.04541974 Ry
     estimated scf accuracy    <       0.00582676 Ry

     total magnetization       =     2.00 Bohr mag/cell
     absolute magnetization    =     2.47 Bohr mag/cell

     iteration # 26     ecut=    70.00 Ry     beta= 0.30
     Davidson diagonalization with overlap
     ethr =  1.91E-06,  avg # of iterations =  2.5

     negative rho (up, down):  8.522E-04 8.408E-02

     total cpu time spent up to now is     2551.7 secs

     total energy              =    -860.04621669 Ry
     Harris-Foulkes estimate   =    -860.04612067 Ry
     estimated scf accuracy    <       0.00627843 Ry

     total magnetization       =     2.00 Bohr mag/cell
     absolute magnetization    =     2.48 Bohr mag/cell

     iteration # 27     ecut=    70.00 Ry     beta= 0.30
     Davidson diagonalization with overlap
     ethr =  1.91E-06,  avg # of iterations =  1.0

     negative rho (up, down):  7.247E-04 8.128E-02

     total cpu time spent up to now is     2641.0 secs

     total energy              =    -860.04638970 Ry
     Harris-Foulkes estimate   =    -860.04627528 Ry
     estimated scf accuracy    <       0.00673693 Ry

     total magnetization       =     2.00 Bohr mag/cell
     absolute magnetization    =     2.48 Bohr mag/cell

     iteration # 28     ecut=    70.00 Ry     beta= 0.30
     Davidson diagonalization with overlap
     ethr =  1.91E-06,  avg # of iterations =  2.5

     negative rho (up, down):  1.011E-03 1.180E-01

     total cpu time spent up to now is     2733.1 secs

     total energy              =    -860.04431106 Ry
     Harris-Foulkes estimate   =    -860.04678474 Ry
     estimated scf accuracy    <       0.01655925 Ry

     total magnetization       =     2.00 Bohr mag/cell
     absolute magnetization    =     2.47 Bohr mag/cell

     iteration # 29     ecut=    70.00 Ry     beta= 0.30
     Davidson diagonalization with overlap
     ethr =  1.91E-06,  avg # of iterations =  2.5

     negative rho (up, down):  1.446E-03 1.396E-01

     total cpu time spent up to now is     2835.4 secs

     total energy              =    -860.04245357 Ry
     Harris-Foulkes estimate   =    -860.04525757 Ry
     estimated scf accuracy    <       0.00592351 Ry

     total magnetization       =     2.00 Bohr mag/cell
     absolute magnetization    =     2.43 Bohr mag/cell

     iteration # 30     ecut=    70.00 Ry     beta= 0.30
     Davidson diagonalization with overlap
     ethr =  1.91E-06,  avg # of iterations =  3.0

     negative rho (up, down):  9.414E-04 9.606E-02

     total cpu time spent up to now is     2940.0 secs

     total energy              =    -860.04382194 Ry
     Harris-Foulkes estimate   =    -860.04425262 Ry
     estimated scf accuracy    <       0.01899087 Ry

     total magnetization       =     2.00 Bohr mag/cell
     absolute magnetization    =     2.34 Bohr mag/cell

     iteration # 31     ecut=    70.00 Ry     beta= 0.30
     Davidson diagonalization with overlap
     ethr =  1.91E-06,  avg # of iterations =  2.5

     negative rho (up, down):  8.430E-04 8.212E-02

     total cpu time spent up to now is     3039.0 secs

     total energy              =    -860.04507234 Ry
     Harris-Foulkes estimate   =    -860.04498085 Ry
     estimated scf accuracy    <       0.00542590 Ry

     total magnetization       =     2.00 Bohr mag/cell
     absolute magnetization    =     2.39 Bohr mag/cell

     iteration # 32     ecut=    70.00 Ry     beta= 0.30
     Davidson diagonalization with overlap
     ethr =  1.91E-06,  avg # of iterations =  1.0

     negative rho (up, down):  8.076E-04 7.290E-02

     total cpu time spent up to now is     3127.7 secs

     total energy              =    -860.04511465 Ry
     Harris-Foulkes estimate   =    -860.04518729 Ry
     estimated scf accuracy    <       0.00487444 Ry

     total magnetization       =     2.00 Bohr mag/cell
     absolute magnetization    =     2.39 Bohr mag/cell

     iteration # 33     ecut=    70.00 Ry     beta= 0.30
     Davidson diagonalization with overlap
     ethr =  1.91E-06,  avg # of iterations =  1.0

     negative rho (up, down):  7.111E-04 8.658E-02

     total cpu time spent up to now is     3216.7 secs

     total energy              =    -860.04482643 Ry
     Harris-Foulkes estimate   =    -860.04522567 Ry
     estimated scf accuracy    <       0.00566500 Ry

     total magnetization       =     2.00 Bohr mag/cell
     absolute magnetization    =     2.38 Bohr mag/cell

     iteration # 34     ecut=    70.00 Ry     beta= 0.30
     Davidson diagonalization with overlap
     ethr =  1.91E-06,  avg # of iterations =  2.5

     negative rho (up, down):  7.256E-04 5.560E-02

     total cpu time spent up to now is     3317.9 secs

     total energy              =    -860.04560523 Ry
     Harris-Foulkes estimate   =    -860.04573263 Ry
     estimated scf accuracy    <       0.00269945 Ry

     total magnetization       =     2.00 Bohr mag/cell
     absolute magnetization    =     2.35 Bohr mag/cell

     iteration # 35     ecut=    70.00 Ry     beta= 0.30
     Davidson diagonalization with overlap
     ethr =  1.26E-06,  avg # of iterations =  1.0

     negative rho (up, down):  7.155E-04 5.113E-02

     total cpu time spent up to now is     3406.7 secs

     total energy              =    -860.04594395 Ry
     Harris-Foulkes estimate   =    -860.04568072 Ry
     estimated scf accuracy    <       0.00168424 Ry

     total magnetization       =     2.00 Bohr mag/cell
     absolute magnetization    =     2.35 Bohr mag/cell

     iteration # 36     ecut=    70.00 Ry     beta= 0.30
     Davidson diagonalization with overlap
     ethr =  7.87E-07,  avg # of iterations =  2.5

     negative rho (up, down):  7.324E-04 6.000E-02

     total cpu time spent up to now is     3506.3 secs

     total energy              =    -860.04457670 Ry
     Harris-Foulkes estimate   =    -860.04644514 Ry
     estimated scf accuracy    <       0.00858210 Ry

     total magnetization       =     2.00 Bohr mag/cell
     absolute magnetization    =     2.33 Bohr mag/cell

     iteration # 37     ecut=    70.00 Ry     beta= 0.30
     Davidson diagonalization with overlap
     ethr =  7.87E-07,  avg # of iterations =  2.5

     negative rho (up, down):  7.013E-04 4.359E-02

     total cpu time spent up to now is     3610.8 secs

     total energy              =    -860.04577457 Ry
     Harris-Foulkes estimate   =    -860.04554955 Ry
     estimated scf accuracy    <       0.00317706 Ry

     total magnetization       =     2.00 Bohr mag/cell
     absolute magnetization    =     2.36 Bohr mag/cell

     iteration # 38     ecut=    70.00 Ry     beta= 0.30
     Davidson diagonalization with overlap
     ethr =  7.87E-07,  avg # of iterations =  2.0

     negative rho (up, down):  6.815E-04 4.098E-02

     total cpu time spent up to now is     3706.1 secs

     total energy              =    -860.04612935 Ry
     Harris-Foulkes estimate   =    -860.04595749 Ry
     estimated scf accuracy    <       0.00284175 Ry

     total magnetization       =     2.00 Bohr mag/cell
     absolute magnetization    =     2.36 Bohr mag/cell

     iteration # 39     ecut=    70.00 Ry     beta= 0.30
     Davidson diagonalization with overlap
     ethr =  7.87E-07,  avg # of iterations =  2.0

     negative rho (up, down):  7.435E-04 9.661E-02

     total cpu time spent up to now is     3797.2 secs

     total energy              =    -860.04465491 Ry
     Harris-Foulkes estimate   =    -860.04621652 Ry
     estimated scf accuracy    <       0.00328325 Ry

     total magnetization       =     2.00 Bohr mag/cell
     absolute magnetization    =     2.36 Bohr mag/cell

     iteration # 40     ecut=    70.00 Ry     beta= 0.30
     Davidson diagonalization with overlap
     ethr =  7.87E-07,  avg # of iterations =  2.5

     negative rho (up, down):  7.463E-04 1.037E-01

     total cpu time spent up to now is     3903.6 secs

     total energy              =    -860.04508432 Ry
     Harris-Foulkes estimate   =    -860.04557773 Ry
     estimated scf accuracy    <       0.00082196 Ry

     total magnetization       =     2.00 Bohr mag/cell
     absolute magnetization    =     2.37 Bohr mag/cell

     iteration # 41     ecut=    70.00 Ry     beta= 0.30
     Davidson diagonalization with overlap
     ethr =  3.84E-07,  avg # of iterations =  2.0

     negative rho (up, down):  7.746E-04 9.276E-02

     total cpu time spent up to now is     4003.9 secs

     total energy              =    -860.04512526 Ry
     Harris-Foulkes estimate   =    -860.04529992 Ry
     estimated scf accuracy    <       0.00069415 Ry

     total magnetization       =     2.00 Bohr mag/cell
     absolute magnetization    =     2.38 Bohr mag/cell

     iteration # 42     ecut=    70.00 Ry     beta= 0.30
     Davidson diagonalization with overlap
     ethr =  3.24E-07,  avg # of iterations =  2.0

     negative rho (up, down):  7.098E-04 5.234E-02

     total cpu time spent up to now is     4096.3 secs

     total energy              =    -860.04539763 Ry
     Harris-Foulkes estimate   =    -860.04517793 Ry
     estimated scf accuracy    <       0.00122715 Ry

     total magnetization       =     2.00 Bohr mag/cell
     absolute magnetization    =     2.37 Bohr mag/cell

     iteration # 43     ecut=    70.00 Ry     beta= 0.30
     Davidson diagonalization with overlap
     ethr =  3.24E-07,  avg # of iterations =  2.0

     negative rho (up, down):  7.443E-04 7.347E-02

     total cpu time spent up to now is     4198.6 secs

     total energy              =    -860.04497820 Ry
     Harris-Foulkes estimate   =    -860.04570289 Ry
     estimated scf accuracy    <       0.00107319 Ry

     total magnetization       =     2.00 Bohr mag/cell
     absolute magnetization    =     2.39 Bohr mag/cell

     iteration # 44     ecut=    70.00 Ry     beta= 0.30
     Davidson diagonalization with overlap
     ethr =  3.24E-07,  avg # of iterations =  2.0

     negative rho (up, down):  7.494E-04 7.105E-02

     total cpu time spent up to now is     4300.5 secs

     total energy              =    -860.04516646 Ry
     Harris-Foulkes estimate   =    -860.04527030 Ry
     estimated scf accuracy    <       0.00109005 Ry

     total magnetization       =     2.00 Bohr mag/cell
     absolute magnetization    =     2.37 Bohr mag/cell

     iteration # 45     ecut=    70.00 Ry     beta= 0.30
     Davidson diagonalization with overlap
     ethr =  3.24E-07,  avg # of iterations =  2.0

     negative rho (up, down):  7.532E-04 7.614E-02

     total cpu time spent up to now is     4391.8 secs

     total energy              =    -860.04492230 Ry
     Harris-Foulkes estimate   =    -860.04520450 Ry
     estimated scf accuracy    <       0.00090065 Ry

     total magnetization       =     2.00 Bohr mag/cell
     absolute magnetization    =     2.37 Bohr mag/cell

     iteration # 46     ecut=    70.00 Ry     beta= 0.30
     Davidson diagonalization with overlap
     ethr =  3.24E-07,  avg # of iterations =  2.0

     negative rho (up, down):  6.932E-04 6.151E-02

     total cpu time spent up to now is     4496.4 secs

     total energy              =    -860.04525881 Ry
     Harris-Foulkes estimate   =    -860.04530027 Ry
     estimated scf accuracy    <       0.00055093 Ry

     total magnetization       =     2.00 Bohr mag/cell
     absolute magnetization    =     2.37 Bohr mag/cell

     iteration # 47     ecut=    70.00 Ry     beta= 0.30
     Davidson diagonalization with overlap
     ethr =  2.57E-07,  avg # of iterations =  2.0

     negative rho (up, down):  6.849E-04 4.057E-02

     total cpu time spent up to now is     4595.6 secs

     total energy              =    -860.04543482 Ry
     Harris-Foulkes estimate   =    -860.04537726 Ry
     estimated scf accuracy    <       0.00059180 Ry

     total magnetization       =     2.00 Bohr mag/cell
     absolute magnetization    =     2.39 Bohr mag/cell

     iteration # 48     ecut=    70.00 Ry     beta= 0.30
     Davidson diagonalization with overlap
     ethr =  2.57E-07,  avg # of iterations =  2.0

     negative rho (up, down):  6.903E-04 3.690E-02

     total cpu time spent up to now is     4695.3 secs

     total energy              =    -860.04555628 Ry
     Harris-Foulkes estimate   =    -860.04558540 Ry
     estimated scf accuracy    <       0.00169912 Ry

     total magnetization       =     2.00 Bohr mag/cell
     absolute magnetization    =     2.42 Bohr mag/cell

     iteration # 49     ecut=    70.00 Ry     beta= 0.30
     Davidson diagonalization with overlap
     ethr =  2.57E-07,  avg # of iterations =  1.0

     negative rho (up, down):  7.047E-04 5.955E-02

     total cpu time spent up to now is     4784.2 secs

     total energy              =    -860.04502984 Ry
     Harris-Foulkes estimate   =    -860.04556894 Ry
     estimated scf accuracy    <       0.00076389 Ry

     total magnetization       =     2.00 Bohr mag/cell
     absolute magnetization    =     2.40 Bohr mag/cell

     iteration # 50     ecut=    70.00 Ry     beta= 0.30
     Davidson diagonalization with overlap
     ethr =  2.57E-07,  avg # of iterations =  2.0

     negative rho (up, down):  7.096E-04 5.140E-02

     total cpu time spent up to now is     4887.9 secs

     total energy              =    -860.04530629 Ry
     Harris-Foulkes estimate   =    -860.04533341 Ry
     estimated scf accuracy    <       0.00095372 Ry

     total magnetization       =     2.00 Bohr mag/cell
     absolute magnetization    =     2.40 Bohr mag/cell

     iteration # 51     ecut=    70.00 Ry     beta= 0.30
     Davidson diagonalization with overlap
     ethr =  2.57E-07,  avg # of iterations =  2.0

     negative rho (up, down):  6.733E-04 4.156E-02

     total cpu time spent up to now is     4977.6 secs

     total energy              =    -860.04514673 Ry
     Harris-Foulkes estimate   =    -860.04531473 Ry
     estimated scf accuracy    <       0.00094446 Ry

     total magnetization       =     2.00 Bohr mag/cell
     absolute magnetization    =     2.40 Bohr mag/cell

     iteration # 52     ecut=    70.00 Ry     beta= 0.30
     Davidson diagonalization with overlap
     ethr =  2.57E-07,  avg # of iterations =  2.5

     negative rho (up, down):  6.576E-04 3.612E-02

     total cpu time spent up to now is     5082.7 secs

     total energy              =    -860.04512560 Ry
     Harris-Foulkes estimate   =    -860.04554235 Ry
     estimated scf accuracy    <       0.00059764 Ry

     total magnetization       =     2.00 Bohr mag/cell
     absolute magnetization    =     2.36 Bohr mag/cell

     iteration # 53     ecut=    70.00 Ry     beta= 0.30
     Davidson diagonalization with overlap
     ethr =  2.57E-07,  avg # of iterations =  2.5

     negative rho (up, down):  6.386E-04 4.468E-02

     total cpu time spent up to now is     5186.4 secs

     total energy              =    -860.04534531 Ry
     Harris-Foulkes estimate   =    -860.04548720 Ry
     estimated scf accuracy    <       0.00119467 Ry

     total magnetization       =     2.00 Bohr mag/cell
     absolute magnetization    =     2.40 Bohr mag/cell

     iteration # 54     ecut=    70.00 Ry     beta= 0.30
     Davidson diagonalization with overlap
     ethr =  2.57E-07,  avg # of iterations =  2.0

     negative rho (up, down):  6.177E-04 2.230E-02

     total cpu time spent up to now is     5286.8 secs

     total energy              =    -860.04549559 Ry
     Harris-Foulkes estimate   =    -860.04549866 Ry
     estimated scf accuracy    <       0.00078404 Ry

     total magnetization       =     2.00 Bohr mag/cell
     absolute magnetization    =     2.38 Bohr mag/cell

     iteration # 55     ecut=    70.00 Ry     beta= 0.30
     Davidson diagonalization with overlap
     ethr =  2.57E-07,  avg # of iterations =  2.0

     negative rho (up, down):  6.196E-04 2.373E-02

     total cpu time spent up to now is     5381.3 secs

     total energy              =    -860.04552051 Ry
     Harris-Foulkes estimate   =    -860.04556266 Ry
     estimated scf accuracy    <       0.00013772 Ry

     total magnetization       =     2.00 Bohr mag/cell
     absolute magnetization    =     2.37 Bohr mag/cell

     iteration # 56     ecut=    70.00 Ry     beta= 0.30
     Davidson diagonalization with overlap
     ethr =  6.44E-08,  avg # of iterations =  2.0

     negative rho (up, down):  6.192E-04 1.703E-02

     total cpu time spent up to now is     5485.3 secs

     total energy              =    -860.04561898 Ry
     Harris-Foulkes estimate   =    -860.04560781 Ry
     estimated scf accuracy    <       0.00072786 Ry

     total magnetization       =     2.00 Bohr mag/cell
     absolute magnetization    =     2.38 Bohr mag/cell

     iteration # 57     ecut=    70.00 Ry     beta= 0.30
     Davidson diagonalization with overlap
     ethr =  6.44E-08,  avg # of iterations =  2.0

     negative rho (up, down):  6.178E-04 2.026E-02

     total cpu time spent up to now is     5577.2 secs

     total energy              =    -860.04561108 Ry
     Harris-Foulkes estimate   =    -860.04562742 Ry
     estimated scf accuracy    <       0.00063580 Ry

     total magnetization       =     2.00 Bohr mag/cell
     absolute magnetization    =     2.39 Bohr mag/cell

     iteration # 58     ecut=    70.00 Ry     beta= 0.30
     Davidson diagonalization with overlap
     ethr =  6.44E-08,  avg # of iterations =  3.0

     negative rho (up, down):  6.227E-04 2.831E-02

     total cpu time spent up to now is     5675.1 secs

     total energy              =    -860.04555072 Ry
     Harris-Foulkes estimate   =    -860.04563372 Ry
     estimated scf accuracy    <       0.00032316 Ry

     total magnetization       =     2.00 Bohr mag/cell
     absolute magnetization    =     2.39 Bohr mag/cell

     iteration # 59     ecut=    70.00 Ry     beta= 0.30
     Davidson diagonalization with overlap
     ethr =  6.44E-08,  avg # of iterations =  2.0

     negative rho (up, down):  6.199E-04 2.377E-02

     total cpu time spent up to now is     5776.3 secs

     total energy              =    -860.04560186 Ry
     Harris-Foulkes estimate   =    -860.04560458 Ry
     estimated scf accuracy    <       0.00032244 Ry

     total magnetization       =     2.00 Bohr mag/cell
     absolute magnetization    =     2.40 Bohr mag/cell

     iteration # 60     ecut=    70.00 Ry     beta= 0.30
     Davidson diagonalization with overlap
     ethr =  6.44E-08,  avg # of iterations =  1.0

     negative rho (up, down):  6.272E-04 2.994E-02

     total cpu time spent up to now is     5865.1 secs

     total energy              =    -860.04555169 Ry
     Harris-Foulkes estimate   =    -860.04560283 Ry
     estimated scf accuracy    <       0.00031260 Ry

     total magnetization       =     2.00 Bohr mag/cell
     absolute magnetization    =     2.40 Bohr mag/cell

     iteration # 61     ecut=    70.00 Ry     beta= 0.30
     Davidson diagonalization with overlap
     ethr =  6.44E-08,  avg # of iterations =  3.0

     negative rho (up, down):  6.231E-04 1.637E-02

     total cpu time spent up to now is     5973.0 secs

     total energy              =    -860.04551629 Ry
     Harris-Foulkes estimate   =    -860.04566194 Ry
     estimated scf accuracy    <       0.00065619 Ry

     total magnetization       =     2.00 Bohr mag/cell
     absolute magnetization    =     2.39 Bohr mag/cell

     iteration # 62     ecut=    70.00 Ry     beta= 0.30
     Davidson diagonalization with overlap
     ethr =  6.44E-08,  avg # of iterations =  3.0

     negative rho (up, down):  6.225E-04 1.717E-02

     total cpu time spent up to now is     6078.6 secs

     total energy              =    -860.04561361 Ry
     Harris-Foulkes estimate   =    -860.04563245 Ry
     estimated scf accuracy    <       0.00016882 Ry

     total magnetization       =     2.00 Bohr mag/cell
     absolute magnetization    =     2.40 Bohr mag/cell

     iteration # 63     ecut=    70.00 Ry     beta= 0.30
     Davidson diagonalization with overlap
     ethr =  6.44E-08,  avg # of iterations =  2.0

     negative rho (up, down):  6.258E-04 1.726E-02

     total cpu time spent up to now is     6171.3 secs

     total energy              =    -860.04562969 Ry
     Harris-Foulkes estimate   =    -860.04562395 Ry
     estimated scf accuracy    <       0.00024325 Ry

     total magnetization       =     2.00 Bohr mag/cell
     absolute magnetization    =     2.40 Bohr mag/cell

     iteration # 64     ecut=    70.00 Ry     beta= 0.30
     Davidson diagonalization with overlap
     ethr =  6.44E-08,  avg # of iterations =  1.0

     negative rho (up, down):  6.287E-04 1.712E-02

     total cpu time spent up to now is     6260.2 secs

     total energy              =    -860.04563575 Ry
     Harris-Foulkes estimate   =    -860.04563085 Ry
     estimated scf accuracy    <       0.00028388 Ry

     total magnetization       =     2.00 Bohr mag/cell
     absolute magnetization    =     2.40 Bohr mag/cell

     iteration # 65     ecut=    70.00 Ry     beta= 0.30
     Davidson diagonalization with overlap
     ethr =  6.44E-08,  avg # of iterations =  1.0

     negative rho (up, down):  6.320E-04 1.820E-02

     total cpu time spent up to now is     6348.9 secs

     total energy              =    -860.04563416 Ry
     Harris-Foulkes estimate   =    -860.04563658 Ry
     estimated scf accuracy    <       0.00024576 Ry

     total magnetization       =     2.00 Bohr mag/cell
     absolute magnetization    =     2.41 Bohr mag/cell

     iteration # 66     ecut=    70.00 Ry     beta= 0.30
     Davidson diagonalization with overlap
     ethr =  6.44E-08,  avg # of iterations =  1.0

     negative rho (up, down):  6.362E-04 2.165E-02

     total cpu time spent up to now is     6437.6 secs

     total energy              =    -860.04560992 Ry
     Harris-Foulkes estimate   =    -860.04563579 Ry
     estimated scf accuracy    <       0.00021095 Ry

     total magnetization       =     2.00 Bohr mag/cell
     absolute magnetization    =     2.41 Bohr mag/cell

     iteration # 67     ecut=    70.00 Ry     beta= 0.30
     Davidson diagonalization with overlap
     ethr =  6.44E-08,  avg # of iterations =  2.5

     negative rho (up, down):  6.327E-04 1.732E-02

     total cpu time spent up to now is     6543.2 secs

     total energy              =    -860.04565791 Ry
     Harris-Foulkes estimate   =    -860.04568397 Ry
     estimated scf accuracy    <       0.00009634 Ry

     total magnetization       =     2.00 Bohr mag/cell
     absolute magnetization    =     2.43 Bohr mag/cell

     iteration # 68     ecut=    70.00 Ry     beta= 0.30
     Davidson diagonalization with overlap
     ethr =  4.50E-08,  avg # of iterations =  2.0

     negative rho (up, down):  6.490E-04 2.833E-02

     total cpu time spent up to now is     6635.6 secs

     total energy              =    -860.04554688 Ry
     Harris-Foulkes estimate   =    -860.04566670 Ry
     estimated scf accuracy    <       0.00007090 Ry

     total magnetization       =     2.00 Bohr mag/cell
     absolute magnetization    =     2.42 Bohr mag/cell

     iteration # 69     ecut=    70.00 Ry     beta= 0.30
     Davidson diagonalization with overlap
     ethr =  3.31E-08,  avg # of iterations =  3.5

     negative rho (up, down):  6.392E-04 2.567E-02

     total cpu time spent up to now is     6757.6 secs

     total energy              =    -860.04562610 Ry
     Harris-Foulkes estimate   =    -860.04564430 Ry
     estimated scf accuracy    <       0.00015577 Ry

     total magnetization       =     2.00 Bohr mag/cell
     absolute magnetization    =     2.43 Bohr mag/cell

     iteration # 70     ecut=    70.00 Ry     beta= 0.30
     Davidson diagonalization with overlap
     ethr =  3.31E-08,  avg # of iterations =  2.5

     negative rho (up, down):  6.381E-04 2.087E-02

     total cpu time spent up to now is     6852.5 secs

     total energy              =    -860.04564001 Ry
     Harris-Foulkes estimate   =    -860.04563904 Ry
     estimated scf accuracy    <       0.00002386 Ry

     total magnetization       =     2.00 Bohr mag/cell
     absolute magnetization    =     2.43 Bohr mag/cell

     iteration # 71     ecut=    70.00 Ry     beta= 0.30
     Davidson diagonalization with overlap
     ethr =  1.11E-08,  avg # of iterations =  2.0

     negative rho (up, down):  6.380E-04 1.959E-02

     total cpu time spent up to now is     6942.4 secs

     total energy              =    -860.04564557 Ry
     Harris-Foulkes estimate   =    -860.04564083 Ry
     estimated scf accuracy    <       0.00002992 Ry

     total magnetization       =     2.00 Bohr mag/cell
     absolute magnetization    =     2.43 Bohr mag/cell

     iteration # 72     ecut=    70.00 Ry     beta= 0.30
     Davidson diagonalization with overlap
     ethr =  1.11E-08,  avg # of iterations =  2.0

     negative rho (up, down):  6.395E-04 1.892E-02

     total cpu time spent up to now is     7034.3 secs

     total energy              =    -860.04564505 Ry
     Harris-Foulkes estimate   =    -860.04564825 Ry
     estimated scf accuracy    <       0.00006048 Ry

     total magnetization       =     2.00 Bohr mag/cell
     absolute magnetization    =     2.45 Bohr mag/cell

     iteration # 73     ecut=    70.00 Ry     beta= 0.30
     Davidson diagonalization with overlap
     ethr =  1.11E-08,  avg # of iterations =  2.5

     negative rho (up, down):  6.380E-04 1.649E-02

     total cpu time spent up to now is     7139.3 secs

     total energy              =    -860.04564845 Ry
     Harris-Foulkes estimate   =    -860.04565257 Ry
     estimated scf accuracy    <       0.00006770 Ry

     total magnetization       =     2.00 Bohr mag/cell
     absolute magnetization    =     2.46 Bohr mag/cell

     iteration # 74     ecut=    70.00 Ry     beta= 0.30
     Davidson diagonalization with overlap
     ethr =  1.11E-08,  avg # of iterations =  2.0

     negative rho (up, down):  6.347E-04 1.664E-02

     total cpu time spent up to now is     7233.2 secs

     total energy              =    -860.04565117 Ry
     Harris-Foulkes estimate   =    -860.04565252 Ry
     estimated scf accuracy    <       0.00003362 Ry

     total magnetization       =     2.00 Bohr mag/cell
     absolute magnetization    =     2.46 Bohr mag/cell

     iteration # 75     ecut=    70.00 Ry     beta= 0.30
     Davidson diagonalization with overlap
     ethr =  1.11E-08,  avg # of iterations =  2.5

     negative rho (up, down):  6.334E-04 1.621E-02

     total cpu time spent up to now is     7342.3 secs

     total energy              =    -860.04566241 Ry
     Harris-Foulkes estimate   =    -860.04566249 Ry
     estimated scf accuracy    <       0.00002694 Ry

     total magnetization       =     2.00 Bohr mag/cell
     absolute magnetization    =     2.47 Bohr mag/cell

     iteration # 76     ecut=    70.00 Ry     beta= 0.30
     Davidson diagonalization with overlap
     ethr =  1.11E-08,  avg # of iterations =  2.0

     negative rho (up, down):  6.336E-04 1.594E-02

     total cpu time spent up to now is     7431.8 secs

     total energy              =    -860.04566403 Ry
     Harris-Foulkes estimate   =    -860.04566291 Ry
     estimated scf accuracy    <       0.00002111 Ry

     total magnetization       =     2.00 Bohr mag/cell
     absolute magnetization    =     2.47 Bohr mag/cell

     iteration # 77     ecut=    70.00 Ry     beta= 0.30
     Davidson diagonalization with overlap
     ethr =  9.86E-09,  avg # of iterations =  2.5

     negative rho (up, down):  6.334E-04 1.648E-02

     total cpu time spent up to now is     7532.9 secs

     total energy              =    -860.04566541 Ry
     Harris-Foulkes estimate   =    -860.04567017 Ry
     estimated scf accuracy    <       0.00002711 Ry

     total magnetization       =     2.00 Bohr mag/cell
     absolute magnetization    =     2.49 Bohr mag/cell

     iteration # 78     ecut=    70.00 Ry     beta= 0.30
     Davidson diagonalization with overlap
     ethr =  9.86E-09,  avg # of iterations =  2.0

     negative rho (up, down):  6.332E-04 1.666E-02

     total cpu time spent up to now is     7626.7 secs

     total energy              =    -860.04566214 Ry
     Harris-Foulkes estimate   =    -860.04566743 Ry
     estimated scf accuracy    <       0.00001382 Ry

     total magnetization       =     2.00 Bohr mag/cell
     absolute magnetization    =     2.49 Bohr mag/cell

     iteration # 79     ecut=    70.00 Ry     beta= 0.30
     Davidson diagonalization with overlap
     ethr =  6.46E-09,  avg # of iterations =  2.5

     negative rho (up, down):  6.312E-04 1.563E-02

     total cpu time spent up to now is     7720.6 secs

     total energy              =    -860.04566732 Ry
     Harris-Foulkes estimate   =    -860.04566421 Ry
     estimated scf accuracy    <       0.00002056 Ry

     total magnetization       =     2.00 Bohr mag/cell
     absolute magnetization    =     2.49 Bohr mag/cell

     iteration # 80     ecut=    70.00 Ry     beta= 0.30
     Davidson diagonalization with overlap
     ethr =  6.46E-09,  avg # of iterations =  2.5

     negative rho (up, down):  6.319E-04 1.580E-02

     total cpu time spent up to now is     7828.0 secs

     total energy              =    -860.04567050 Ry
     Harris-Foulkes estimate   =    -860.04567435 Ry
     estimated scf accuracy    <       0.00001185 Ry

     total magnetization       =     2.00 Bohr mag/cell
     absolute magnetization    =     2.50 Bohr mag/cell

     iteration # 81     ecut=    70.00 Ry     beta= 0.30
     Davidson diagonalization with overlap
     ethr =  5.54E-09,  avg # of iterations =  2.0

     negative rho (up, down):  6.330E-04 1.679E-02

     total cpu time spent up to now is     7918.6 secs

     total energy              =    -860.04565106 Ry
     Harris-Foulkes estimate   =    -860.04567110 Ry
     estimated scf accuracy    <       0.00001142 Ry

     total magnetization       =     2.00 Bohr mag/cell
     absolute magnetization    =     2.49 Bohr mag/cell

     iteration # 82     ecut=    70.00 Ry     beta= 0.30
     Davidson diagonalization with overlap
     ethr =  5.34E-09,  avg # of iterations =  3.0

     negative rho (up, down):  6.313E-04 1.606E-02

     total cpu time spent up to now is     8036.7 secs

     total energy              =    -860.04566729 Ry
     Harris-Foulkes estimate   =    -860.04566246 Ry
     estimated scf accuracy    <       0.00000847 Ry

     total magnetization       =     2.00 Bohr mag/cell
     absolute magnetization    =     2.47 Bohr mag/cell

     iteration # 83     ecut=    70.00 Ry     beta= 0.30
     Davidson diagonalization with overlap
     ethr =  3.96E-09,  avg # of iterations =  2.0

     negative rho (up, down):  6.303E-04 1.608E-02

     total cpu time spent up to now is     8129.8 secs

     total energy              =    -860.04567034 Ry
     Harris-Foulkes estimate   =    -860.04566836 Ry
     estimated scf accuracy    <       0.00000830 Ry

     total magnetization       =     2.00 Bohr mag/cell
     absolute magnetization    =     2.47 Bohr mag/cell

     iteration # 84     ecut=    70.00 Ry     beta= 0.30
     Davidson diagonalization with overlap
     ethr =  3.88E-09,  avg # of iterations =  2.5

     negative rho (up, down):  6.304E-04 1.623E-02

     total cpu time spent up to now is     8228.7 secs

     total energy              =    -860.04567306 Ry
     Harris-Foulkes estimate   =    -860.04567370 Ry
     estimated scf accuracy    <       0.00003920 Ry

     total magnetization       =     2.00 Bohr mag/cell
     absolute magnetization    =     2.48 Bohr mag/cell

     iteration # 85     ecut=    70.00 Ry     beta= 0.30
     Davidson diagonalization with overlap
     ethr =  3.88E-09,  avg # of iterations =  2.0

     negative rho (up, down):  6.326E-04 1.788E-02

     total cpu time spent up to now is     8319.3 secs

     total energy              =    -860.04565708 Ry
     Harris-Foulkes estimate   =    -860.04567424 Ry
     estimated scf accuracy    <       0.00002013 Ry

     total magnetization       =     2.00 Bohr mag/cell
     absolute magnetization    =     2.49 Bohr mag/cell

     iteration # 86     ecut=    70.00 Ry     beta= 0.30
     Davidson diagonalization with overlap
     ethr =  3.88E-09,  avg # of iterations =  3.0

     negative rho (up, down):  6.344E-04 1.961E-02

     total cpu time spent up to now is     8434.7 secs

     total energy              =    -860.04563559 Ry
     Harris-Foulkes estimate   =    -860.04566258 Ry
     estimated scf accuracy    <       0.00003176 Ry

     total magnetization       =     2.00 Bohr mag/cell
     absolute magnetization    =     2.47 Bohr mag/cell

     iteration # 87     ecut=    70.00 Ry     beta= 0.30
     Davidson diagonalization with overlap
     ethr =  3.88E-09,  avg # of iterations =  3.0

     negative rho (up, down):  6.338E-04 1.847E-02

     total cpu time spent up to now is     8559.3 secs

     total energy              =    -860.04564730 Ry
     Harris-Foulkes estimate   =    -860.04564613 Ry
     estimated scf accuracy    <       0.00003205 Ry

     total magnetization       =     2.00 Bohr mag/cell
     absolute magnetization    =     2.44 Bohr mag/cell

     iteration # 88     ecut=    70.00 Ry     beta= 0.30
     Davidson diagonalization with overlap
     ethr =  3.88E-09,  avg # of iterations =  1.0

     negative rho (up, down):  6.300E-04 1.701E-02

     total cpu time spent up to now is     8648.0 secs

     total energy              =    -860.04564543 Ry
     Harris-Foulkes estimate   =    -860.04564733 Ry
     estimated scf accuracy    <       0.00003204 Ry

     total magnetization       =     2.00 Bohr mag/cell
     absolute magnetization    =     2.44 Bohr mag/cell

     iteration # 89     ecut=    70.00 Ry     beta= 0.30
     Davidson diagonalization with overlap
     ethr =  3.88E-09,  avg # of iterations =  3.0

     negative rho (up, down):  6.297E-04 1.656E-02

     total cpu time spent up to now is     8755.6 secs

     total energy              =    -860.04565775 Ry
     Harris-Foulkes estimate   =    -860.04565941 Ry
     estimated scf accuracy    <       0.00006624 Ry

     total magnetization       =     2.00 Bohr mag/cell
     absolute magnetization    =     2.45 Bohr mag/cell

     iteration # 90     ecut=    70.00 Ry     beta= 0.30
     Davidson diagonalization with overlap
     ethr =  3.88E-09,  avg # of iterations =  1.0

     negative rho (up, down):  6.298E-04 1.680E-02

     total cpu time spent up to now is     8844.3 secs

     total energy              =    -860.04563870 Ry
     Harris-Foulkes estimate   =    -860.04565793 Ry
     estimated scf accuracy    <       0.00006252 Ry

     total magnetization       =     2.00 Bohr mag/cell
     absolute magnetization    =     2.44 Bohr mag/cell

     iteration # 91     ecut=    70.00 Ry     beta= 0.30
     Davidson diagonalization with overlap
     ethr =  3.88E-09,  avg # of iterations =  3.0

     negative rho (up, down):  6.312E-04 1.825E-02

     total cpu time spent up to now is     8964.2 secs

     total energy              =    -860.04563813 Ry
     Harris-Foulkes estimate   =    -860.04564940 Ry
     estimated scf accuracy    <       0.00001866 Ry

     total magnetization       =     2.00 Bohr mag/cell
     absolute magnetization    =     2.41 Bohr mag/cell

     iteration # 92     ecut=    70.00 Ry     beta= 0.30
     Davidson diagonalization with overlap
     ethr =  3.88E-09,  avg # of iterations =  3.5

     negative rho (up, down):  6.307E-04 1.809E-02

     total cpu time spent up to now is     9097.5 secs

     total energy              =    -860.04565864 Ry
     Harris-Foulkes estimate   =    -860.04566587 Ry
     estimated scf accuracy    <       0.00001982 Ry

     total magnetization       =     2.00 Bohr mag/cell
     absolute magnetization    =     2.46 Bohr mag/cell

     iteration # 93     ecut=    70.00 Ry     beta= 0.30
     Davidson diagonalization with overlap
     ethr =  3.88E-09,  avg # of iterations =  2.5

     negative rho (up, down):  6.296E-04 1.749E-02

     total cpu time spent up to now is     9195.9 secs

     total energy              =    -860.04566357 Ry
     Harris-Foulkes estimate   =    -860.04566010 Ry
     estimated scf accuracy    <       0.00002120 Ry

     total magnetization       =     2.00 Bohr mag/cell
     absolute magnetization    =     2.45 Bohr mag/cell

     iteration # 94     ecut=    70.00 Ry     beta= 0.30
     Davidson diagonalization with overlap
     ethr =  3.88E-09,  avg # of iterations =  2.0

     negative rho (up, down):  6.298E-04 1.924E-02

     total cpu time spent up to now is     9294.4 secs

     total energy              =    -860.04561648 Ry
     Harris-Foulkes estimate   =    -860.04566814 Ry
     estimated scf accuracy    <       0.00009004 Ry

     total magnetization       =     2.00 Bohr mag/cell
     absolute magnetization    =     2.45 Bohr mag/cell

     iteration # 95     ecut=    70.00 Ry     beta= 0.30
     Davidson diagonalization with overlap
     ethr =  3.88E-09,  avg # of iterations =  3.5

     negative rho (up, down):  6.292E-04 1.871E-02

     total cpu time spent up to now is     9428.0 secs

     total energy              =    -860.04564394 Ry
     Harris-Foulkes estimate   =    -860.04564388 Ry
     estimated scf accuracy    <       0.00006151 Ry

     total magnetization       =     2.00 Bohr mag/cell
     absolute magnetization    =     2.41 Bohr mag/cell

     iteration # 96     ecut=    70.00 Ry     beta= 0.30
     Davidson diagonalization with overlap
     ethr =  3.88E-09,  avg # of iterations =  3.5

     negative rho (up, down):  6.370E-04 2.546E-02

     total cpu time spent up to now is     9556.7 secs

     total energy              =    -860.04539097 Ry
     Harris-Foulkes estimate   =    -860.04565898 Ry
     estimated scf accuracy    <       0.00005068 Ry

     total magnetization       =     2.00 Bohr mag/cell
     absolute magnetization    =     2.45 Bohr mag/cell

     iteration # 97     ecut=    70.00 Ry     beta= 0.30
     Davidson diagonalization with overlap
     ethr =  3.88E-09,  avg # of iterations =  4.5

     negative rho (up, down):  6.335E-04 2.052E-02

     total cpu time spent up to now is     9722.9 secs

     total energy              =    -860.04568856 Ry
     Harris-Foulkes estimate   =    -860.04568393 Ry
     estimated scf accuracy    <       0.00003808 Ry

     total magnetization       =     2.00 Bohr mag/cell
     absolute magnetization    =     2.62 Bohr mag/cell

     iteration # 98     ecut=    70.00 Ry     beta= 0.30
     Davidson diagonalization with overlap
     ethr =  3.88E-09,  avg # of iterations =  2.0

     negative rho (up, down):  6.309E-04 1.823E-02

     total cpu time spent up to now is     9819.4 secs

     total energy              =    -860.04569244 Ry
     Harris-Foulkes estimate   =    -860.04568966 Ry
     estimated scf accuracy    <       0.00004133 Ry

     total magnetization       =     2.00 Bohr mag/cell
     absolute magnetization    =     2.63 Bohr mag/cell

     iteration # 99     ecut=    70.00 Ry     beta= 0.30
     Davidson diagonalization with overlap
     ethr =  3.88E-09,  avg # of iterations =  2.0

     negative rho (up, down):  6.296E-04 1.740E-02

     total cpu time spent up to now is     9920.5 secs

     total energy              =    -860.04568118 Ry
     Harris-Foulkes estimate   =    -860.04569512 Ry
     estimated scf accuracy    <       0.00002802 Ry

     total magnetization       =     2.00 Bohr mag/cell
     absolute magnetization    =     2.63 Bohr mag/cell

     iteration #100     ecut=    70.00 Ry     beta= 0.30
     Davidson diagonalization with overlap
     ethr =  3.88E-09,  avg # of iterations =  3.5

     negative rho (up, down):  6.303E-04 1.819E-02

     Magnetic moment per site:
     atom:    1    charge:    0.2114    magn:   -0.0001    constr:    0.0000
     atom:    2    charge:    0.2133    magn:    0.0053    constr:    0.0000
     atom:    3    charge:    1.7159    magn:   -0.0062    constr:    0.0000
     atom:    4    charge:    1.7159    magn:    0.0089    constr:    0.0000
     atom:    5    charge:    1.7170    magn:   -0.0020    constr:    0.0000
     atom:    6    charge:    1.7144    magn:    0.0028    constr:    0.0000
     atom:    7    charge:    1.7175    magn:   -0.0039    constr:    0.0000
     atom:    8    charge:    1.7152    magn:    0.0140    constr:    0.0000
     atom:    9    charge:    1.7166    magn:   -0.0067    constr:    0.0000
     atom:   10    charge:    1.7155    magn:    0.0475    constr:    0.0000
     atom:   11    charge:    1.7164    magn:   -0.0104    constr:    0.0000
     atom:   12    charge:    1.7180    magn:    0.0280    constr:    0.0000
     atom:   13    charge:    1.7164    magn:   -0.0104    constr:    0.0000
     atom:   14    charge:    1.7164    magn:    0.0344    constr:    0.0000
     atom:   15    charge:    1.7131    magn:   -0.0072    constr:    0.0000
     atom:   16    charge:    1.7140    magn:    0.0304    constr:    0.0000
     atom:   17    charge:    1.7211    magn:   -0.0008    constr:    0.0000
     atom:   18    charge:    1.7132    magn:    0.0335    constr:    0.0000
     atom:   19    charge:    1.7130    magn:   -0.0069    constr:    0.0000
     atom:   20    charge:    1.7173    magn:    0.0257    constr:    0.0000
     atom:   21    charge:    1.7169    magn:   -0.0119    constr:    0.0000
     atom:   22    charge:    1.7155    magn:    0.0475    constr:    0.0000
     atom:   23    charge:    1.7166    magn:   -0.0067    constr:    0.0000
     atom:   24    charge:    1.7158    magn:    0.0111    constr:    0.0000
     atom:   25    charge:    1.7133    magn:   -0.0075    constr:    0.0000
     atom:   26    charge:    1.7125    magn:    0.0458    constr:    0.0000
     atom:   27    charge:    1.8521    magn:   -0.0061    constr:    0.0000
     atom:   28    charge:   11.1559    magn:    0.4956    constr:    0.0000
     atom:   29    charge:    1.8512    magn:   -0.0133    constr:    0.0000
     atom:   30    charge:    1.7132    magn:    0.0335    constr:    0.0000
     atom:   31    charge:    1.7130    magn:   -0.0069    constr:    0.0000
     atom:   32    charge:    1.7152    magn:    0.0140    constr:    0.0000
     atom:   33    charge:    1.7175    magn:   -0.0039    constr:    0.0000
     atom:   34    charge:    1.7146    magn:    0.0083    constr:    0.0000
     atom:   35    charge:    1.7171    magn:   -0.0028    constr:    0.0000
     atom:   36    charge:    1.7146    magn:    0.0021    constr:    0.0000
     atom:   37    charge:    1.7216    magn:   -0.0018    constr:    0.0000
     atom:   38    charge:    1.7125    magn:    0.0458    constr:    0.0000
     atom:   39    charge:    1.8521    magn:   -0.0061    constr:    0.0000
     atom:   40    charge:    1.7140    magn:    0.0304    constr:    0.0000
     atom:   41    charge:    1.7211    magn:   -0.0008    constr:    0.0000
     atom:   42    charge:    1.7144    magn:    0.0028    constr:    0.0000
     atom:   43    charge:    1.7170    magn:   -0.0020    constr:    0.0000
     atom:   44    charge:    1.7151    magn:    0.0043    constr:    0.0000
     atom:   45    charge:    1.7218    magn:    0.0070    constr:    0.0000
     atom:   46    charge:    1.7146    magn:    0.0083    constr:    0.0000
     atom:   47    charge:    1.7171    magn:   -0.0028    constr:    0.0000
     atom:   48    charge:    1.7158    magn:    0.0111    constr:    0.0000
     atom:   49    charge:    1.7133    magn:   -0.0075    constr:    0.0000
     atom:   50    charge:    1.7164    magn:    0.0344    constr:    0.0000
     atom:   51    charge:    1.7131    magn:   -0.0072    constr:    0.0000
     atom:   52    charge:    1.7159    magn:    0.0089    constr:    0.0000

     total cpu time spent up to now is    10046.8 secs

     total energy              =    -860.04567090 Ry
     Harris-Foulkes estimate   =    -860.04569281 Ry
     estimated scf accuracy    <       0.00000813 Ry

     total magnetization       =     2.00 Bohr mag/cell
     absolute magnetization    =     2.60 Bohr mag/cell

     iteration #101     ecut=    70.00 Ry     beta= 0.30
     Davidson diagonalization with overlap
     ethr =  3.80E-09,  avg # of iterations =  3.5

     negative rho (up, down):  6.304E-04 1.871E-02

     total cpu time spent up to now is    10173.3 secs

     total energy              =    -860.04567953 Ry
     Harris-Foulkes estimate   =    -860.04568526 Ry
     estimated scf accuracy    <       0.00002598 Ry

     total magnetization       =     2.00 Bohr mag/cell
     absolute magnetization    =     2.56 Bohr mag/cell

     iteration #102     ecut=    70.00 Ry     beta= 0.30
     Davidson diagonalization with overlap
     ethr =  3.80E-09,  avg # of iterations =  2.0

     negative rho (up, down):  6.310E-04 2.008E-02

     total cpu time spent up to now is    10270.6 secs

     total energy              =    -860.04566089 Ry
     Harris-Foulkes estimate   =    -860.04568106 Ry
     estimated scf accuracy    <       0.00001746 Ry

     total magnetization       =     2.00 Bohr mag/cell
     absolute magnetization    =     2.55 Bohr mag/cell

     iteration #103     ecut=    70.00 Ry     beta= 0.30
     Davidson diagonalization with overlap
     ethr =  3.80E-09,  avg # of iterations =  3.0

     negative rho (up, down):  6.296E-04 1.857E-02

     total cpu time spent up to now is    10394.6 secs

     total energy              =    -860.04567245 Ry
     Harris-Foulkes estimate   =    -860.04567180 Ry
     estimated scf accuracy    <       0.00001083 Ry

     total magnetization       =     2.00 Bohr mag/cell
     absolute magnetization    =     2.52 Bohr mag/cell

     iteration #104     ecut=    70.00 Ry     beta= 0.30
     Davidson diagonalization with overlap
     ethr =  3.80E-09,  avg # of iterations =  2.0

     negative rho (up, down):  6.294E-04 1.695E-02

     total cpu time spent up to now is    10494.2 secs

     total energy              =    -860.04567594 Ry
     Harris-Foulkes estimate   =    -860.04567464 Ry
     estimated scf accuracy    <       0.00000924 Ry

     total magnetization       =     2.00 Bohr mag/cell
     absolute magnetization    =     2.53 Bohr mag/cell

     iteration #105     ecut=    70.00 Ry     beta= 0.30
     Davidson diagonalization with overlap
     ethr =  3.80E-09,  avg # of iterations =  1.0

     negative rho (up, down):  6.297E-04 1.729E-02

     total cpu time spent up to now is    10583.1 secs

     total energy              =    -860.04567077 Ry
     Harris-Foulkes estimate   =    -860.04567614 Ry
     estimated scf accuracy    <       0.00001069 Ry

     total magnetization       =     2.00 Bohr mag/cell
     absolute magnetization    =     2.53 Bohr mag/cell

     iteration #106     ecut=    70.00 Ry     beta= 0.30
     Davidson diagonalization with overlap
     ethr =  3.80E-09,  avg # of iterations =  2.0

     negative rho (up, down):  6.289E-04 1.717E-02

     total cpu time spent up to now is    10684.2 secs

     total energy              =    -860.04567251 Ry
     Harris-Foulkes estimate   =    -860.04567313 Ry
     estimated scf accuracy    <       0.00000890 Ry

     total magnetization       =     2.00 Bohr mag/cell
     absolute magnetization    =     2.52 Bohr mag/cell

     iteration #107     ecut=    70.00 Ry     beta= 0.30
     Davidson diagonalization with overlap
     ethr =  3.80E-09,  avg # of iterations =  2.0

     negative rho (up, down):  6.286E-04 1.595E-02

     total cpu time spent up to now is    10784.8 secs

     total energy              =    -860.04567080 Ry
     Harris-Foulkes estimate   =    -860.04567555 Ry
     estimated scf accuracy    <       0.00004237 Ry

     total magnetization       =     2.00 Bohr mag/cell
     absolute magnetization    =     2.52 Bohr mag/cell

     iteration #108     ecut=    70.00 Ry     beta= 0.30
     Davidson diagonalization with overlap
     ethr =  3.80E-09,  avg # of iterations =  2.5

     negative rho (up, down):  6.283E-04 1.555E-02

     total cpu time spent up to now is    10885.1 secs

     total energy              =    -860.04567406 Ry
     Harris-Foulkes estimate   =    -860.04567532 Ry
     estimated scf accuracy    <       0.00002505 Ry

     total magnetization       =     2.00 Bohr mag/cell
     absolute magnetization    =     2.50 Bohr mag/cell

     iteration #109     ecut=    70.00 Ry     beta= 0.30
     Davidson diagonalization with overlap
     ethr =  3.80E-09,  avg # of iterations =  2.0

     negative rho (up, down):  6.289E-04 1.583E-02

     total cpu time spent up to now is    10978.9 secs

     total energy              =    -860.04567226 Ry
     Harris-Foulkes estimate   =    -860.04567641 Ry
     estimated scf accuracy    <       0.00000813 Ry

     total magnetization       =     2.00 Bohr mag/cell
     absolute magnetization    =     2.52 Bohr mag/cell

     iteration #110     ecut=    70.00 Ry     beta= 0.30
     Davidson diagonalization with overlap
     ethr =  3.80E-09,  avg # of iterations =  2.0

     negative rho (up, down):  6.287E-04 1.594E-02

     total cpu time spent up to now is    11078.0 secs

     total energy              =    -860.04567255 Ry
     Harris-Foulkes estimate   =    -860.04567387 Ry
     estimated scf accuracy    <       0.00000995 Ry

     total magnetization       =     2.00 Bohr mag/cell
     absolute magnetization    =     2.52 Bohr mag/cell

[...]

     iteration #161     ecut=    70.00 Ry     beta= 0.30
     Davidson diagonalization with overlap
     ethr =  9.52E-10,  avg # of iterations =  2.0

     negative rho (up, down):  6.269E-04 1.536E-02

     total cpu time spent up to now is    16208.9 secs

     total energy              =    -860.04568920 Ry
     Harris-Foulkes estimate   =    -860.04568887 Ry
     estimated scf accuracy    <       0.00000394 Ry

     total magnetization       =     2.00 Bohr mag/cell
     absolute magnetization    =     2.60 Bohr mag/cell

     iteration #162     ecut=    70.00 Ry     beta= 0.30
     Davidson diagonalization with overlap
     ethr =  9.52E-10,  avg # of iterations =  2.0

     negative rho (up, down):  6.269E-04 1.560E-02

     total cpu time spent up to now is    16302.6 secs

     total energy              =    -860.04568792 Ry
     Harris-Foulkes estimate   =    -860.04568935 Ry
     estimated scf accuracy    <       0.00000516 Ry

     total magnetization       =     2.00 Bohr mag/cell
     absolute magnetization    =     2.60 Bohr mag/cell

     iteration #163     ecut=    70.00 Ry     beta= 0.30
     Davidson diagonalization with overlap
     ethr =  9.52E-10,  avg # of iterations =  2.0

     negative rho (up, down):  6.268E-04 1.573E-02

     total cpu time spent up to now is    16402.4 secs

     total energy              =    -860.04568752 Ry
     Harris-Foulkes estimate   =    -860.04568847 Ry
     estimated scf accuracy    <       0.00000483 Ry

     total magnetization       =     2.00 Bohr mag/cell
     absolute magnetization    =     2.60 Bohr mag/cell

     iteration #164     ecut=    70.00 Ry     beta= 0.30
     Davidson diagonalization with overlap
     ethr =  9.52E-10,  avg # of iterations =  2.0

     negative rho (up, down):  6.268E-04 1.545E-02

     total cpu time spent up to now is    16502.2 secs

     total energy              =    -860.04568827 Ry
     Harris-Foulkes estimate   =    -860.04568811 Ry
     estimated scf accuracy    <       0.00000285 Ry

     total magnetization       =     2.00 Bohr mag/cell
     absolute magnetization    =     2.60 Bohr mag/cell

     iteration #165     ecut=    70.00 Ry     beta= 0.30
     Davidson diagonalization with overlap
     ethr =  9.52E-10,  avg # of iterations =  2.0

     negative rho (up, down):  6.268E-04 1.533E-02

     total cpu time spent up to now is    16592.2 secs

     total energy              =    -860.04568830 Ry
     Harris-Foulkes estimate   =    -860.04568837 Ry
     estimated scf accuracy    <       0.00000156 Ry

     total magnetization       =     2.00 Bohr mag/cell
     absolute magnetization    =     2.60 Bohr mag/cell

     iteration #166     ecut=    70.00 Ry     beta= 0.30
     Davidson diagonalization with overlap
     ethr =  7.30E-10,  avg # of iterations =  2.0

     negative rho (up, down):  6.268E-04 1.522E-02

     total cpu time spent up to now is    16691.8 secs

     total energy              =    -860.04568843 Ry
     Harris-Foulkes estimate   =    -860.04568877 Ry
     estimated scf accuracy    <       0.00000715 Ry

     total magnetization       =     2.00 Bohr mag/cell
     absolute magnetization    =     2.60 Bohr mag/cell

     iteration #167     ecut=    70.00 Ry     beta= 0.30
     Davidson diagonalization with overlap
     ethr =  7.30E-10,  avg # of iterations =  2.0

     negative rho (up, down):  6.267E-04 1.532E-02

     total cpu time spent up to now is    16790.8 secs

     total energy              =    -860.04568864 Ry
     Harris-Foulkes estimate   =    -860.04568880 Ry
     estimated scf accuracy    <       0.00000251 Ry

     total magnetization       =     2.00 Bohr mag/cell
     absolute magnetization    =     2.60 Bohr mag/cell

     iteration #168     ecut=    70.00 Ry     beta= 0.30
     Davidson diagonalization with overlap
     ethr =  7.30E-10,  avg # of iterations =  3.0

     negative rho (up, down):  6.267E-04 1.515E-02

     total cpu time spent up to now is    16905.5 secs

     total energy              =    -860.04569004 Ry
     Harris-Foulkes estimate   =    -860.04569014 Ry
     estimated scf accuracy    <       0.00000111 Ry

     total magnetization       =     2.00 Bohr mag/cell
     absolute magnetization    =     2.61 Bohr mag/cell

     iteration #169     ecut=    70.00 Ry     beta= 0.30
     Davidson diagonalization with overlap
     ethr =  5.19E-10,  avg # of iterations =  2.0

     negative rho (up, down):  6.268E-04 1.522E-02

     total cpu time spent up to now is    16996.4 secs

     total energy              =    -860.04568724 Ry
     Harris-Foulkes estimate   =    -860.04569014 Ry
     estimated scf accuracy    <       0.00000148 Ry

     total magnetization       =     2.00 Bohr mag/cell
     absolute magnetization    =     2.61 Bohr mag/cell

     iteration #170     ecut=    70.00 Ry     beta= 0.30
     Davidson diagonalization with overlap
     ethr =  5.19E-10,  avg # of iterations =  3.0

     negative rho (up, down):  6.267E-04 1.512E-02

     total cpu time spent up to now is    17115.8 secs

     total energy              =    -860.04568899 Ry
     Harris-Foulkes estimate   =    -860.04568853 Ry
     estimated scf accuracy    <       0.00000242 Ry

     total magnetization       =     2.00 Bohr mag/cell
     absolute magnetization    =     2.60 Bohr mag/cell

     iteration #171     ecut=    70.00 Ry     beta= 0.30
     Davidson diagonalization with overlap
     ethr =  5.19E-10,  avg # of iterations =  3.0

     negative rho (up, down):  6.267E-04 1.515E-02

     total cpu time spent up to now is    17233.9 secs

     total energy              =    -860.04568980 Ry
     Harris-Foulkes estimate   =    -860.04568985 Ry
     estimated scf accuracy    <       0.00000121 Ry

     total magnetization       =     2.00 Bohr mag/cell
     absolute magnetization    =     2.61 Bohr mag/cell

     iteration #172     ecut=    70.00 Ry     beta= 0.30
     Davidson diagonalization with overlap
     ethr =  5.19E-10,  avg # of iterations =  2.0

     negative rho (up, down):  6.267E-04 1.517E-02

     total cpu time spent up to now is    17329.1 secs

     total energy              =    -860.04568994 Ry
     Harris-Foulkes estimate   =    -860.04568996 Ry
     estimated scf accuracy    <       0.00000185 Ry

     total magnetization       =     2.00 Bohr mag/cell
     absolute magnetization    =     2.62 Bohr mag/cell

     iteration #173     ecut=    70.00 Ry     beta= 0.30
     Davidson diagonalization with overlap
     ethr =  5.19E-10,  avg # of iterations =  3.0

     negative rho (up, down):  6.268E-04 1.541E-02

     total cpu time spent up to now is    17449.7 secs

     total energy              =    -860.04568939 Ry
     Harris-Foulkes estimate   =    -860.04569100 Ry
     estimated scf accuracy    <       0.00000154 Ry

     total magnetization       =     2.00 Bohr mag/cell
     absolute magnetization    =     2.63 Bohr mag/cell

     iteration #174     ecut=    70.00 Ry     beta= 0.30
     Davidson diagonalization with overlap
     ethr =  5.19E-10,  avg # of iterations =  3.0

     negative rho (up, down):  6.263E-04 1.502E-02

     Magnetic moment per site:
     atom:    1    charge:    0.2113    magn:   -0.0001    constr:    0.0000
     atom:    2    charge:    0.2134    magn:    0.0050    constr:    0.0000
     atom:    3    charge:    1.7160    magn:   -0.0075    constr:    0.0000
     atom:    4    charge:    1.7159    magn:    0.0101    constr:    0.0000
     atom:    5    charge:    1.7170    magn:   -0.0032    constr:    0.0000
     atom:    6    charge:    1.7143    magn:    0.0037    constr:    0.0000
     atom:    7    charge:    1.7175    magn:   -0.0051    constr:    0.0000
     atom:    8    charge:    1.7152    magn:    0.0151    constr:    0.0000
     atom:    9    charge:    1.7167    magn:   -0.0079    constr:    0.0000
     atom:   10    charge:    1.7154    magn:    0.0496    constr:    0.0000
     atom:   11    charge:    1.7165    magn:   -0.0113    constr:    0.0000
     atom:   12    charge:    1.7179    magn:    0.0302    constr:    0.0000
     atom:   13    charge:    1.7165    magn:   -0.0113    constr:    0.0000
     atom:   14    charge:    1.7163    magn:    0.0359    constr:    0.0000
     atom:   15    charge:    1.7132    magn:   -0.0080    constr:    0.0000
     atom:   16    charge:    1.7139    magn:    0.0325    constr:    0.0000
     atom:   17    charge:    1.7213    magn:   -0.0032    constr:    0.0000
     atom:   18    charge:    1.7130    magn:    0.0360    constr:    0.0000
     atom:   19    charge:    1.7131    magn:   -0.0080    constr:    0.0000
     atom:   20    charge:    1.7172    magn:    0.0276    constr:    0.0000
     atom:   21    charge:    1.7170    magn:   -0.0130    constr:    0.0000
     atom:   22    charge:    1.7154    magn:    0.0496    constr:    0.0000
     atom:   23    charge:    1.7167    magn:   -0.0079    constr:    0.0000
     atom:   24    charge:    1.7158    magn:    0.0122    constr:    0.0000
     atom:   25    charge:    1.7134    magn:   -0.0082    constr:    0.0000
     atom:   26    charge:    1.7124    magn:    0.0478    constr:    0.0000
     atom:   27    charge:    1.8523    magn:   -0.0073    constr:    0.0000
     atom:   28    charge:   11.1550    magn:    0.4975    constr:    0.0000
     atom:   29    charge:    1.8513    magn:   -0.0151    constr:    0.0000
     atom:   30    charge:    1.7130    magn:    0.0360    constr:    0.0000
     atom:   31    charge:    1.7131    magn:   -0.0080    constr:    0.0000
     atom:   32    charge:    1.7152    magn:    0.0151    constr:    0.0000
     atom:   33    charge:    1.7175    magn:   -0.0051    constr:    0.0000
     atom:   34    charge:    1.7145    magn:    0.0095    constr:    0.0000
     atom:   35    charge:    1.7172    magn:   -0.0039    constr:    0.0000
     atom:   36    charge:    1.7146    magn:    0.0028    constr:    0.0000
     atom:   37    charge:    1.7217    magn:   -0.0035    constr:    0.0000
     atom:   38    charge:    1.7124    magn:    0.0478    constr:    0.0000
     atom:   39    charge:    1.8523    magn:   -0.0073    constr:    0.0000
     atom:   40    charge:    1.7139    magn:    0.0325    constr:    0.0000
     atom:   41    charge:    1.7213    magn:   -0.0032    constr:    0.0000
     atom:   42    charge:    1.7143    magn:    0.0037    constr:    0.0000
     atom:   43    charge:    1.7170    magn:   -0.0032    constr:    0.0000
     atom:   44    charge:    1.7150    magn:    0.0055    constr:    0.0000
     atom:   45    charge:    1.7220    magn:    0.0040    constr:    0.0000
     atom:   46    charge:    1.7145    magn:    0.0095    constr:    0.0000
     atom:   47    charge:    1.7172    magn:   -0.0039    constr:    0.0000
     atom:   48    charge:    1.7158    magn:    0.0122    constr:    0.0000
     atom:   49    charge:    1.7134    magn:   -0.0082    constr:    0.0000
     atom:   50    charge:    1.7163    magn:    0.0359    constr:    0.0000
     atom:   51    charge:    1.7132    magn:   -0.0080    constr:    0.0000
     atom:   52    charge:    1.7159    magn:    0.0101    constr:    0.0000

     total cpu time spent up to now is    17578.7 secs

     End of self-consistent calculation

 ------ SPIN UP ------------


          k = 0.0000 0.0000 0.0000 ( 87777 PWs)   bands (ev):

   -89.0178 -55.9178 -55.7913 -54.3205 -19.8284 -19.0015 -18.9764 -18.8995
   -18.8951 -18.8894 -18.5777 -17.1500 -17.1220 -17.1217 -17.0628 -17.0543
   -16.7510 -16.2902 -16.2777 -16.1842 -16.1465 -16.1403 -15.4797 -14.2162
   -14.1701 -14.1086 -14.0491 -14.0412 -13.4296 -13.1223 -13.1164 -13.0900
   -12.8293 -12.8262 -12.3970 -11.9169 -11.9099 -11.7150 -11.4780 -11.4734
   -10.6187  -9.8131  -9.8054  -9.4990  -9.3674  -9.3662  -9.2754  -9.2501
    -9.2474  -9.2378  -8.7933  -8.7901  -8.2881  -8.2775  -8.1549  -8.0071
    -7.8903  -7.5023  -7.4906  -7.3705  -7.3125  -7.2547  -7.0699  -7.0663
    -6.9600  -6.8838  -6.8651  -6.8327  -6.7771  -6.6235  -6.6004  -6.5874
    -6.5816  -6.5748  -6.5366  -6.2483  -5.7997  -5.7478  -5.7443  -5.7090
    -5.4598  -5.4534  -5.4254  -5.0355  -4.9431  -4.7912  -4.7677  -4.7587
    -4.5592  -4.5555  -4.4371  -4.3174  -4.2871  -3.9163  -3.9064  -3.8379
    -3.7441  -3.7362  -3.1964  -2.9286  -2.9089  -1.9220  -1.8562  -1.8504
    -1.5620  -1.3151  -1.1957  -0.9577   0.8687   0.9140   0.9213   1.3995
     1.4398   1.5435   2.1939   2.2029   2.5364   2.7237   2.7268   2.8013
     3.2847   3.3170   3.4422   3.6737   3.6993   3.7587   3.7617   3.7652

     occupation numbers 
     1.0000   1.0000   1.0000   1.0000   1.0000   1.0000   1.0000   1.0000
     1.0000   1.0000   1.0000   1.0000   1.0000   1.0000   1.0000   1.0000
     1.0000   1.0000   1.0000   1.0000   1.0000   1.0000   1.0000   1.0000
     1.0000   1.0000   1.0000   1.0000   1.0000   1.0000   1.0000   1.0000
     1.0000   1.0000   1.0000   1.0000   1.0000   1.0000   1.0000   1.0000
     1.0000   1.0000   1.0000   1.0000   1.0000   1.0000   1.0000   1.0000
     1.0000   1.0000   1.0000   1.0000   1.0000   1.0000   1.0000   1.0000
     1.0000   1.0000   1.0000   1.0000   1.0000   1.0000   1.0000   1.0000
     1.0000   1.0000   1.0000   1.0000   1.0000   1.0000   1.0000   1.0000
     1.0000   1.0000   1.0000   1.0000   1.0000   1.0000   1.0000   1.0000
     1.0000   1.0000   1.0000   1.0000   1.0000   1.0000   1.0000   1.0000
     1.0000   1.0000   1.0000   1.0000   1.0000   1.0000   1.0000   1.0000
     1.0000   1.0000   1.0000   1.0000   1.0000   1.0000   1.0000   1.0000
     1.0000   1.0000   1.0000   1.0000   0.0000   0.0000   0.0000   0.0000
     0.0000   0.0000   0.0000   0.0000   0.0000   0.0000   0.0000   0.0000
     0.0000   0.0000   0.0000   0.0000   0.0000   0.0000   0.0000   0.0000

 ------ SPIN DOWN ----------


          k = 0.0000 0.0000 0.0000 ( 87777 PWs)   bands (ev):

   -88.2249 -55.2384 -55.1992 -53.3082 -19.7950 -18.9610 -18.9376 -18.8786
   -18.8674 -18.8654 -18.5261 -17.1124 -17.0996 -17.0963 -17.0190 -17.0132
   -16.7237 -16.2502 -16.2455 -16.1538 -16.1078 -16.1069 -15.4533 -14.1487
   -14.1217 -14.0628 -14.0389 -14.0304 -13.4205 -13.0994 -13.0952 -13.0646
   -12.8105 -12.8090 -12.3696 -11.8841 -11.8756 -11.6929 -11.4554 -11.4552
   -10.5892  -9.7572  -9.7509  -9.4740  -9.3404  -9.3399  -9.2615  -9.2301
    -9.2296  -9.2223  -8.7792  -8.7771  -8.2480  -8.2387  -8.1280  -7.9264
    -7.8760  -7.4898  -7.4770  -7.3145  -7.2011  -7.0893  -7.0160  -7.0154
    -6.8571  -6.8301  -6.8097  -6.7753  -6.7648  -6.6078  -6.5871  -6.5784
    -6.5708  -6.5640  -6.5197  -6.1488  -5.6876  -5.6781  -5.5511  -5.5009
    -5.4175  -5.4120  -5.2596  -5.0230  -4.9355  -4.7303  -4.6903  -4.6896
    -4.4808  -4.4726  -4.3690  -4.2006  -4.1953  -3.8114  -3.8066  -3.7585
    -3.7289  -3.7227  -3.1340  -2.7171  -2.7068  -1.8312  -1.8258  -1.8040
    -0.9664  -0.9087  -0.8881  -0.8219   0.9532   0.9606   0.9860   1.5514
     1.5530   1.6515   2.3736   2.3870   2.5490   2.8280   2.8393   2.8704
     3.4334   3.4367   3.5359   3.6883   3.7122   3.7641   3.7672   3.7675

     occupation numbers 
     1.0000   1.0000   1.0000   1.0000   1.0000   1.0000   1.0000   1.0000
     1.0000   1.0000   1.0000   1.0000   1.0000   1.0000   1.0000   1.0000
     1.0000   1.0000   1.0000   1.0000   1.0000   1.0000   1.0000   1.0000
     1.0000   1.0000   1.0000   1.0000   1.0000   1.0000   1.0000   1.0000
     1.0000   1.0000   1.0000   1.0000   1.0000   1.0000   1.0000   1.0000
     1.0000   1.0000   1.0000   1.0000   1.0000   1.0000   1.0000   1.0000
     1.0000   1.0000   1.0000   1.0000   1.0000   1.0000   1.0000   1.0000
     1.0000   1.0000   1.0000   1.0000   1.0000   1.0000   1.0000   1.0000
     1.0000   1.0000   1.0000   1.0000   1.0000   1.0000   1.0000   1.0000
     1.0000   1.0000   1.0000   1.0000   1.0000   1.0000   1.0000   1.0000
     1.0000   1.0000   1.0000   1.0000   1.0000   1.0000   1.0000   1.0000
     1.0000   1.0000   1.0000   1.0000   1.0000   1.0000   1.0000   1.0000
     1.0000   1.0000   1.0000   1.0000   1.0000   1.0000   1.0000   1.0000
     1.0000   0.9316   0.0684   0.0000   0.0000   0.0000   0.0000   0.0000
     0.0000   0.0000   0.0000   0.0000   0.0000   0.0000   0.0000   0.0000
     0.0000   0.0000   0.0000   0.0000   0.0000   0.0000   0.0000   0.0000

     the Fermi energy is    -0.8982 ev

!    total energy              =    -860.04569250 Ry
     Harris-Foulkes estimate   =    -860.04569208 Ry
     estimated scf accuracy    <       0.00000080 Ry

     The total energy is the sum of the following terms:

     one-electron contribution =   -2808.45740521 Ry
     hartree contribution      =    1448.14975056 Ry
     xc contribution           =    -259.37688676 Ry
     ewald contribution        =     759.63889521 Ry
     smearing contrib. (-TS)   =      -0.00004629 Ry

     total magnetization       =     2.00 Bohr mag/cell
     absolute magnetization    =     2.65 Bohr mag/cell

     convergence has been achieved in 174 iterations

     Writing output data file distance-2.2.save/

     init_run     :     69.75s CPU     70.92s WALL (       1 calls)
     electrons    :  17174.27s CPU  17506.72s WALL (       1 calls)

     Called by init_run:
     wfcinit      :     40.17s CPU     40.37s WALL (       1 calls)
     wfcinit:atom :      0.06s CPU      0.08s WALL (       2 calls)
     wfcinit:wfcr :     39.77s CPU     39.91s WALL (       2 calls)
     potinit      :     12.44s CPU     12.84s WALL (       1 calls)
     hinit0       :      8.95s CPU      8.99s WALL (       1 calls)

     Called by electrons:
     c_bands      :  11103.73s CPU  11167.37s WALL (     174 calls)
     sum_band     :   3494.03s CPU   3601.53s WALL (     174 calls)
     v_of_rho     :   1252.55s CPU   1318.51s WALL (     175 calls)
     v_h          :     12.53s CPU     12.88s WALL (     175 calls)
     v_xc         :   1240.02s CPU   1305.63s WALL (     175 calls)
     newd         :   1234.98s CPU   1329.39s WALL (     175 calls)
     mix_rho      :     63.92s CPU     64.78s WALL (     174 calls)

     Called by c_bands:
     init_us_2    :     30.06s CPU     30.17s WALL (     698 calls)
     cegterg      :  11016.43s CPU  11079.65s WALL (     348 calls)

     Called by sum_band:
     sum_band:bec :      0.28s CPU      0.28s WALL (     348 calls)
     addusdens    :   2117.92s CPU   2216.60s WALL (     174 calls)

     Called by *egterg:
     h_psi        :   5585.44s CPU   5629.07s WALL (    1215 calls)
     s_psi        :   1851.60s CPU   1852.45s WALL (    1215 calls)
     g_psi        :      6.40s CPU      6.43s WALL (     865 calls)
     cdiaghg      :     85.76s CPU     85.82s WALL (    1213 calls)
     cegterg:over :   1469.41s CPU   1470.15s WALL (     865 calls)
     cegterg:upda :    870.87s CPU    876.47s WALL (     865 calls)
     cegterg:last :    591.60s CPU    591.75s WALL (     349 calls)

     Called by h_psi:
     h_psi:pot    :   5578.73s CPU   5614.77s WALL (    1215 calls)
     h_psi:calbec :   1884.41s CPU   1885.28s WALL (    1215 calls)
     vloc_psi     :   1845.47s CPU   1880.10s WALL (    1215 calls)
     add_vuspsi   :   1848.83s CPU   1849.38s WALL (    1215 calls)

     General routines
     calbec       :   2683.62s CPU   2684.83s WALL (    1563 calls)
     fft          :    704.57s CPU    729.75s WALL (   13119 calls)
     ffts         :     12.54s CPU     12.97s WALL (     698 calls)
     fftw         :   1966.90s CPU   2003.72s WALL (  254542 calls)
     interpolate  :     28.52s CPU     29.31s WALL (     350 calls)

     Parallel routines
     fft_scatt_xy :    462.26s CPU    468.45s WALL (  268359 calls)
     fft_scatt_yz :    941.15s CPU    984.57s WALL (  268359 calls)

     PWSCF        :      4h47m CPU      4h52m WALL


   This run was terminated on:  13:36:23  16Nov2022            

=------------------------------------------------------------------------------=
   JOB DONE.
=------------------------------------------------------------------------------=
