
     Program PWSCF v.6.4.1 starts on 10Mar2022 at 13:46:46 

     This program is part of the open-source Quantum ESPRESSO suite
     for quantum simulation of materials; please cite
         "P. Giannozzi et al., J. Phys.:Condens. Matter 21 395502 (2009);
         "P. Giannozzi et al., J. Phys.:Condens. Matter 29 465901 (2017);
          URL http://www.quantum-espresso.org", 
     in publications or presentations arising from this work. More details at
     http://www.quantum-espresso.org/quote

     Parallel version (MPI), running on     6 processors

     MPI processes distributed on     1 nodes
     R & G space division:  proc/nbgrp/npool/nimage =       6
     Reading input from v-13.in

     Current dimensions of program PWSCF are:
     Max number of different atomic species (ntypx) = 10
     Max number of k-points (npk) =  40000
     Max angular momentum in pseudopotentials (lmaxx) =  3
               file V.pbe-spnl-rrkjus_psl.1.0.0.UPF: wavefunction(s)  3P 3D renormalized
               file V.pbe-spnl-rrkjus_psl.1.0.0.UPF: wavefunction(s)  3P 3D renormalized

     Subspace diagonalization in iterative solution of the eigenvalue problem:
     a serial algorithm will be used

     Message from routine setup:
     DEPRECATED: symmetry with ibrav=0, use correct ibrav instead

     Parallelization info
     --------------------
     sticks:   dense  smooth     PW     G-vecs:    dense   smooth      PW
     Min         396     122     36                14512     2465     418
     Max         397     123     37                14514     2466     421
     Sum        2377     733    221                87079    14795    2517



     bravais-lattice index     =            0
     lattice parameter (alat)  =       5.7259  a.u.
     unit-cell volume          =     187.7260 (a.u.)^3
     number of atoms/cell      =            2
     number of atomic types    =            2
     number of electrons       =        26.00
     number of Kohn-Sham states=           17
     kinetic-energy cutoff     =      70.0000  Ry
     charge density cutoff     =     910.0000  Ry
     convergence threshold     =      1.0E-06
     mixing beta               =       0.7000
     number of iterations used =            8  plain     mixing
     Exchange-correlation      = PBE ( 1  4  3  4 0 0)

     celldm(1)=   5.725870  celldm(2)=   0.000000  celldm(3)=   0.000000
     celldm(4)=   0.000000  celldm(5)=   0.000000  celldm(6)=   0.000000

     crystal axes: (cart. coord. in units of alat)
               a(1) = (   1.000000   0.000000   0.000000 )  
               a(2) = (   0.000000   1.000000   0.000000 )  
               a(3) = (   0.000000   0.000000   1.000000 )  

     reciprocal axes: (cart. coord. in units 2 pi/alat)
               b(1) = (  1.000000  0.000000  0.000000 )  
               b(2) = (  0.000000  1.000000  0.000000 )  
               b(3) = (  0.000000  0.000000  1.000000 )  


     PseudoPot. # 1 for V  read from file:
     /home/cristian/Escritorio/Proyecto_Grafeno/pseudopotenciales/V.pbe-spnl-rrkjus_psl.1.0.0.UPF
     MD5 check sum: 79b3eb63147daf0b665d9f1bcc691206
     Pseudo is Ultrasoft + core correction, Zval = 13.0
     Generated using "atomic" code by A. Dal Corso v.6.2.2
     Using radial grid of 1181 points,  6 beta functions with: 
                l(1) =   0
                l(2) =   0
                l(3) =   1
                l(4) =   1
                l(5) =   2
                l(6) =   2
     Q(r) pseudized with 0 coefficients 


     PseudoPot. # 2 for V  read from file:
     /home/cristian/Escritorio/Proyecto_Grafeno/pseudopotenciales/V.pbe-spnl-rrkjus_psl.1.0.0.UPF
     MD5 check sum: 79b3eb63147daf0b665d9f1bcc691206
     Pseudo is Ultrasoft + core correction, Zval = 13.0
     Generated using "atomic" code by A. Dal Corso v.6.2.2
     Using radial grid of 1181 points,  6 beta functions with: 
                l(1) =   0
                l(2) =   0
                l(3) =   1
                l(4) =   1
                l(5) =   2
                l(6) =   2
     Q(r) pseudized with 0 coefficients 


     atomic species   valence    mass     pseudopotential
        V1            13.00    50.94150     V ( 1.00)
        V2            13.00    50.94150     V ( 1.00)

     Starting magnetic structure 
     atomic species   magnetization
        V1           0.100
        V2          -0.100

     48 Sym. Ops., with inversion, found



   Cartesian axes

     site n.     atom                  positions (alat units)
         1           V1  tau(   1) = (   0.0000000   0.0000000   0.0000000  )
         2           V2  tau(   2) = (   0.5000000   0.5000000   0.5000000  )

     number of k points=    20  Methfessel-Paxton smearing, width (Ry)=  0.0300
                       cart. coord. in units 2pi/alat
        k(    1) = (   0.0625000   0.0625000   0.0625000), wk =   0.0156250
        k(    2) = (   0.0625000   0.0625000   0.1875000), wk =   0.0468750
        k(    3) = (   0.0625000   0.0625000   0.3125000), wk =   0.0468750
        k(    4) = (   0.0625000   0.0625000   0.4375000), wk =   0.0468750
        k(    5) = (   0.0625000   0.1875000   0.1875000), wk =   0.0468750
        k(    6) = (   0.0625000   0.1875000   0.3125000), wk =   0.0937500
        k(    7) = (   0.0625000   0.1875000   0.4375000), wk =   0.0937500
        k(    8) = (   0.0625000   0.3125000   0.3125000), wk =   0.0468750
        k(    9) = (   0.0625000   0.3125000   0.4375000), wk =   0.0937500
        k(   10) = (   0.0625000   0.4375000   0.4375000), wk =   0.0468750
        k(   11) = (   0.1875000   0.1875000   0.1875000), wk =   0.0156250
        k(   12) = (   0.1875000   0.1875000   0.3125000), wk =   0.0468750
        k(   13) = (   0.1875000   0.1875000   0.4375000), wk =   0.0468750
        k(   14) = (   0.1875000   0.3125000   0.3125000), wk =   0.0468750
        k(   15) = (   0.1875000   0.3125000   0.4375000), wk =   0.0937500
        k(   16) = (   0.1875000   0.4375000   0.4375000), wk =   0.0468750
        k(   17) = (   0.3125000   0.3125000   0.3125000), wk =   0.0156250
        k(   18) = (   0.3125000   0.3125000   0.4375000), wk =   0.0468750
        k(   19) = (   0.3125000   0.4375000   0.4375000), wk =   0.0468750
        k(   20) = (   0.4375000   0.4375000   0.4375000), wk =   0.0156250

     Dense  grid:    87079 G-vectors     FFT dimensions: (  60,  60,  60)

     Smooth grid:    14795 G-vectors     FFT dimensions: (  32,  32,  32)

     Estimated max dynamical RAM per process >      64.16 MB

     Estimated total dynamical RAM >     384.93 MB
     Generating pointlists ...
     new r_m :   0.3572 (alat units)  2.0455 (a.u.) for type    1
     new r_m :   0.3572 (alat units)  2.0455 (a.u.) for type    2

     Initial potential from superposition of free atoms

     starting charge   25.99818, renormalised to   26.00000
     Starting wfcs are   20 randomized atomic wfcs

     total cpu time spent up to now is        2.3 secs

     Self-consistent Calculation

     iteration #  1     ecut=    70.00 Ry     beta= 0.70
     Davidson diagonalization with overlap
     ethr =  1.00E-02,  avg # of iterations =  2.5

     Threshold (ethr) on eigenvalues was too large:
     Diagonalizing with lowered threshold

     Davidson diagonalization with overlap
     ethr =  5.01E-04,  avg # of iterations =  2.3

     total cpu time spent up to now is        4.4 secs

     total energy              =    -291.02955231 Ry
     Harris-Foulkes estimate   =    -291.10841642 Ry
     estimated scf accuracy    <       0.14096254 Ry

     total magnetization       =    -0.00 Bohr mag/cell
     absolute magnetization    =     1.30 Bohr mag/cell

     iteration #  2     ecut=    70.00 Ry     beta= 0.70
     Davidson diagonalization with overlap
     ethr =  5.42E-04,  avg # of iterations =  3.1

     total cpu time spent up to now is        5.7 secs

     total energy              =    -291.05765383 Ry
     Harris-Foulkes estimate   =    -291.11996028 Ry
     estimated scf accuracy    <       0.12384874 Ry

     total magnetization       =    -0.00 Bohr mag/cell
     absolute magnetization    =     1.40 Bohr mag/cell

     iteration #  3     ecut=    70.00 Ry     beta= 0.70
     Davidson diagonalization with overlap
     ethr =  4.76E-04,  avg # of iterations =  3.0

     total cpu time spent up to now is        6.8 secs

     total energy              =    -291.08739690 Ry
     Harris-Foulkes estimate   =    -291.08635670 Ry
     estimated scf accuracy    <       0.00327644 Ry

     total magnetization       =     0.00 Bohr mag/cell
     absolute magnetization    =     1.13 Bohr mag/cell

     iteration #  4     ecut=    70.00 Ry     beta= 0.70
     Davidson diagonalization with overlap
     ethr =  1.26E-05,  avg # of iterations =  4.6

     total cpu time spent up to now is        8.1 secs

     total energy              =    -291.08999013 Ry
     Harris-Foulkes estimate   =    -291.09034798 Ry
     estimated scf accuracy    <       0.00466895 Ry

     total magnetization       =    -0.02 Bohr mag/cell
     absolute magnetization    =     0.76 Bohr mag/cell

     iteration #  5     ecut=    70.00 Ry     beta= 0.70
     Davidson diagonalization with overlap
     ethr =  1.26E-05,  avg # of iterations =  1.2

     total cpu time spent up to now is        9.0 secs

     total energy              =    -291.09080105 Ry
     Harris-Foulkes estimate   =    -291.09019038 Ry
     estimated scf accuracy    <       0.00076471 Ry

     total magnetization       =     0.00 Bohr mag/cell
     absolute magnetization    =     0.74 Bohr mag/cell

     iteration #  6     ecut=    70.00 Ry     beta= 0.70
     Davidson diagonalization with overlap
     ethr =  2.94E-06,  avg # of iterations =  4.1

     total cpu time spent up to now is       10.1 secs

     total energy              =    -291.09013927 Ry
     Harris-Foulkes estimate   =    -291.09165718 Ry
     estimated scf accuracy    <       0.00080243 Ry

     total magnetization       =     0.01 Bohr mag/cell
     absolute magnetization    =     0.49 Bohr mag/cell

     iteration #  7     ecut=    70.00 Ry     beta= 0.70
     Davidson diagonalization with overlap
     ethr =  2.94E-06,  avg # of iterations =  5.0

     total cpu time spent up to now is       11.3 secs

     total energy              =    -291.09265894 Ry
     Harris-Foulkes estimate   =    -291.09278174 Ry
     estimated scf accuracy    <       0.00118436 Ry

     total magnetization       =     0.00 Bohr mag/cell
     absolute magnetization    =     0.04 Bohr mag/cell

     iteration #  8     ecut=    70.00 Ry     beta= 0.70
     Davidson diagonalization with overlap
     ethr =  2.94E-06,  avg # of iterations =  1.0

     total cpu time spent up to now is       12.2 secs

     total energy              =    -291.09270038 Ry
     Harris-Foulkes estimate   =    -291.09271002 Ry
     estimated scf accuracy    <       0.00010228 Ry

     total magnetization       =     0.00 Bohr mag/cell
     absolute magnetization    =     0.03 Bohr mag/cell

     iteration #  9     ecut=    70.00 Ry     beta= 0.70
     Davidson diagonalization with overlap
     ethr =  3.93E-07,  avg # of iterations =  4.9

     total cpu time spent up to now is       13.3 secs

     total energy              =    -291.09273781 Ry
     Harris-Foulkes estimate   =    -291.09274569 Ry
     estimated scf accuracy    <       0.00011460 Ry

     total magnetization       =     0.01 Bohr mag/cell
     absolute magnetization    =     0.01 Bohr mag/cell

     iteration # 10     ecut=    70.00 Ry     beta= 0.70
     Davidson diagonalization with overlap
     ethr =  3.93E-07,  avg # of iterations =  1.0

     total cpu time spent up to now is       14.2 secs

     total energy              =    -291.09273507 Ry
     Harris-Foulkes estimate   =    -291.09274084 Ry
     estimated scf accuracy    <       0.00004239 Ry

     total magnetization       =     0.00 Bohr mag/cell
     absolute magnetization    =     0.01 Bohr mag/cell

     iteration # 11     ecut=    70.00 Ry     beta= 0.70
     Davidson diagonalization with overlap
     ethr =  1.63E-07,  avg # of iterations =  2.2

     total cpu time spent up to now is       15.1 secs

     total energy              =    -291.09273836 Ry
     Harris-Foulkes estimate   =    -291.09273892 Ry
     estimated scf accuracy    <       0.00000104 Ry

     total magnetization       =     0.00 Bohr mag/cell
     absolute magnetization    =     0.02 Bohr mag/cell

     iteration # 12     ecut=    70.00 Ry     beta= 0.70
     Davidson diagonalization with overlap
     ethr =  4.01E-09,  avg # of iterations =  4.7

     total cpu time spent up to now is       16.2 secs

     total energy              =    -291.09274024 Ry
     Harris-Foulkes estimate   =    -291.09274053 Ry
     estimated scf accuracy    <       0.00000400 Ry

     total magnetization       =     0.00 Bohr mag/cell
     absolute magnetization    =     0.01 Bohr mag/cell

     iteration # 13     ecut=    70.00 Ry     beta= 0.70
     Davidson diagonalization with overlap
     ethr =  4.01E-09,  avg # of iterations =  2.3

     Magnetic moment per site:
     atom:    1    charge:   11.3134    magn:    0.0020    constr:    0.0000
     atom:    2    charge:   11.3147    magn:   -0.0008    constr:    0.0000

     total cpu time spent up to now is       17.1 secs

     End of self-consistent calculation

 ------ SPIN UP ------------


          k = 0.0625 0.0625 0.0625 (  1860 PWs)   bands (ev):

   -47.7188 -47.4402 -21.6314 -21.6314 -21.5868 -21.1207 -21.0735 -21.0735
     9.7035  13.2918  13.2918  16.3565  16.3565  16.6197  18.3128  18.3128
    19.0354

          k = 0.0625 0.0625 0.1875 (  1853 PWs)   bands (ev):

   -47.6942 -47.4580 -21.6552 -21.5866 -21.5229 -21.2204 -21.1135 -21.0907
    10.2910  13.5849  13.6016  16.2200  16.2937  16.9444  17.9171  18.1990
    18.4974

          k = 0.0625 0.0625 0.3125 (  1867 PWs)   bands (ev):

   -47.6503 -47.4923 -21.6504 -21.5050 -21.4377 -21.3601 -21.1886 -21.1495
    11.3498  13.8699  14.1895  16.1917  16.2109  17.2781  17.3651  17.4024
    17.8968

          k = 0.0625 0.0625 0.4375 (  1862 PWs)   bands (ev):

   -47.5956 -47.5401 -21.6004 -21.4986 -21.4001 -21.3378 -21.2888 -21.2367
    12.6129  13.6056  14.9806  15.7924  16.4016  16.7815  16.9236  17.2214
    17.9630

          k = 0.0625 0.1875 0.1875 (  1870 PWs)   bands (ev):

   -47.6728 -47.4724 -21.7008 -21.5625 -21.4335 -21.3429 -21.1426 -21.0755
    10.8317  13.7864  13.9492  15.9063  16.1049  17.3077  17.4670  18.0530
    18.3295

          k = 0.0625 0.1875 0.3125 (  1855 PWs)   bands (ev):

   -47.6346 -47.5006 -21.7297 -21.4922 -21.4896 -21.3362 -21.2068 -21.0981
    11.7756  13.9595  14.4911  15.7112  15.9220  16.5693  17.7290  17.7849
    18.0860

          k = 0.0625 0.1875 0.4375 (  1859 PWs)   bands (ev):

   -47.5876 -47.5405 -21.7077 -21.6245 -21.3946 -21.2949 -21.2407 -21.1573
    12.8388  13.6628  15.0751  15.5486  15.8655  16.1159  17.5209  17.5556
    18.6490

          k = 0.0625 0.3125 0.3125 (  1856 PWs)   bands (ev):

   -47.6072 -47.5176 -21.7978 -21.6412 -21.4380 -21.2466 -21.2373 -21.0784
    12.4130  13.7632  15.1985  15.3468  15.8877  15.9332  17.6406  18.1681
    18.5435

          k = 0.0625 0.3125 0.4375 (  1857 PWs)   bands (ev):

   -47.5744 -47.5429 -21.8122 -21.7577 -21.3712 -21.3038 -21.1555 -21.0998
    12.9729  13.4059  15.2345  15.4090  15.9009  16.1469  17.8988  18.1323
    18.8410

          k = 0.0625 0.4375 0.4375 (  1849 PWs)   bands (ev):

   -47.5604 -47.5493 -21.8655 -21.8465 -21.3437 -21.3199 -21.1002 -21.0806
    12.9937  13.1206  14.9888  15.0554  16.8487  17.0389  18.2296  18.3621
    18.6823

          k = 0.1875 0.1875 0.1875 (  1869 PWs)   bands (ev):

   -47.6540 -47.4840 -21.6510 -21.6510 -21.4393 -21.3410 -21.1207 -21.1207
    11.3542  14.1410  14.1410  15.7334  15.7334  16.3609  18.0684  18.2652
    18.2652

          k = 0.1875 0.1875 0.3125 (  1858 PWs)   bands (ev):

   -47.6207 -47.5070 -21.7135 -21.5640 -21.5599 -21.2560 -21.2053 -21.1174
    12.2421  14.3981  14.4734  15.4725  15.5476  15.7959  18.0298  18.2291
    18.5717

          k = 0.1875 0.1875 0.4375 (  1854 PWs)   bands (ev):

   -47.5803 -47.5403 -21.7230 -21.6692 -21.4426 -21.3180 -21.1878 -21.1403
    13.1902  13.9570  14.8501  15.1838  15.6865  15.8332  17.8167  17.8368
    18.7820

          k = 0.1875 0.3125 0.3125 (  1855 PWs)   bands (ev):

   -47.5967 -47.5206 -21.7411 -21.6622 -21.5345 -21.2448 -21.1914 -21.1310
    12.9331  14.2153  15.1438  15.1913  15.2850  15.4105  18.1811  18.2904
    18.5458

          k = 0.1875 0.3125 0.4375 (  1854 PWs)   bands (ev):

   -47.5683 -47.5416 -21.7672 -21.7402 -21.4394 -21.3326 -21.1524 -21.1356
    13.4647  13.8422  15.0446  15.0585  15.6664  15.7154  18.1572  18.2347
    18.7394

          k = 0.1875 0.4375 0.4375 (  1840 PWs)   bands (ev):

   -47.5559 -47.5465 -21.8041 -21.7953 -21.3959 -21.3536 -21.1404 -21.1382
    13.4884  13.5835  14.8878  14.9249  16.2619  16.2836  18.3841  18.4474
    18.7003

          k = 0.3125 0.3125 0.3125 (  1848 PWs)   bands (ev):

   -47.5789 -47.5280 -21.6971 -21.6370 -21.6370 -21.2291 -21.2291 -21.1676
    13.7305  14.5841  14.9969  14.9969  15.0301  15.0301  18.5200  18.5200
    18.6045

          k = 0.3125 0.3125 0.4375 (  1844 PWs)   bands (ev):

   -47.5587 -47.5408 -21.7207 -21.7041 -21.5026 -21.3593 -21.2006 -21.1743
    14.1331  14.2748  14.8870  14.9125  15.2201  15.4356  18.4500  18.4656
    18.7103

          k = 0.3125 0.4375 0.4375 (  1854 PWs)   bands (ev):

   -47.5492 -47.5429 -21.7080 -21.6912 -21.4725 -21.3926 -21.2460 -21.2181
    14.2522  14.2759  14.7897  14.8537  15.4869  15.6022  18.5912  18.6069
    18.7221

          k = 0.4375 0.4375 0.4375 (  1868 PWs)   bands (ev):

   -47.5435 -47.5412 -21.6162 -21.5450 -21.5450 -21.3886 -21.3886 -21.3158
    14.5981  14.8265  14.8265  15.0612  15.0899  15.0899  18.7323  18.7332
    18.7335

 ------ SPIN DOWN ----------


          k = 0.0625 0.0625 0.0625 (  1860 PWs)   bands (ev):

   -47.7180 -47.4395 -21.6306 -21.6306 -21.5861 -21.1199 -21.0727 -21.0727
     9.7041  13.2922  13.2922  16.3575  16.3575  16.6207  18.3132  18.3132
    19.0364

          k = 0.0625 0.0625 0.1875 (  1853 PWs)   bands (ev):

   -47.6935 -47.4572 -21.6545 -21.5858 -21.5222 -21.2196 -21.1127 -21.0899
    10.2916  13.5853  13.6020  16.2209  16.2946  16.9454  17.9176  18.2000
    18.4978

          k = 0.0625 0.0625 0.3125 (  1867 PWs)   bands (ev):

   -47.6495 -47.4915 -21.6496 -21.5042 -21.4369 -21.3593 -21.1878 -21.1487
    11.3504  13.8703  14.1900  16.1926  16.2119  17.2786  17.3660  17.4034
    17.8977

          k = 0.0625 0.0625 0.4375 (  1862 PWs)   bands (ev):

   -47.5949 -47.5393 -21.5997 -21.4978 -21.3993 -21.3370 -21.2880 -21.2359
    12.6134  13.6062  14.9810  15.7930  16.4026  16.7824  16.9244  17.2223
    17.9641

          k = 0.0625 0.1875 0.1875 (  1870 PWs)   bands (ev):

   -47.6720 -47.4716 -21.7001 -21.5617 -21.4328 -21.3421 -21.1418 -21.0748
    10.8323  13.7869  13.9496  15.9072  16.1058  17.3086  17.4680  18.0535
    18.3304

          k = 0.0625 0.1875 0.3125 (  1855 PWs)   bands (ev):

   -47.6339 -47.4998 -21.7290 -21.4915 -21.4888 -21.3354 -21.2060 -21.0973
    11.7762  13.9600  14.4915  15.7121  15.9228  16.5702  17.7299  17.7854
    18.0869

          k = 0.0625 0.1875 0.4375 (  1859 PWs)   bands (ev):

   -47.5869 -47.5397 -21.7070 -21.6237 -21.3938 -21.2941 -21.2399 -21.1565
    12.8394  13.6634  15.0756  15.5493  15.8664  16.1168  17.5217  17.5563
    18.6498

          k = 0.0625 0.3125 0.3125 (  1856 PWs)   bands (ev):

   -47.6064 -47.5168 -21.7970 -21.6404 -21.4372 -21.2458 -21.2366 -21.0777
    12.4136  13.7638  15.1990  15.3477  15.8886  15.9339  17.6413  18.1687
    18.5439

          k = 0.0625 0.3125 0.4375 (  1857 PWs)   bands (ev):

   -47.5737 -47.5421 -21.8114 -21.7569 -21.3704 -21.3030 -21.1547 -21.0990
    12.9735  13.4066  15.2355  15.4099  15.9015  16.1475  17.8994  18.1330
    18.8415

          k = 0.0625 0.4375 0.4375 (  1849 PWs)   bands (ev):

   -47.5599 -47.5483 -21.8647 -21.8458 -21.3430 -21.3190 -21.0994 -21.0798
    12.9944  13.1213  14.9897  15.0563  16.8492  17.0395  18.2302  18.3627
    18.6835

          k = 0.1875 0.1875 0.1875 (  1869 PWs)   bands (ev):

   -47.6532 -47.4832 -21.6503 -21.6503 -21.4385 -21.3402 -21.1200 -21.1200
    11.3548  14.1414  14.1414  15.7342  15.7342  16.3618  18.0694  18.2656
    18.2656

          k = 0.1875 0.1875 0.3125 (  1858 PWs)   bands (ev):

   -47.6200 -47.5063 -21.7128 -21.5632 -21.5592 -21.2552 -21.2046 -21.1167
    12.2427  14.3987  14.4739  15.4733  15.5485  15.7968  18.0303  18.2299
    18.5722

          k = 0.1875 0.1875 0.4375 (  1854 PWs)   bands (ev):

   -47.5796 -47.5395 -21.7222 -21.6685 -21.4419 -21.3172 -21.1870 -21.1396
    13.1908  13.9577  14.8507  15.1845  15.6874  15.8340  17.8173  17.8376
    18.7825

          k = 0.1875 0.3125 0.3125 (  1855 PWs)   bands (ev):

   -47.5960 -47.5198 -21.7403 -21.6614 -21.5338 -21.2441 -21.1906 -21.1303
    12.9337  14.2159  15.1444  15.1922  15.2858  15.4113  18.1819  18.2910
    18.5463

          k = 0.1875 0.3125 0.4375 (  1854 PWs)   bands (ev):

   -47.5677 -47.5407 -21.7664 -21.7394 -21.4386 -21.3318 -21.1516 -21.1348
    13.4654  13.8429  15.0455  15.0593  15.6671  15.7160  18.1579  18.2353
    18.7399

          k = 0.1875 0.4375 0.4375 (  1840 PWs)   bands (ev):

   -47.5554 -47.5455 -21.8033 -21.7945 -21.3952 -21.3528 -21.1397 -21.1375
    13.4891  13.5842  14.8887  14.9258  16.2626  16.2842  18.3847  18.4480
    18.7008

          k = 0.3125 0.3125 0.3125 (  1848 PWs)   bands (ev):

   -47.5782 -47.5272 -21.6964 -21.6362 -21.6362 -21.2284 -21.2284 -21.1669
    13.7311  14.5849  14.9978  14.9978  15.0307  15.0307  18.5205  18.5205
    18.6052

          k = 0.3125 0.3125 0.4375 (  1844 PWs)   bands (ev):

   -47.5580 -47.5399 -21.7199 -21.7033 -21.5019 -21.3585 -21.1998 -21.1736
    14.1338  14.2756  14.8878  14.9132  15.2210  15.4363  18.4506  18.4661
    18.7109

          k = 0.3125 0.4375 0.4375 (  1854 PWs)   bands (ev):

   -47.5488 -47.5417 -21.7072 -21.6904 -21.4718 -21.3918 -21.2452 -21.2173
    14.2530  14.2767  14.7906  14.8545  15.4877  15.6030  18.5917  18.6075
    18.7231

          k = 0.4375 0.4375 0.4375 (  1868 PWs)   bands (ev):

   -47.5436 -47.5396 -21.6154 -21.5442 -21.5442 -21.3878 -21.3878 -21.3150
    14.5990  14.8273  14.8273  15.0620  15.0907  15.0907  18.7320  18.7320
    18.7348

     the Fermi energy is    16.0313 ev

!    total energy              =    -291.09274008 Ry
     Harris-Foulkes estimate   =    -291.09274047 Ry
     estimated scf accuracy    <       0.00000044 Ry

     The total energy is the sum of the following terms:

     one-electron contribution =     -95.00808494 Ry
     hartree contribution      =      59.37026370 Ry
     xc contribution           =     -40.62791159 Ry
     ewald contribution        =    -214.82514739 Ry
     smearing contrib. (-TS)   =      -0.00185986 Ry

     total magnetization       =     0.00 Bohr mag/cell
     absolute magnetization    =     0.00 Bohr mag/cell

     convergence has been achieved in  13 iterations

     Writing output data file v-13.save/

     init_run     :      0.90s CPU      0.98s WALL (       1 calls)
     electrons    :     13.70s CPU     14.81s WALL (       1 calls)

     Called by init_run:
     wfcinit      :      0.23s CPU      0.23s WALL (       1 calls)
     potinit      :      0.11s CPU      0.11s WALL (       1 calls)
     hinit0       :      0.28s CPU      0.28s WALL (       1 calls)

     Called by electrons:
     c_bands      :      8.57s CPU      8.83s WALL (      14 calls)
     sum_band     :      3.26s CPU      3.69s WALL (      14 calls)
     v_of_rho     :      0.77s CPU      0.80s WALL (      14 calls)
     newd         :      1.19s CPU      1.62s WALL (      14 calls)
     mix_rho      :      0.06s CPU      0.07s WALL (      14 calls)

     Called by c_bands:
     init_us_2    :      0.14s CPU      0.15s WALL (    1160 calls)
     cegterg      :      8.04s CPU      8.28s WALL (     560 calls)

     Called by sum_band:
     sum_band:bec :      0.01s CPU      0.01s WALL (     560 calls)
     addusdens    :      1.92s CPU      2.32s WALL (      14 calls)

     Called by *egterg:
     h_psi        :      4.56s CPU      4.71s WALL (    2278 calls)
     s_psi        :      0.47s CPU      0.48s WALL (    2278 calls)
     g_psi        :      0.04s CPU      0.04s WALL (    1678 calls)
     cdiaghg      :      1.14s CPU      1.16s WALL (    2198 calls)

     Called by h_psi:
     h_psi:pot    :      4.54s CPU      4.69s WALL (    2278 calls)
     h_psi:calbec :      0.70s CPU      0.73s WALL (    2278 calls)
     vloc_psi     :      3.37s CPU      3.48s WALL (    2278 calls)
     add_vuspsi   :      0.46s CPU      0.48s WALL (    2278 calls)

     General routines
     calbec       :      0.96s CPU      0.99s WALL (    2838 calls)
     fft          :      0.37s CPU      0.39s WALL (     346 calls)
     ffts         :      0.01s CPU      0.01s WALL (      56 calls)
     fftw         :      3.51s CPU      3.62s WALL (   58570 calls)
     interpolate  :      0.04s CPU      0.04s WALL (      28 calls)

     Parallel routines
     fft_scatt_xy :      0.46s CPU      0.47s WALL (   58972 calls)
     fft_scatt_yz :      2.05s CPU      2.12s WALL (   58972 calls)

     PWSCF        :     16.03s CPU     17.25s WALL


   This run was terminated on:  13:47: 3  10Mar2022            

=------------------------------------------------------------------------------=
   JOB DONE.
=------------------------------------------------------------------------------=
