
     Program PWSCF v.6.4.1 starts on 10Mar2022 at 13:44:30 

     This program is part of the open-source Quantum ESPRESSO suite
     for quantum simulation of materials; please cite
         "P. Giannozzi et al., J. Phys.:Condens. Matter 21 395502 (2009);
         "P. Giannozzi et al., J. Phys.:Condens. Matter 29 465901 (2017);
          URL http://www.quantum-espresso.org", 
     in publications or presentations arising from this work. More details at
     http://www.quantum-espresso.org/quote

     Parallel version (MPI), running on     6 processors

     MPI processes distributed on     1 nodes
     R & G space division:  proc/nbgrp/npool/nimage =       6
     Reading input from v-4.in

     Current dimensions of program PWSCF are:
     Max number of different atomic species (ntypx) = 10
     Max number of k-points (npk) =  40000
     Max angular momentum in pseudopotentials (lmaxx) =  3
               file V.pbe-spnl-rrkjus_psl.1.0.0.UPF: wavefunction(s)  3P 3D renormalized
               file V.pbe-spnl-rrkjus_psl.1.0.0.UPF: wavefunction(s)  3P 3D renormalized

     Subspace diagonalization in iterative solution of the eigenvalue problem:
     a serial algorithm will be used

     Message from routine setup:
     DEPRECATED: symmetry with ibrav=0, use correct ibrav instead

     Parallelization info
     --------------------
     sticks:   dense  smooth     PW     G-vecs:    dense   smooth      PW
     Min         122     122     36                 2465     2465     418
     Max         123     123     37                 2466     2466     421
     Sum         733     733    221                14795    14795    2517



     bravais-lattice index     =            0
     lattice parameter (alat)  =       5.7259  a.u.
     unit-cell volume          =     187.7260 (a.u.)^3
     number of atoms/cell      =            2
     number of atomic types    =            2
     number of electrons       =        26.00
     number of Kohn-Sham states=           17
     kinetic-energy cutoff     =      70.0000  Ry
     charge density cutoff     =     280.0000  Ry
     convergence threshold     =      1.0E-06
     mixing beta               =       0.7000
     number of iterations used =            8  plain     mixing
     Exchange-correlation      = PBE ( 1  4  3  4 0 0)

     celldm(1)=   5.725870  celldm(2)=   0.000000  celldm(3)=   0.000000
     celldm(4)=   0.000000  celldm(5)=   0.000000  celldm(6)=   0.000000

     crystal axes: (cart. coord. in units of alat)
               a(1) = (   1.000000   0.000000   0.000000 )  
               a(2) = (   0.000000   1.000000   0.000000 )  
               a(3) = (   0.000000   0.000000   1.000000 )  

     reciprocal axes: (cart. coord. in units 2 pi/alat)
               b(1) = (  1.000000  0.000000  0.000000 )  
               b(2) = (  0.000000  1.000000  0.000000 )  
               b(3) = (  0.000000  0.000000  1.000000 )  


     PseudoPot. # 1 for V  read from file:
     /home/cristian/Escritorio/Proyecto_Grafeno/pseudopotenciales/V.pbe-spnl-rrkjus_psl.1.0.0.UPF
     MD5 check sum: 79b3eb63147daf0b665d9f1bcc691206
     Pseudo is Ultrasoft + core correction, Zval = 13.0
     Generated using "atomic" code by A. Dal Corso v.6.2.2
     Using radial grid of 1181 points,  6 beta functions with: 
                l(1) =   0
                l(2) =   0
                l(3) =   1
                l(4) =   1
                l(5) =   2
                l(6) =   2
     Q(r) pseudized with 0 coefficients 


     PseudoPot. # 2 for V  read from file:
     /home/cristian/Escritorio/Proyecto_Grafeno/pseudopotenciales/V.pbe-spnl-rrkjus_psl.1.0.0.UPF
     MD5 check sum: 79b3eb63147daf0b665d9f1bcc691206
     Pseudo is Ultrasoft + core correction, Zval = 13.0
     Generated using "atomic" code by A. Dal Corso v.6.2.2
     Using radial grid of 1181 points,  6 beta functions with: 
                l(1) =   0
                l(2) =   0
                l(3) =   1
                l(4) =   1
                l(5) =   2
                l(6) =   2
     Q(r) pseudized with 0 coefficients 


     atomic species   valence    mass     pseudopotential
        V1            13.00    50.94150     V ( 1.00)
        V2            13.00    50.94150     V ( 1.00)

     Starting magnetic structure 
     atomic species   magnetization
        V1           0.100
        V2          -0.100

     48 Sym. Ops., with inversion, found



   Cartesian axes

     site n.     atom                  positions (alat units)
         1           V1  tau(   1) = (   0.0000000   0.0000000   0.0000000  )
         2           V2  tau(   2) = (   0.5000000   0.5000000   0.5000000  )

     number of k points=    20  Methfessel-Paxton smearing, width (Ry)=  0.0300
                       cart. coord. in units 2pi/alat
        k(    1) = (   0.0625000   0.0625000   0.0625000), wk =   0.0156250
        k(    2) = (   0.0625000   0.0625000   0.1875000), wk =   0.0468750
        k(    3) = (   0.0625000   0.0625000   0.3125000), wk =   0.0468750
        k(    4) = (   0.0625000   0.0625000   0.4375000), wk =   0.0468750
        k(    5) = (   0.0625000   0.1875000   0.1875000), wk =   0.0468750
        k(    6) = (   0.0625000   0.1875000   0.3125000), wk =   0.0937500
        k(    7) = (   0.0625000   0.1875000   0.4375000), wk =   0.0937500
        k(    8) = (   0.0625000   0.3125000   0.3125000), wk =   0.0468750
        k(    9) = (   0.0625000   0.3125000   0.4375000), wk =   0.0937500
        k(   10) = (   0.0625000   0.4375000   0.4375000), wk =   0.0468750
        k(   11) = (   0.1875000   0.1875000   0.1875000), wk =   0.0156250
        k(   12) = (   0.1875000   0.1875000   0.3125000), wk =   0.0468750
        k(   13) = (   0.1875000   0.1875000   0.4375000), wk =   0.0468750
        k(   14) = (   0.1875000   0.3125000   0.3125000), wk =   0.0468750
        k(   15) = (   0.1875000   0.3125000   0.4375000), wk =   0.0937500
        k(   16) = (   0.1875000   0.4375000   0.4375000), wk =   0.0468750
        k(   17) = (   0.3125000   0.3125000   0.3125000), wk =   0.0156250
        k(   18) = (   0.3125000   0.3125000   0.4375000), wk =   0.0468750
        k(   19) = (   0.3125000   0.4375000   0.4375000), wk =   0.0468750
        k(   20) = (   0.4375000   0.4375000   0.4375000), wk =   0.0156250

     Dense  grid:    14795 G-vectors     FFT dimensions: (  32,  32,  32)

     Estimated max dynamical RAM per process >      15.49 MB

     Estimated total dynamical RAM >      92.93 MB
     Generating pointlists ...
     new r_m :   0.3572 (alat units)  2.0455 (a.u.) for type    1
     new r_m :   0.3572 (alat units)  2.0455 (a.u.) for type    2

     Check: negative core charge=   -0.000035

     Initial potential from superposition of free atoms

     starting charge   25.99818, renormalised to   26.00000
     Starting wfcs are   20 randomized atomic wfcs

     total cpu time spent up to now is        1.8 secs

     Self-consistent Calculation

     iteration #  1     ecut=    70.00 Ry     beta= 0.70
     Davidson diagonalization with overlap
     ethr =  1.00E-02,  avg # of iterations =  2.5

     Threshold (ethr) on eigenvalues was too large:
     Diagonalizing with lowered threshold

     Davidson diagonalization with overlap
     ethr =  5.01E-04,  avg # of iterations =  2.3

     total cpu time spent up to now is        3.2 secs

     total energy              =    -291.02957909 Ry
     Harris-Foulkes estimate   =    -291.10842686 Ry
     estimated scf accuracy    <       0.14094015 Ry

     total magnetization       =    -0.00 Bohr mag/cell
     absolute magnetization    =     1.30 Bohr mag/cell

     iteration #  2     ecut=    70.00 Ry     beta= 0.70
     Davidson diagonalization with overlap
     ethr =  5.42E-04,  avg # of iterations =  3.1

     total cpu time spent up to now is        4.2 secs

     total energy              =    -291.05767552 Ry
     Harris-Foulkes estimate   =    -291.11997044 Ry
     estimated scf accuracy    <       0.12382426 Ry

     total magnetization       =    -0.00 Bohr mag/cell
     absolute magnetization    =     1.40 Bohr mag/cell

     iteration #  3     ecut=    70.00 Ry     beta= 0.70
     Davidson diagonalization with overlap
     ethr =  4.76E-04,  avg # of iterations =  3.0

     total cpu time spent up to now is        4.9 secs

     total energy              =    -291.08741363 Ry
     Harris-Foulkes estimate   =    -291.08637352 Ry
     estimated scf accuracy    <       0.00327631 Ry

     total magnetization       =     0.00 Bohr mag/cell
     absolute magnetization    =     1.13 Bohr mag/cell

     iteration #  4     ecut=    70.00 Ry     beta= 0.70
     Davidson diagonalization with overlap
     ethr =  1.26E-05,  avg # of iterations =  4.6

     total cpu time spent up to now is        6.0 secs

     total energy              =    -291.09000724 Ry
     Harris-Foulkes estimate   =    -291.09036402 Ry
     estimated scf accuracy    <       0.00465983 Ry

     total magnetization       =    -0.02 Bohr mag/cell
     absolute magnetization    =     0.76 Bohr mag/cell

     iteration #  5     ecut=    70.00 Ry     beta= 0.70
     Davidson diagonalization with overlap
     ethr =  1.26E-05,  avg # of iterations =  1.2

     total cpu time spent up to now is        6.6 secs

     total energy              =    -291.09081789 Ry
     Harris-Foulkes estimate   =    -291.09020707 Ry
     estimated scf accuracy    <       0.00076423 Ry

     total magnetization       =     0.00 Bohr mag/cell
     absolute magnetization    =     0.74 Bohr mag/cell

     iteration #  6     ecut=    70.00 Ry     beta= 0.70
     Davidson diagonalization with overlap
     ethr =  2.94E-06,  avg # of iterations =  4.1

     total cpu time spent up to now is        7.4 secs

     total energy              =    -291.09015572 Ry
     Harris-Foulkes estimate   =    -291.09167343 Ry
     estimated scf accuracy    <       0.00080071 Ry

     total magnetization       =     0.01 Bohr mag/cell
     absolute magnetization    =     0.49 Bohr mag/cell

     iteration #  7     ecut=    70.00 Ry     beta= 0.70
     Davidson diagonalization with overlap
     ethr =  2.94E-06,  avg # of iterations =  5.0

     total cpu time spent up to now is        8.4 secs

     total energy              =    -291.09267578 Ry
     Harris-Foulkes estimate   =    -291.09279888 Ry
     estimated scf accuracy    <       0.00118615 Ry

     total magnetization       =     0.00 Bohr mag/cell
     absolute magnetization    =     0.04 Bohr mag/cell

     iteration #  8     ecut=    70.00 Ry     beta= 0.70
     Davidson diagonalization with overlap
     ethr =  2.94E-06,  avg # of iterations =  1.0

     total cpu time spent up to now is        9.0 secs

     total energy              =    -291.09271723 Ry
     Harris-Foulkes estimate   =    -291.09272692 Ry
     estimated scf accuracy    <       0.00010255 Ry

     total magnetization       =     0.00 Bohr mag/cell
     absolute magnetization    =     0.03 Bohr mag/cell

     iteration #  9     ecut=    70.00 Ry     beta= 0.70
     Davidson diagonalization with overlap
     ethr =  3.94E-07,  avg # of iterations =  4.9

     total cpu time spent up to now is        9.8 secs

     total energy              =    -291.09275470 Ry
     Harris-Foulkes estimate   =    -291.09276261 Ry
     estimated scf accuracy    <       0.00011477 Ry

     total magnetization       =     0.01 Bohr mag/cell
     absolute magnetization    =     0.01 Bohr mag/cell

     iteration # 10     ecut=    70.00 Ry     beta= 0.70
     Davidson diagonalization with overlap
     ethr =  3.94E-07,  avg # of iterations =  1.0

     total cpu time spent up to now is       10.4 secs

     total energy              =    -291.09275194 Ry
     Harris-Foulkes estimate   =    -291.09275775 Ry
     estimated scf accuracy    <       0.00004243 Ry

     total magnetization       =     0.00 Bohr mag/cell
     absolute magnetization    =     0.01 Bohr mag/cell

     iteration # 11     ecut=    70.00 Ry     beta= 0.70
     Davidson diagonalization with overlap
     ethr =  1.63E-07,  avg # of iterations =  2.2

     total cpu time spent up to now is       11.1 secs

     total energy              =    -291.09275525 Ry
     Harris-Foulkes estimate   =    -291.09275582 Ry
     estimated scf accuracy    <       0.00000104 Ry

     total magnetization       =     0.00 Bohr mag/cell
     absolute magnetization    =     0.02 Bohr mag/cell

     iteration # 12     ecut=    70.00 Ry     beta= 0.70
     Davidson diagonalization with overlap
     ethr =  4.01E-09,  avg # of iterations =  4.7

     total cpu time spent up to now is       12.0 secs

     total energy              =    -291.09275715 Ry
     Harris-Foulkes estimate   =    -291.09275744 Ry
     estimated scf accuracy    <       0.00000397 Ry

     total magnetization       =     0.00 Bohr mag/cell
     absolute magnetization    =     0.01 Bohr mag/cell

     iteration # 13     ecut=    70.00 Ry     beta= 0.70
     Davidson diagonalization with overlap
     ethr =  4.01E-09,  avg # of iterations =  2.3

     Magnetic moment per site:
     atom:    1    charge:   11.3140    magn:    0.0020    constr:    0.0000
     atom:    2    charge:   11.3154    magn:   -0.0008    constr:    0.0000

     total cpu time spent up to now is       12.7 secs

     End of self-consistent calculation

 ------ SPIN UP ------------


          k = 0.0625 0.0625 0.0625 (  1860 PWs)   bands (ev):

   -47.7190 -47.4405 -21.6313 -21.6313 -21.5868 -21.1206 -21.0734 -21.0734
     9.7034  13.2918  13.2918  16.3565  16.3565  16.6197  18.3128  18.3128
    19.0355

          k = 0.0625 0.0625 0.1875 (  1853 PWs)   bands (ev):

   -47.6944 -47.4582 -21.6552 -21.5865 -21.5229 -21.2203 -21.1134 -21.0907
    10.2910  13.5849  13.6016  16.2200  16.2937  16.9445  17.9171  18.1991
    18.4974

          k = 0.0625 0.0625 0.3125 (  1867 PWs)   bands (ev):

   -47.6505 -47.4925 -21.6504 -21.5050 -21.4376 -21.3600 -21.1886 -21.1494
    11.3497  13.8699  14.1895  16.1917  16.2109  17.2780  17.3651  17.4024
    17.8968

          k = 0.0625 0.0625 0.4375 (  1862 PWs)   bands (ev):

   -47.5958 -47.5403 -21.6004 -21.4985 -21.4000 -21.3377 -21.2888 -21.2366
    12.6128  13.6056  14.9806  15.7924  16.4016  16.7815  16.9236  17.2214
    17.9630

          k = 0.0625 0.1875 0.1875 (  1870 PWs)   bands (ev):

   -47.6730 -47.4726 -21.7008 -21.5624 -21.4334 -21.3428 -21.1425 -21.0755
    10.8317  13.7864  13.9492  15.9063  16.1049  17.3077  17.4670  18.0530
    18.3295

          k = 0.0625 0.1875 0.3125 (  1855 PWs)   bands (ev):

   -47.6348 -47.5008 -21.7297 -21.4922 -21.4895 -21.3362 -21.2067 -21.0980
    11.7756  13.9595  14.4911  15.7112  15.9220  16.5693  17.7290  17.7849
    18.0860

          k = 0.0625 0.1875 0.4375 (  1859 PWs)   bands (ev):

   -47.5878 -47.5407 -21.7077 -21.6244 -21.3945 -21.2948 -21.2407 -21.1572
    12.8388  13.6628  15.0751  15.5486  15.8655  16.1159  17.5209  17.5556
    18.6490

          k = 0.0625 0.3125 0.3125 (  1856 PWs)   bands (ev):

   -47.6074 -47.5178 -21.7977 -21.6411 -21.4380 -21.2465 -21.2373 -21.0784
    12.4130  13.7632  15.1985  15.3468  15.8878  15.9332  17.6406  18.1681
    18.5435

          k = 0.0625 0.3125 0.4375 (  1857 PWs)   bands (ev):

   -47.5746 -47.5431 -21.8122 -21.7576 -21.3711 -21.3038 -21.1555 -21.0997
    12.9729  13.4059  15.2346  15.4090  15.9010  16.1470  17.8987  18.1323
    18.8409

          k = 0.0625 0.4375 0.4375 (  1849 PWs)   bands (ev):

   -47.5606 -47.5495 -21.8654 -21.8465 -21.3436 -21.3199 -21.1001 -21.0805
    12.9937  13.1206  14.9888  15.0554  16.8487  17.0389  18.2296  18.3621
    18.6822

          k = 0.1875 0.1875 0.1875 (  1869 PWs)   bands (ev):

   -47.6542 -47.4842 -21.6510 -21.6510 -21.4392 -21.3410 -21.1207 -21.1207
    11.3542  14.1410  14.1410  15.7334  15.7334  16.3609  18.0684  18.2651
    18.2651

          k = 0.1875 0.1875 0.3125 (  1858 PWs)   bands (ev):

   -47.6209 -47.5073 -21.7135 -21.5639 -21.5599 -21.2559 -21.2053 -21.1174
    12.2421  14.3982  14.4734  15.4725  15.5476  15.7959  18.0297  18.2291
    18.5717

          k = 0.1875 0.1875 0.4375 (  1854 PWs)   bands (ev):

   -47.5805 -47.5405 -21.7229 -21.6692 -21.4426 -21.3180 -21.1877 -21.1403
    13.1902  13.9570  14.8501  15.1838  15.6865  15.8332  17.8167  17.8368
    18.7819

          k = 0.1875 0.3125 0.3125 (  1855 PWs)   bands (ev):

   -47.5969 -47.5208 -21.7410 -21.6621 -21.5345 -21.2448 -21.1913 -21.1310
    12.9331  14.2153  15.1438  15.1913  15.2850  15.4105  18.1811  18.2904
    18.5458

          k = 0.1875 0.3125 0.4375 (  1854 PWs)   bands (ev):

   -47.5685 -47.5418 -21.7671 -21.7402 -21.4393 -21.3326 -21.1523 -21.1356
    13.4647  13.8422  15.0446  15.0585  15.6664  15.7154  18.1572  18.2347
    18.7394

          k = 0.1875 0.4375 0.4375 (  1840 PWs)   bands (ev):

   -47.5561 -47.5467 -21.8040 -21.7952 -21.3958 -21.3536 -21.1404 -21.1382
    13.4884  13.5835  14.8878  14.9249  16.2619  16.2836  18.3841  18.4474
    18.7002

          k = 0.3125 0.3125 0.3125 (  1848 PWs)   bands (ev):

   -47.5791 -47.5282 -21.6971 -21.6369 -21.6369 -21.2291 -21.2291 -21.1676
    13.7305  14.5841  14.9969  14.9969  15.0301  15.0301  18.5200  18.5200
    18.6045

          k = 0.3125 0.3125 0.4375 (  1844 PWs)   bands (ev):

   -47.5589 -47.5410 -21.7206 -21.7041 -21.5026 -21.3593 -21.2005 -21.1743
    14.1331  14.2748  14.8871  14.9125  15.2202  15.4356  18.4500  18.4655
    18.7102

          k = 0.3125 0.4375 0.4375 (  1854 PWs)   bands (ev):

   -47.5494 -47.5431 -21.7079 -21.6911 -21.4725 -21.3925 -21.2460 -21.2181
    14.2523  14.2759  14.7898  14.8537  15.4869  15.6023  18.5911  18.6069
    18.7221

          k = 0.4375 0.4375 0.4375 (  1868 PWs)   bands (ev):

   -47.5437 -47.5414 -21.6161 -21.5449 -21.5449 -21.3886 -21.3886 -21.3157
    14.5982  14.8265  14.8265  15.0613  15.0899  15.0899  18.7323  18.7331
    18.7335

 ------ SPIN DOWN ----------


          k = 0.0625 0.0625 0.0625 (  1860 PWs)   bands (ev):

   -47.7182 -47.4397 -21.6305 -21.6305 -21.5860 -21.1199 -21.0726 -21.0726
     9.7040  13.2922  13.2922  16.3575  16.3575  16.6207  18.3132  18.3132
    19.0364

          k = 0.0625 0.0625 0.1875 (  1853 PWs)   bands (ev):

   -47.6937 -47.4574 -21.6544 -21.5858 -21.5221 -21.2196 -21.1127 -21.0899
    10.2916  13.5853  13.6020  16.2209  16.2946  16.9454  17.9175  18.2000
    18.4978

          k = 0.0625 0.0625 0.3125 (  1867 PWs)   bands (ev):

   -47.6497 -47.4917 -21.6496 -21.5042 -21.4369 -21.3592 -21.1878 -21.1486
    11.3503  13.8703  14.1900  16.1926  16.2119  17.2786  17.3660  17.4034
    17.8978

          k = 0.0625 0.0625 0.4375 (  1862 PWs)   bands (ev):

   -47.5951 -47.5395 -21.5996 -21.4977 -21.3992 -21.3369 -21.2880 -21.2358
    12.6134  13.6062  14.9810  15.7929  16.4026  16.7824  16.9244  17.2223
    17.9641

          k = 0.0625 0.1875 0.1875 (  1870 PWs)   bands (ev):

   -47.6722 -47.4718 -21.7000 -21.5617 -21.4327 -21.3420 -21.1417 -21.0747
    10.8323  13.7869  13.9496  15.9073  16.1058  17.3087  17.4680  18.0535
    18.3304

          k = 0.0625 0.1875 0.3125 (  1855 PWs)   bands (ev):

   -47.6341 -47.5000 -21.7289 -21.4915 -21.4888 -21.3354 -21.2059 -21.0973
    11.7762  13.9600  14.4915  15.7121  15.9228  16.5702  17.7299  17.7854
    18.0869

          k = 0.0625 0.1875 0.4375 (  1859 PWs)   bands (ev):

   -47.5871 -47.5399 -21.7069 -21.6237 -21.3938 -21.2940 -21.2399 -21.1564
    12.8394  13.6634  15.0756  15.5493  15.8664  16.1168  17.5217  17.5563
    18.6498

          k = 0.0625 0.3125 0.3125 (  1856 PWs)   bands (ev):

   -47.6067 -47.5170 -21.7970 -21.6404 -21.4372 -21.2458 -21.2365 -21.0776
    12.4136  13.7638  15.1990  15.3477  15.8887  15.9339  17.6413  18.1687
    18.5439

          k = 0.0625 0.3125 0.4375 (  1857 PWs)   bands (ev):

   -47.5740 -47.5423 -21.8114 -21.7568 -21.3704 -21.3029 -21.1547 -21.0990
    12.9735  13.4066  15.2355  15.4099  15.9015  16.1476  17.8994  18.1330
    18.8414

          k = 0.0625 0.4375 0.4375 (  1849 PWs)   bands (ev):

   -47.5601 -47.5485 -21.8647 -21.8457 -21.3429 -21.3190 -21.0994 -21.0797
    12.9944  13.1213  14.9897  15.0564  16.8492  17.0395  18.2302  18.3627
    18.6835

          k = 0.1875 0.1875 0.1875 (  1869 PWs)   bands (ev):

   -47.6534 -47.4834 -21.6502 -21.6502 -21.4385 -21.3402 -21.1199 -21.1199
    11.3548  14.1414  14.1414  15.7343  15.7343  16.3618  18.0694  18.2656
    18.2656

          k = 0.1875 0.1875 0.3125 (  1858 PWs)   bands (ev):

   -47.6202 -47.5065 -21.7127 -21.5631 -21.5591 -21.2551 -21.2045 -21.1166
    12.2427  14.3987  14.4739  15.4734  15.5485  15.7968  18.0303  18.2299
    18.5722

          k = 0.1875 0.1875 0.4375 (  1854 PWs)   bands (ev):

   -47.5798 -47.5397 -21.7222 -21.6684 -21.4418 -21.3172 -21.1869 -21.1395
    13.1908  13.9577  14.8507  15.1845  15.6874  15.8340  17.8173  17.8376
    18.7825

          k = 0.1875 0.3125 0.3125 (  1855 PWs)   bands (ev):

   -47.5962 -47.5201 -21.7402 -21.6613 -21.5337 -21.2440 -21.1905 -21.1302
    12.9337  14.2159  15.1444  15.1922  15.2858  15.4113  18.1819  18.2909
    18.5463

          k = 0.1875 0.3125 0.4375 (  1854 PWs)   bands (ev):

   -47.5679 -47.5410 -21.7664 -21.7394 -21.4386 -21.3318 -21.1516 -21.1348
    13.4654  13.8429  15.0455  15.0593  15.6671  15.7161  18.1579  18.2353
    18.7399

          k = 0.1875 0.4375 0.4375 (  1840 PWs)   bands (ev):

   -47.5556 -47.5457 -21.8032 -21.7945 -21.3951 -21.3527 -21.1396 -21.1374
    13.4891  13.5843  14.8887  14.9258  16.2626  16.2842  18.3847  18.4480
    18.7007

          k = 0.3125 0.3125 0.3125 (  1848 PWs)   bands (ev):

   -47.5784 -47.5274 -21.6963 -21.6362 -21.6362 -21.2283 -21.2283 -21.1668
    13.7311  14.5849  14.9978  14.9978  15.0307  15.0307  18.5204  18.5204
    18.6052

          k = 0.3125 0.3125 0.4375 (  1844 PWs)   bands (ev):

   -47.5583 -47.5401 -21.7198 -21.7033 -21.5018 -21.3585 -21.1997 -21.1735
    14.1339  14.2756  14.8878  14.9132  15.2210  15.4364  18.4506  18.4661
    18.7109

          k = 0.3125 0.4375 0.4375 (  1854 PWs)   bands (ev):

   -47.5490 -47.5419 -21.7071 -21.6903 -21.4717 -21.3917 -21.2452 -21.2173
    14.2530  14.2767  14.7906  14.8545  15.4877  15.6030  18.5916  18.6075
    18.7231

          k = 0.4375 0.4375 0.4375 (  1868 PWs)   bands (ev):

   -47.5438 -47.5398 -21.6154 -21.5442 -21.5442 -21.3878 -21.3878 -21.3150
    14.5990  14.8273  14.8273  15.0620  15.0907  15.0907  18.7319  18.7320
    18.7347

     the Fermi energy is    16.0314 ev

!    total energy              =    -291.09275699 Ry
     Harris-Foulkes estimate   =    -291.09275739 Ry
     estimated scf accuracy    <       0.00000044 Ry

     The total energy is the sum of the following terms:

     one-electron contribution =     -95.00816938 Ry
     hartree contribution      =      59.37035527 Ry
     xc contribution           =     -40.62793570 Ry
     ewald contribution        =    -214.82514739 Ry
     smearing contrib. (-TS)   =      -0.00185979 Ry

     total magnetization       =     0.00 Bohr mag/cell
     absolute magnetization    =     0.00 Bohr mag/cell

     convergence has been achieved in  13 iterations

     Writing output data file v-4.save/

     init_run     :      0.46s CPU      0.46s WALL (       1 calls)
     electrons    :     10.60s CPU     10.81s WALL (       1 calls)

     Called by init_run:
     wfcinit      :      0.25s CPU      0.26s WALL (       1 calls)
     potinit      :      0.02s CPU      0.02s WALL (       1 calls)
     hinit0       :      0.16s CPU      0.16s WALL (       1 calls)

     Called by electrons:
     c_bands      :      8.85s CPU      9.00s WALL (      14 calls)
     sum_band     :      1.41s CPU      1.46s WALL (      14 calls)
     v_of_rho     :      0.13s CPU      0.13s WALL (      14 calls)
     newd         :      0.21s CPU      0.21s WALL (      14 calls)
     mix_rho      :      0.02s CPU      0.02s WALL (      14 calls)

     Called by c_bands:
     init_us_2    :      0.15s CPU      0.16s WALL (    1160 calls)
     cegterg      :      8.26s CPU      8.41s WALL (     560 calls)

     Called by sum_band:
     sum_band:bec :      0.01s CPU      0.01s WALL (     560 calls)
     addusdens    :      0.33s CPU      0.33s WALL (      14 calls)

     Called by *egterg:
     h_psi        :      4.72s CPU      4.81s WALL (    2277 calls)
     s_psi        :      0.45s CPU      0.46s WALL (    2277 calls)
     g_psi        :      0.04s CPU      0.04s WALL (    1677 calls)
     cdiaghg      :      1.15s CPU      1.17s WALL (    2197 calls)

     Called by h_psi:
     h_psi:pot    :      4.70s CPU      4.79s WALL (    2277 calls)
     h_psi:calbec :      0.73s CPU      0.75s WALL (    2277 calls)
     vloc_psi     :      3.52s CPU      3.58s WALL (    2277 calls)
     add_vuspsi   :      0.45s CPU      0.46s WALL (    2277 calls)

     General routines
     calbec       :      0.98s CPU      1.01s WALL (    2837 calls)
     fft          :      0.05s CPU      0.05s WALL (     294 calls)
     ffts         :      0.00s CPU      0.00s WALL (      28 calls)
     fftw         :      3.68s CPU      3.76s WALL (   58576 calls)

     Parallel routines
     fft_scatt_xy :      0.45s CPU      0.46s WALL (   58898 calls)
     fft_scatt_yz :      2.02s CPU      2.07s WALL (   58898 calls)

     PWSCF        :     12.48s CPU     12.76s WALL


   This run was terminated on:  13:44:42  10Mar2022            

=------------------------------------------------------------------------------=
   JOB DONE.
=------------------------------------------------------------------------------=
