
     Program PWSCF v.6.4.1 starts on 26May2022 at 19:39:39 

     This program is part of the open-source Quantum ESPRESSO suite
     for quantum simulation of materials; please cite
         "P. Giannozzi et al., J. Phys.:Condens. Matter 21 395502 (2009);
         "P. Giannozzi et al., J. Phys.:Condens. Matter 29 465901 (2017);
          URL http://www.quantum-espresso.org", 
     in publications or presentations arising from this work. More details at
     http://www.quantum-espresso.org/quote

     Parallel version (MPI), running on     6 processors

     MPI processes distributed on     1 nodes
     R & G space division:  proc/nbgrp/npool/nimage =       6
     Reading input from c-3.57102.in

     Current dimensions of program PWSCF are:
     Max number of different atomic species (ntypx) = 10
     Max number of k-points (npk) =  40000
     Max angular momentum in pseudopotentials (lmaxx) =  3

     Subspace diagonalization in iterative solution of the eigenvalue problem:
     a serial algorithm will be used

     Message from routine setup:
     DEPRECATED: symmetry with ibrav=0, use correct ibrav instead

     Parallelization info
     --------------------
     sticks:   dense  smooth     PW     G-vecs:    dense   smooth      PW
     Min         337     193     58                11447     4951     800
     Max         338     194     59                11452     4953     801
     Sum        2025    1161    349                68699    29711    4801



     bravais-lattice index     =            0
     lattice parameter (alat)  =       6.7482  a.u.
     unit-cell volume          =     307.3077 (a.u.)^3
     number of atoms/cell      =            8
     number of atomic types    =            1
     number of electrons       =        32.00
     number of Kohn-Sham states=           20
     kinetic-energy cutoff     =      80.0000  Ry
     charge density cutoff     =     560.0000  Ry
     convergence threshold     =      1.0E-06
     mixing beta               =       0.7000
     number of iterations used =            8  plain     mixing
     Exchange-correlation      = PBE ( 1  4  3  4 0 0)
     nstep                     =           50


     celldm(1)=   6.748250  celldm(2)=   0.000000  celldm(3)=   0.000000
     celldm(4)=   0.000000  celldm(5)=   0.000000  celldm(6)=   0.000000

     crystal axes: (cart. coord. in units of alat)
               a(1) = (   1.000000   0.000000   0.000000 )  
               a(2) = (   0.000000   1.000000   0.000000 )  
               a(3) = (   0.000000   0.000000   1.000000 )  

     reciprocal axes: (cart. coord. in units 2 pi/alat)
               b(1) = (  1.000000  0.000000  0.000000 )  
               b(2) = (  0.000000  1.000000  0.000000 )  
               b(3) = (  0.000000  0.000000  1.000000 )  


     PseudoPot. # 1 for C  read from file:
     /home/cristian/Escritorio/Proyecto_Grafeno/pseudopotenciales/C.pbe-n-rrkjus_psl.1.0.0.UPF
     MD5 check sum: 1fdd950c42eb37d8afe3dd2f8d12311e
     Pseudo is Ultrasoft + core correction, Zval =  4.0
     Generated using "atomic" code by A. Dal Corso v.6.3MaX
     Using radial grid of 1073 points,  4 beta functions with: 
                l(1) =   0
                l(2) =   0
                l(3) =   1
                l(4) =   1
     Q(r) pseudized with 0 coefficients 


     atomic species   valence    mass     pseudopotential
        C              4.00    12.01100     C ( 1.00)

      6 Sym. Ops. (no inversion) found


                                    s                        frac. trans.

      isym =  1     identity                                     

 cryst.   s( 1) = (     1          0          0      )
                  (     0          1          0      )
                  (     0          0          1      )

 cart.    s( 1) = (  1.0000000  0.0000000  0.0000000 )
                  (  0.0000000  1.0000000  0.0000000 )
                  (  0.0000000  0.0000000  1.0000000 )


      isym =  2     120 deg rotation - cart. axis [-1,-1,-1]     

 cryst.   s( 2) = (     0          0          1      )
                  (     1          0          0      )
                  (     0          1          0      )

 cart.    s( 2) = (  0.0000000  1.0000000  0.0000000 )
                  (  0.0000000  0.0000000  1.0000000 )
                  (  1.0000000  0.0000000  0.0000000 )


      isym =  3     120 deg rotation - cart. axis [1,1,1]        

 cryst.   s( 3) = (     0          1          0      )
                  (     0          0          1      )
                  (     1          0          0      )

 cart.    s( 3) = (  0.0000000  0.0000000  1.0000000 )
                  (  1.0000000  0.0000000  0.0000000 )
                  (  0.0000000  1.0000000  0.0000000 )


      isym =  4     inv. 180 deg rotation - cart. axis [1,-1,0]  

 cryst.   s( 4) = (     0          1          0      )
                  (     1          0          0      )
                  (     0          0          1      )

 cart.    s( 4) = (  0.0000000  1.0000000  0.0000000 )
                  (  1.0000000  0.0000000  0.0000000 )
                  (  0.0000000  0.0000000  1.0000000 )


      isym =  5     inv. 180 deg rotation - cart. axis [-1,0,1]  

 cryst.   s( 5) = (     0          0          1      )
                  (     0          1          0      )
                  (     1          0          0      )

 cart.    s( 5) = (  0.0000000  0.0000000  1.0000000 )
                  (  0.0000000  1.0000000  0.0000000 )
                  (  1.0000000  0.0000000  0.0000000 )


      isym =  6     inv. 180 deg rotation - cart. axis [0,1,-1]  

 cryst.   s( 6) = (     1          0          0      )
                  (     0          0          1      )
                  (     0          1          0      )

 cart.    s( 6) = (  1.0000000  0.0000000  0.0000000 )
                  (  0.0000000  0.0000000  1.0000000 )
                  (  0.0000000  1.0000000  0.0000000 )


   Cartesian axes

     site n.     atom                  positions (alat units)
         1           C   tau(   1) = (   0.0000000   0.0000000   0.0000000  )
         2           C   tau(   2) = (   0.4999972   0.4999972   0.0000000  )
         3           C   tau(   3) = (   0.0000000   0.4999972   0.4999972  )
         4           C   tau(   4) = (   0.4999972   0.0000000   0.4999972  )
         5           C   tau(   5) = (   0.2499846   0.2499846   0.2499846  )
         6           C   tau(   6) = (   0.7499986   0.7499986   0.2499846  )
         7           C   tau(   7) = (   0.2499846   0.7499986   0.7499986  )
         8           C   tau(   8) = (   0.7499986   0.2499846   0.7499986  )

   Crystallographic axes

     site n.     atom                  positions (cryst. coord.)
         1           C   tau(   1) = (  0.0000000  0.0000000  0.0000000  )
         2           C   tau(   2) = (  0.4999972  0.4999972  0.0000000  )
         3           C   tau(   3) = (  0.0000000  0.4999972  0.4999972  )
         4           C   tau(   4) = (  0.4999972  0.0000000  0.4999972  )
         5           C   tau(   5) = (  0.2499846  0.2499846  0.2499846  )
         6           C   tau(   6) = (  0.7499986  0.7499986  0.2499846  )
         7           C   tau(   7) = (  0.2499846  0.7499986  0.7499986  )
         8           C   tau(   8) = (  0.7499986  0.2499846  0.7499986  )

     number of k points=    65  Marzari-Vanderbilt smearing, width (Ry)=  0.0200
                       cart. coord. in units 2pi/alat
        k(    1) = (   0.0000000   0.0000000   0.0000000), wk =   0.0039062
        k(    2) = (   0.0000000   0.0000000   0.1250000), wk =   0.0234375
        k(    3) = (   0.0000000   0.0000000   0.2500000), wk =   0.0234375
        k(    4) = (   0.0000000   0.0000000   0.3750000), wk =   0.0234375
        k(    5) = (   0.0000000   0.0000000  -0.5000000), wk =   0.0117188
        k(    6) = (   0.0000000   0.1250000   0.1250000), wk =   0.0234375
        k(    7) = (   0.0000000   0.1250000   0.2500000), wk =   0.0468750
        k(    8) = (   0.0000000   0.1250000   0.3750000), wk =   0.0468750
        k(    9) = (   0.0000000   0.1250000  -0.5000000), wk =   0.0468750
        k(   10) = (   0.0000000   0.2500000   0.2500000), wk =   0.0234375
        k(   11) = (   0.0000000   0.2500000   0.3750000), wk =   0.0468750
        k(   12) = (   0.0000000   0.2500000  -0.5000000), wk =   0.0468750
        k(   13) = (   0.0000000   0.3750000   0.3750000), wk =   0.0234375
        k(   14) = (   0.0000000   0.3750000  -0.5000000), wk =   0.0468750
        k(   15) = (   0.0000000  -0.5000000  -0.5000000), wk =   0.0117188
        k(   16) = (   0.1250000   0.1250000   0.1250000), wk =   0.0078125
        k(   17) = (   0.1250000   0.1250000   0.2500000), wk =   0.0234375
        k(   18) = (   0.1250000   0.1250000   0.3750000), wk =   0.0234375
        k(   19) = (   0.1250000   0.1250000  -0.5000000), wk =   0.0234375
        k(   20) = (   0.1250000   0.2500000   0.2500000), wk =   0.0234375
        k(   21) = (   0.1250000   0.2500000   0.3750000), wk =   0.0468750
        k(   22) = (   0.1250000   0.2500000  -0.5000000), wk =   0.0468750
        k(   23) = (   0.1250000   0.3750000   0.3750000), wk =   0.0234375
        k(   24) = (   0.1250000   0.3750000  -0.5000000), wk =   0.0468750
        k(   25) = (   0.1250000  -0.5000000  -0.5000000), wk =   0.0234375
        k(   26) = (   0.2500000   0.2500000   0.2500000), wk =   0.0078125
        k(   27) = (   0.2500000   0.2500000   0.3750000), wk =   0.0234375
        k(   28) = (   0.2500000   0.2500000  -0.5000000), wk =   0.0234375
        k(   29) = (   0.2500000   0.3750000   0.3750000), wk =   0.0234375
        k(   30) = (   0.2500000   0.3750000  -0.5000000), wk =   0.0468750
        k(   31) = (   0.2500000  -0.5000000  -0.5000000), wk =   0.0234375
        k(   32) = (   0.3750000   0.3750000   0.3750000), wk =   0.0078125
        k(   33) = (   0.3750000   0.3750000  -0.5000000), wk =   0.0234375
        k(   34) = (   0.3750000  -0.5000000  -0.5000000), wk =   0.0234375
        k(   35) = (  -0.5000000  -0.5000000  -0.5000000), wk =   0.0039062
        k(   36) = (  -0.1250000   0.0000000   0.1250000), wk =   0.0234375
        k(   37) = (  -0.1250000   0.0000000   0.2500000), wk =   0.0468750
        k(   38) = (  -0.1250000   0.0000000   0.3750000), wk =   0.0468750
        k(   39) = (  -0.2500000   0.0000000   0.2500000), wk =   0.0234375
        k(   40) = (  -0.2500000   0.0000000   0.3750000), wk =   0.0468750
        k(   41) = (  -0.3750000   0.0000000   0.3750000), wk =   0.0234375
        k(   42) = (   0.1250000  -0.1250000   0.1250000), wk =   0.0234375
        k(   43) = (   0.1250000  -0.1250000   0.2500000), wk =   0.0468750
        k(   44) = (  -0.2500000   0.1250000   0.1250000), wk =   0.0234375
        k(   45) = (   0.1250000  -0.1250000   0.3750000), wk =   0.0468750
        k(   46) = (  -0.3750000   0.1250000   0.1250000), wk =   0.0234375
        k(   47) = (   0.1250000  -0.1250000  -0.5000000), wk =   0.0234375
        k(   48) = (   0.2500000  -0.1250000   0.2500000), wk =   0.0234375
        k(   49) = (  -0.2500000   0.1250000   0.2500000), wk =   0.0468750
        k(   50) = (   0.2500000  -0.1250000   0.3750000), wk =   0.0468750
        k(   51) = (  -0.2500000   0.1250000   0.3750000), wk =   0.0468750
        k(   52) = (  -0.3750000   0.2500000   0.1250000), wk =   0.0468750
        k(   53) = (   0.2500000  -0.1250000  -0.5000000), wk =   0.0468750
        k(   54) = (   0.3750000  -0.1250000   0.3750000), wk =   0.0234375
        k(   55) = (  -0.3750000   0.1250000   0.3750000), wk =   0.0468750
        k(   56) = (   0.3750000  -0.1250000  -0.5000000), wk =   0.0468750
        k(   57) = (   0.2500000  -0.2500000   0.2500000), wk =   0.0234375
        k(   58) = (   0.2500000  -0.2500000   0.3750000), wk =   0.0468750
        k(   59) = (  -0.3750000   0.2500000   0.2500000), wk =   0.0234375
        k(   60) = (   0.2500000  -0.2500000  -0.5000000), wk =   0.0234375
        k(   61) = (   0.3750000  -0.2500000   0.3750000), wk =   0.0234375
        k(   62) = (  -0.3750000   0.2500000   0.3750000), wk =   0.0468750
        k(   63) = (   0.3750000  -0.2500000  -0.5000000), wk =   0.0468750
        k(   64) = (   0.3750000  -0.3750000   0.3750000), wk =   0.0234375
        k(   65) = (   0.3750000  -0.3750000  -0.5000000), wk =   0.0234375

                       cryst. coord.
        k(    1) = (   0.0000000   0.0000000   0.0000000), wk =   0.0039062
        k(    2) = (   0.0000000   0.0000000   0.1250000), wk =   0.0234375
        k(    3) = (   0.0000000   0.0000000   0.2500000), wk =   0.0234375
        k(    4) = (   0.0000000   0.0000000   0.3750000), wk =   0.0234375
        k(    5) = (   0.0000000   0.0000000  -0.5000000), wk =   0.0117188
        k(    6) = (   0.0000000   0.1250000   0.1250000), wk =   0.0234375
        k(    7) = (   0.0000000   0.1250000   0.2500000), wk =   0.0468750
        k(    8) = (   0.0000000   0.1250000   0.3750000), wk =   0.0468750
        k(    9) = (   0.0000000   0.1250000  -0.5000000), wk =   0.0468750
        k(   10) = (   0.0000000   0.2500000   0.2500000), wk =   0.0234375
        k(   11) = (   0.0000000   0.2500000   0.3750000), wk =   0.0468750
        k(   12) = (   0.0000000   0.2500000  -0.5000000), wk =   0.0468750
        k(   13) = (   0.0000000   0.3750000   0.3750000), wk =   0.0234375
        k(   14) = (   0.0000000   0.3750000  -0.5000000), wk =   0.0468750
        k(   15) = (   0.0000000  -0.5000000  -0.5000000), wk =   0.0117188
        k(   16) = (   0.1250000   0.1250000   0.1250000), wk =   0.0078125
        k(   17) = (   0.1250000   0.1250000   0.2500000), wk =   0.0234375
        k(   18) = (   0.1250000   0.1250000   0.3750000), wk =   0.0234375
        k(   19) = (   0.1250000   0.1250000  -0.5000000), wk =   0.0234375
        k(   20) = (   0.1250000   0.2500000   0.2500000), wk =   0.0234375
        k(   21) = (   0.1250000   0.2500000   0.3750000), wk =   0.0468750
        k(   22) = (   0.1250000   0.2500000  -0.5000000), wk =   0.0468750
        k(   23) = (   0.1250000   0.3750000   0.3750000), wk =   0.0234375
        k(   24) = (   0.1250000   0.3750000  -0.5000000), wk =   0.0468750
        k(   25) = (   0.1250000  -0.5000000  -0.5000000), wk =   0.0234375
        k(   26) = (   0.2500000   0.2500000   0.2500000), wk =   0.0078125
        k(   27) = (   0.2500000   0.2500000   0.3750000), wk =   0.0234375
        k(   28) = (   0.2500000   0.2500000  -0.5000000), wk =   0.0234375
        k(   29) = (   0.2500000   0.3750000   0.3750000), wk =   0.0234375
        k(   30) = (   0.2500000   0.3750000  -0.5000000), wk =   0.0468750
        k(   31) = (   0.2500000  -0.5000000  -0.5000000), wk =   0.0234375
        k(   32) = (   0.3750000   0.3750000   0.3750000), wk =   0.0078125
        k(   33) = (   0.3750000   0.3750000  -0.5000000), wk =   0.0234375
        k(   34) = (   0.3750000  -0.5000000  -0.5000000), wk =   0.0234375
        k(   35) = (  -0.5000000  -0.5000000  -0.5000000), wk =   0.0039062
        k(   36) = (  -0.1250000   0.0000000   0.1250000), wk =   0.0234375
        k(   37) = (  -0.1250000   0.0000000   0.2500000), wk =   0.0468750
        k(   38) = (  -0.1250000   0.0000000   0.3750000), wk =   0.0468750
        k(   39) = (  -0.2500000   0.0000000   0.2500000), wk =   0.0234375
        k(   40) = (  -0.2500000   0.0000000   0.3750000), wk =   0.0468750
        k(   41) = (  -0.3750000   0.0000000   0.3750000), wk =   0.0234375
        k(   42) = (   0.1250000  -0.1250000   0.1250000), wk =   0.0234375
        k(   43) = (   0.1250000  -0.1250000   0.2500000), wk =   0.0468750
        k(   44) = (  -0.2500000   0.1250000   0.1250000), wk =   0.0234375
        k(   45) = (   0.1250000  -0.1250000   0.3750000), wk =   0.0468750
        k(   46) = (  -0.3750000   0.1250000   0.1250000), wk =   0.0234375
        k(   47) = (   0.1250000  -0.1250000  -0.5000000), wk =   0.0234375
        k(   48) = (   0.2500000  -0.1250000   0.2500000), wk =   0.0234375
        k(   49) = (  -0.2500000   0.1250000   0.2500000), wk =   0.0468750
        k(   50) = (   0.2500000  -0.1250000   0.3750000), wk =   0.0468750
        k(   51) = (  -0.2500000   0.1250000   0.3750000), wk =   0.0468750
        k(   52) = (  -0.3750000   0.2500000   0.1250000), wk =   0.0468750
        k(   53) = (   0.2500000  -0.1250000  -0.5000000), wk =   0.0468750
        k(   54) = (   0.3750000  -0.1250000   0.3750000), wk =   0.0234375
        k(   55) = (  -0.3750000   0.1250000   0.3750000), wk =   0.0468750
        k(   56) = (   0.3750000  -0.1250000  -0.5000000), wk =   0.0468750
        k(   57) = (   0.2500000  -0.2500000   0.2500000), wk =   0.0234375
        k(   58) = (   0.2500000  -0.2500000   0.3750000), wk =   0.0468750
        k(   59) = (  -0.3750000   0.2500000   0.2500000), wk =   0.0234375
        k(   60) = (   0.2500000  -0.2500000  -0.5000000), wk =   0.0234375
        k(   61) = (   0.3750000  -0.2500000   0.3750000), wk =   0.0234375
        k(   62) = (  -0.3750000   0.2500000   0.3750000), wk =   0.0468750
        k(   63) = (   0.3750000  -0.2500000  -0.5000000), wk =   0.0468750
        k(   64) = (   0.3750000  -0.3750000   0.3750000), wk =   0.0234375
        k(   65) = (   0.3750000  -0.3750000  -0.5000000), wk =   0.0234375

     Dense  grid:    68699 G-vectors     FFT dimensions: (  54,  54,  54)

     Smooth grid:    29711 G-vectors     FFT dimensions: (  40,  40,  40)

     Dynamical RAM for                 wfc:       0.19 MB

     Dynamical RAM for     wfc (w. buffer):      12.45 MB

     Dynamical RAM for           str. fact:       0.17 MB

     Dynamical RAM for           local pot:       0.00 MB

     Dynamical RAM for          nlocal pot:       0.60 MB

     Dynamical RAM for                qrad:       1.17 MB

     Dynamical RAM for          rho,v,vnew:       1.12 MB

     Dynamical RAM for               rhoin:       0.37 MB

     Dynamical RAM for            rho*nmix:       2.80 MB

     Dynamical RAM for           G-vectors:       0.69 MB

     Dynamical RAM for          h,s,v(r/c):       0.29 MB

     Dynamical RAM for          <psi|beta>:       0.02 MB

     Dynamical RAM for                 psi:       0.75 MB

     Dynamical RAM for                hpsi:       0.75 MB

     Dynamical RAM for                spsi:       0.75 MB

     Dynamical RAM for      wfcinit/wfcrot:       0.63 MB

     Dynamical RAM for           addusdens:       8.91 MB

     Dynamical RAM for          addusforce:      11.45 MB

     Dynamical RAM for         addusstress:       8.73 MB

     Estimated static dynamical RAM per process >      20.73 MB

     Estimated max dynamical RAM per process >      32.18 MB

     Estimated total dynamical RAM >     193.07 MB

     Check: negative core charge=   -0.000003

     Initial potential from superposition of free atoms

     starting charge   31.99967, renormalised to   32.00000
     Starting wfcs are   32 randomized atomic wfcs

     total cpu time spent up to now is        3.0 secs

     Self-consistent Calculation

     iteration #  1     ecut=    80.00 Ry     beta= 0.70
     Davidson diagonalization with overlap
     ethr =  1.00E-02,  avg # of iterations =  2.6

     total cpu time spent up to now is        6.8 secs

     total energy              =     -99.31638174 Ry
     Harris-Foulkes estimate   =     -99.52465051 Ry
     estimated scf accuracy    <       0.46854286 Ry

     iteration #  2     ecut=    80.00 Ry     beta= 0.70
     Davidson diagonalization with overlap
     ethr =  1.46E-03,  avg # of iterations =  1.5

     total cpu time spent up to now is        9.4 secs

     total energy              =     -99.35023443 Ry
     Harris-Foulkes estimate   =     -99.35082450 Ry
     estimated scf accuracy    <       0.00955513 Ry

     iteration #  3     ecut=    80.00 Ry     beta= 0.70
     Davidson diagonalization with overlap
     ethr =  2.99E-05,  avg # of iterations =  6.2

     total cpu time spent up to now is       13.8 secs

     total energy              =     -99.35170155 Ry
     Harris-Foulkes estimate   =     -99.35164140 Ry
     estimated scf accuracy    <       0.00026692 Ry

     iteration #  4     ecut=    80.00 Ry     beta= 0.70
     Davidson diagonalization with overlap
     ethr =  8.34E-07,  avg # of iterations =  3.2

     total cpu time spent up to now is       17.1 secs

     total energy              =     -99.35173400 Ry
     Harris-Foulkes estimate   =     -99.35173488 Ry
     estimated scf accuracy    <       0.00000395 Ry

     iteration #  5     ecut=    80.00 Ry     beta= 0.70
     Davidson diagonalization with overlap
     ethr =  1.24E-08,  avg # of iterations =  2.5

     total cpu time spent up to now is       20.7 secs

     End of self-consistent calculation

          k = 0.0000 0.0000 0.0000 (  3743 PWs)   bands (ev):

    -8.1449   0.5374   0.5377   0.5378   0.5378   0.5380   0.5380   6.9854
     6.9856   6.9856   6.9858   6.9858   6.9860  13.2657  13.2668  13.2668
    18.0569  18.0572  18.0574  18.0581

     occupation numbers 
     1.0000   1.0000   1.0000   1.0000   1.0000   1.0000   1.0000   1.0000
     1.0000   1.0000   1.0000   1.0000   1.0000   1.0000   1.0000   1.0000
     0.0000   0.0000   0.0000   0.0000

          k = 0.0000 0.0000 0.1250 (  3767 PWs)   bands (ev):

    -8.0011  -1.3793   0.6281   0.6283   0.6284   0.6286   2.5896   6.6814
     6.6816   6.6817   6.6818   7.1260   7.1262  12.7155  12.7161  12.9157
    17.5989  18.6347  18.6352  18.7522

     occupation numbers 
     1.0000   1.0000   1.0000   1.0000   1.0000   1.0000   1.0000   1.0000
     1.0000   1.0000   1.0000   1.0000   1.0000   1.0000   1.0000   1.0000
     0.0000   0.0000   0.0000   0.0000

          k = 0.0000 0.0000 0.2500 (  3719 PWs)   bands (ev):

    -7.5710  -3.1086   0.8734   0.8736   0.8737   0.8739   4.7042   5.9769
     5.9770   5.9772   5.9773   7.5438   7.5440  11.5484  11.5488  11.9438
    17.4258  18.4581  20.0276  20.1595

     occupation numbers 
     1.0000   1.0000   1.0000   1.0000   1.0000   1.0000   1.0000   1.0000
     1.0000   1.0000   1.0000   1.0000   1.0000   1.0000   1.0000   1.0000
     0.0000   0.0000   0.0000   0.0000

          k = 0.0000 0.0000 0.3750 (  3715 PWs)   bands (ev):

    -6.8580  -4.6134   1.1736   1.1739   1.1740   1.1743   5.2769   5.2770
     5.2773   5.2773   6.7931   8.2283   8.2286  10.2928  10.2932  10.5124
    17.4874  18.0814  21.6090  22.2208

     occupation numbers 
     1.0000   1.0000   1.0000   1.0000   1.0000   1.0000   1.0000   1.0000
     1.0000   1.0000   1.0000   1.0000   1.0000   1.0000   1.0000   1.0000
     0.0000   0.0000   0.0000   0.0000

          k = 0.0000 0.0000-0.5000 (  3764 PWs)   bands (ev):

    -5.8688  -5.8684   1.3233   1.3236   1.3237   1.3240   4.9751   4.9751
     4.9755   4.9755   8.7606   8.7609   9.1577   9.1582   9.1585   9.1586
    17.7284  17.7287  23.5279  23.5281

     occupation numbers 
     1.0000   1.0000   1.0000   1.0000   1.0000   1.0000   1.0000   1.0000
     1.0000   1.0000   1.0000   1.0000   1.0000   1.0000   1.0000   1.0000
     0.0000   0.0000   0.0000   0.0000

          k = 0.0000 0.1250 0.1250 (  3731 PWs)   bands (ev):

    -7.8576  -1.2639  -1.2636   0.6196   0.7957   2.6264   2.6266   5.7270
     6.7827   6.7827   6.8901   6.8905   7.2251  11.8490  12.2000  13.0866
    18.1949  18.1952  18.2903  19.1557

     occupation numbers 
     1.0000   1.0000   1.0000   1.0000   1.0000   1.0000   1.0000   1.0000
     1.0000   1.0000   1.0000   1.0000   1.0000   1.0000   1.0000   1.0000
     0.0000   0.0000   0.0000   0.0000

          k = 0.0000 0.1250 0.2500 (  3711 PWs)   bands (ev):

    -7.4282  -2.9804  -0.9288   0.6732   1.1414   2.6768   4.6157   4.7716
     5.9699   6.3963   7.1610   7.1737   7.4469  10.5818  11.0799  12.4980
    18.0324  19.0252  19.0818  19.7574

     occupation numbers 
     1.0000   1.0000   1.0000   1.0000   1.0000   1.0000   1.0000   1.0000
     1.0000   1.0000   1.0000   1.0000   1.0000   1.0000   1.0000   1.0000
     0.0000   0.0000   0.0000   0.0000

          k = 0.0000 0.1250 0.3750 (  3706 PWs)   bands (ev):

    -6.7166  -4.4782  -0.4184   0.5740   1.6331   2.5647   4.2403   5.0673
     6.0838   6.4135   6.7012   7.8365   8.4286   9.2464   9.8565  11.3017
    18.0974  18.6755  20.7520  21.8800

     occupation numbers 
     1.0000   1.0000   1.0000   1.0000   1.0000   1.0000   1.0000   1.0000
     1.0000   1.0000   1.0000   1.0000   1.0000   1.0000   1.0000   1.0000
     0.0000   0.0000   0.0000   0.0000

          k = 0.0000 0.1250-0.5000 (  3700 PWs)   bands (ev):

    -5.7297  -5.7293   0.1562   0.1566   2.1706   2.1709   4.3903   4.3905
     6.2290   6.2293   7.9024   7.9028   8.7454   8.7456   9.8215   9.8221
    18.3346  18.3349  22.7538  22.7545

     occupation numbers 
     1.0000   1.0000   1.0000   1.0000   1.0000   1.0000   1.0000   1.0000
     1.0000   1.0000   1.0000   1.0000   1.0000   1.0000   1.0000   1.0000
     0.0000   0.0000   0.0000   0.0000

          k = 0.0000 0.2500 0.2500 (  3724 PWs)   bands (ev):

    -7.0011  -2.6017  -2.6015   0.3233   1.5663   3.9851   4.2774   4.2775
     6.2969   6.2971   7.3462   7.3468   7.9180   9.2945  10.0287  12.5108
    18.9715  19.6055  19.6057  20.0186

     occupation numbers 
     1.0000   1.0000   1.0000   1.0000   1.0000   1.0000   1.0000   1.0000
     1.0000   1.0000   1.0000   1.0000   1.0000   1.0000   1.0000   1.0000
     0.0000   0.0000   0.0000   0.0000

          k = 0.0000 0.2500 0.3750 (  3710 PWs)   bands (ev):

    -6.2939  -4.0762  -1.9932  -0.3562   2.1610   3.6509   3.9113   5.2949
     5.5851   6.9147   7.4865   8.0022   8.0672   8.7933   8.8561  11.7373
    19.6560  19.9341  20.0833  21.7224

     occupation numbers 
     1.0000   1.0000   1.0000   1.0000   1.0000   1.0000   1.0000   1.0000
     1.0000   1.0000   1.0000   1.0000   1.0000   1.0000   1.0000   1.0000
     0.0000   0.0000   0.0000   0.0000

          k = 0.0000 0.2500-0.5000 (  3712 PWs)   bands (ev):

    -5.3146  -5.3142  -1.2058  -1.2054   2.8881   2.8884   4.4306   4.4308
     6.7743   6.7748   7.7851   7.7853   7.8111   7.8115  10.3874  10.3879
    19.8478  19.8481  21.6508  21.6514

     occupation numbers 
     1.0000   1.0000   1.0000   1.0000   1.0000   1.0000   1.0000   1.0000
     1.0000   1.0000   1.0000   1.0000   1.0000   1.0000   1.0000   1.0000
     0.0000   0.0000   0.0000   0.0000

          k = 0.0000 0.3750 0.3750 (  3690 PWs)   bands (ev):

    -5.5951  -3.4190  -3.4188  -1.4697   2.8386   4.2053   4.6175   4.6176
     5.8561   5.8563   6.7762   7.7236   8.9826   9.1314   9.1321  11.5236
    20.0241  21.4142  21.7060  21.7064

     occupation numbers 
     1.0000   1.0000   1.0000   1.0000   1.0000   1.0000   1.0000   1.0000
     1.0000   1.0000   1.0000   1.0000   1.0000   1.0000   1.0000   1.0000
     0.0000   0.0000   0.0000   0.0000

          k = 0.0000 0.3750-0.5000 (  3698 PWs)   bands (ev):

    -4.6309  -4.6305  -2.5320  -2.5315   3.6713   3.6716   4.9038   4.9040
     5.6409   5.6413   6.6874   6.6876   9.2801   9.2806  10.5940  10.5945
    21.0596  21.0601  21.7312  21.7317

     occupation numbers 
     1.0000   1.0000   1.0000   1.0000   1.0000   1.0000   1.0000   1.0000
     1.0000   1.0000   1.0000   1.0000   1.0000   1.0000   1.0000   1.0000
     0.0000   0.0000   0.0000   0.0000

          k = 0.0000-0.5000-0.5000 (  3676 PWs)   bands (ev):

    -3.6938  -3.6933  -3.6933  -3.6930   4.5902   4.5902   4.5905   4.5906
     5.6862   5.6863   5.6866   5.6867  10.2621  10.2626  10.2629  10.2631
    21.2077  21.2083  21.2083  21.2087

     occupation numbers 
     1.0000   1.0000   1.0000   1.0000   1.0000   1.0000   1.0000   1.0000
     1.0000   1.0000   1.0000   1.0000   1.0000   1.0000   1.0000   1.0000
     0.0000   0.0000   0.0000   0.0000

          k = 0.1250 0.1250 0.1250 (  3725 PWs)   bands (ev):

    -7.7143  -1.1538  -1.1534  -1.1534   2.6240   2.6243   2.6243   5.9484
     5.9486   5.9486   7.3616   7.3616   7.3618  10.8608  12.6169  12.6169
    18.2692  18.2692  18.2698  19.7185

     occupation numbers 
     1.0000   1.0000   1.0000   1.0000   1.0000   1.0000   1.0000   1.0000
     1.0000   1.0000   1.0000   1.0000   1.0000   1.0000   1.0000   1.0000
     0.0000   0.0000   0.0000   0.0000

          k = 0.1250 0.1250 0.2500 (  3714 PWs)   bands (ev):

    -7.2856  -2.8541  -0.8422  -0.8419   2.5102   2.5103   4.3852   5.1705
     5.1707   6.6942   7.3151   7.3152   7.7674   9.5238  11.5705  12.3090
    18.2980  19.1364  19.1368  19.4781

     occupation numbers 
     1.0000   1.0000   1.0000   1.0000   1.0000   1.0000   1.0000   1.0000
     1.0000   1.0000   1.0000   1.0000   1.0000   1.0000   1.0000   1.0000
     0.0000   0.0000   0.0000   0.0000

          k = 0.1250 0.1250 0.3750 (  3706 PWs)   bands (ev):

    -6.5754  -4.3440  -0.4175  -0.4171   2.1299   2.1299   4.8836   4.8840
     5.7702   6.9403   6.9404   8.0607   8.1949   8.4296  10.4015  11.2412
    18.4591  19.1143  20.8144  20.8148

     occupation numbers 
     1.0000   1.0000   1.0000   1.0000   1.0000   1.0000   1.0000   1.0000
     1.0000   1.0000   1.0000   1.0000   1.0000   1.0000   1.0000   1.0000
     0.0000   0.0000   0.0000   0.0000

          k = 0.1250 0.1250-0.5000 (  3710 PWs)   bands (ev):

    -5.5911  -5.5907  -0.1691  -0.1687   1.8489   1.8491   4.8921   4.8926
     6.7153   6.7154   6.9580   6.9586   9.3231   9.3234   9.7199   9.7207
    18.7478  18.7481  22.4626  22.4632

     occupation numbers 
     1.0000   1.0000   1.0000   1.0000   1.0000   1.0000   1.0000   1.0000
     1.0000   1.0000   1.0000   1.0000   1.0000   1.0000   1.0000   1.0000
     0.0000   0.0000   0.0000   0.0000

          k = 0.1250 0.2500 0.2500 (  3717 PWs)   bands (ev):

    -6.8594  -2.4832  -2.4829  -0.6462   1.9701   3.6706   3.6707   4.8192
     6.3415   6.3417   7.8108   7.8111   8.0410   8.1479  10.9338  12.2312
    19.0752  19.3002  19.3005  20.3038

     occupation numbers 
     1.0000   1.0000   1.0000   1.0000   1.0000   1.0000   1.0000   1.0000
     1.0000   1.0000   1.0000   1.0000   1.0000   1.0000   1.0000   1.0000
     0.0000   0.0000   0.0000   0.0000

          k = 0.1250 0.2500 0.3750 (  3716 PWs)   bands (ev):

    -6.1538  -3.9452  -1.8978  -0.6520   1.5500   2.7217   4.6192   5.0549
     6.0435   6.8259   7.7040   7.7878   8.1970   8.8227   9.8747  11.5613
    19.5644  20.0384  20.2349  20.9907

     occupation numbers 
     1.0000   1.0000   1.0000   1.0000   1.0000   1.0000   1.0000   1.0000
     1.0000   1.0000   1.0000   1.0000   1.0000   1.0000   1.0000   1.0000
     0.0000   0.0000   0.0000   0.0000

          k = 0.1250 0.2500-0.5000 (  3702 PWs)   bands (ev):

    -5.1777  -5.1773  -1.1903  -1.1899   1.8907   1.8910   5.5535   5.5541
     5.6434   5.6440   7.9878   7.9881   8.8021   8.8023  10.2830  10.2835
    19.8983  19.8986  21.6658  21.6664

     occupation numbers 
     1.0000   1.0000   1.0000   1.0000   1.0000   1.0000   1.0000   1.0000
     1.0000   1.0000   1.0000   1.0000   1.0000   1.0000   1.0000   1.0000
     0.0000   0.0000   0.0000   0.0000

          k = 0.1250 0.3750 0.3750 (  3710 PWs)   bands (ev):

    -5.4574  -3.2964  -3.2961  -1.4503   1.7150   3.4503   3.4503   5.5266
     5.5487   7.0077   7.0078   8.9163   9.0753   9.1979   9.1985  11.4317
    20.1356  21.2435  21.2438  21.3886

     occupation numbers 
     1.0000   1.0000   1.0000   1.0000   1.0000   1.0000   1.0000   1.0000
     1.0000   1.0000   1.0000   1.0000   1.0000   1.0000   1.0000   1.0000
     0.0000   0.0000   0.0000   0.0000

          k = 0.1250 0.3750-0.5000 (  3710 PWs)   bands (ev):

    -4.4979  -4.4975  -2.4326  -2.4322   2.4366   2.4369   4.3869   4.3874
     6.2366   6.2371   7.9323   7.9326   9.3591   9.3595  10.5732  10.5737
    21.1383  21.1389  21.4946  21.4951

     occupation numbers 
     1.0000   1.0000   1.0000   1.0000   1.0000   1.0000   1.0000   1.0000
     1.0000   1.0000   1.0000   1.0000   1.0000   1.0000   1.0000   1.0000
     0.0000   0.0000   0.0000   0.0000

          k = 0.1250-0.5000-0.5000 (  3696 PWs)   bands (ev):

    -3.5699  -3.5694  -3.5693  -3.5691   3.2949   3.2953   3.2955   3.2958
     7.0390   7.0395   7.0396   7.0399  10.2916  10.2921  10.2924  10.2926
    21.2839  21.2846  21.2846  21.2849

     occupation numbers 
     1.0000   1.0000   1.0000   1.0000   1.0000   1.0000   1.0000   1.0000
     1.0000   1.0000   1.0000   1.0000   1.0000   1.0000   1.0000   1.0000
     0.0000   0.0000   0.0000   0.0000

          k = 0.2500 0.2500 0.2500 (  3728 PWs)   bands (ev):

    -6.4359  -2.1450  -2.1446  -2.1446   2.5124   2.5124   2.5125   6.5474
     6.5480   6.5480   6.6968   8.4040   8.4040   8.4042  11.5259  11.5259
    19.3685  19.3685  19.3691  21.0573

     occupation numbers 
     1.0000   1.0000   1.0000   1.0000   1.0000   1.0000   1.0000   1.0000
     1.0000   1.0000   1.0000   1.0000   1.0000   1.0000   1.0000   1.0000
     0.0000   0.0000   0.0000   0.0000

          k = 0.2500 0.2500 0.3750 (  3711 PWs)   bands (ev):

    -5.7360  -3.5589  -1.6720  -1.6717   1.4418   1.4420   3.2325   5.3478
     6.8266   6.8272   8.4171   8.6035   8.6035   8.9877  10.6381  11.2189
    19.7991  20.3340  20.3344  20.7312

     occupation numbers 
     1.0000   1.0000   1.0000   1.0000   1.0000   1.0000   1.0000   1.0000
     1.0000   1.0000   1.0000   1.0000   1.0000   1.0000   1.0000   1.0000
     0.0000   0.0000   0.0000   0.0000

          k = 0.2500 0.2500-0.5000 (  3708 PWs)   bands (ev):

    -4.7704  -4.7700  -1.3846  -1.3842   0.9427   0.9430   4.1802   4.1807
     6.9717   6.9724   8.5942   8.5943   9.7542   9.7546  10.0774  10.0780
    20.2836  20.2838  21.5830  21.5837

     occupation numbers 
     1.0000   1.0000   1.0000   1.0000   1.0000   1.0000   1.0000   1.0000
     1.0000   1.0000   1.0000   1.0000   1.0000   1.0000   1.0000   1.0000
     0.0000   0.0000   0.0000   0.0000

          k = 0.2500 0.3750 0.3750 (  3708 PWs)   bands (ev):

    -5.0476  -2.9448  -2.9445  -1.6343   0.7035   1.9687   1.9688   3.9954
     7.4146   8.3578   8.3579   9.3427   9.3960   9.3966  10.1672  11.1620
    20.4500  20.7646  20.7650  21.4114

     occupation numbers 
     1.0000   1.0000   1.0000   1.0000   1.0000   1.0000   1.0000   1.0000
     1.0000   1.0000   1.0000   1.0000   1.0000   1.0000   1.0000   1.0000
     0.0000   0.0000   0.0000   0.0000

          k = 0.2500 0.3750-0.5000 (  3720 PWs)   bands (ev):

    -4.1051  -4.1047  -2.1936  -2.1931   1.0077   1.0080   2.8498   2.8504
     7.9492   7.9498   9.3622   9.3624   9.5894   9.5898  10.4931  10.4935
    21.2223  21.2226  21.3414  21.3419

     occupation numbers 
     1.0000   1.0000   1.0000   1.0000   1.0000   1.0000   1.0000   1.0000
     1.0000   1.0000   1.0000   1.0000   1.0000   1.0000   1.0000   1.0000
     0.0000   0.0000   0.0000   0.0000

          k = 0.2500-0.5000-0.5000 (  3700 PWs)   bands (ev):

    -3.2142  -3.2137  -3.2136  -3.2134   1.7528   1.7532   1.7533   1.7537
     8.6985   8.6992   8.6992   8.6995  10.3644  10.3649  10.3652  10.3654
    21.4797  21.4804  21.4804  21.4808

     occupation numbers 
     1.0000   1.0000   1.0000   1.0000   1.0000   1.0000   1.0000   1.0000
     1.0000   1.0000   1.0000   1.0000   1.0000   1.0000   1.0000   1.0000
     0.0000   0.0000   0.0000   0.0000

          k = 0.3750 0.3750 0.3750 (  3704 PWs)   bands (ev):

    -4.3775  -2.4474  -2.4469  -2.4469   0.7529   0.7529   0.7532   2.6268
     9.1273   9.1281   9.1281   9.7519   9.7519   9.7522  10.7445  10.7445
    20.8971  20.8973  20.8977  21.6591

     occupation numbers 
     1.0000   1.0000   1.0000   1.0000   1.0000   1.0000   1.0000   1.0000
     1.0000   1.0000   1.0000   1.0000   1.0000   1.0000   1.0000   1.0000
     0.0000   0.0000   0.0000   0.0000

          k = 0.3750 0.3750-0.5000 (  3696 PWs)   bands (ev):

    -3.4787  -3.4783  -2.1382  -2.1377   0.1994   0.1997   1.5078   1.5083
     9.3068   9.3075   9.9786   9.9786  10.2456  10.2459  10.3566  10.3571
    21.3471  21.3473  21.5352  21.5359

     occupation numbers 
     1.0000   1.0000   1.0000   1.0000   1.0000   1.0000   1.0000   1.0000
     1.0000   1.0000   1.0000   1.0000   1.0000   1.0000   1.0000   1.0000
     0.0000   0.0000   0.0000   0.0000

          k = 0.3750-0.5000-0.5000 (  3700 PWs)   bands (ev):

    -2.7087  -2.7081  -2.7080  -2.7079   0.5045   0.5048   0.5048   0.5052
     9.9755   9.9762   9.9762   9.9765  10.4397  10.4403  10.4405  10.4408
    21.6845  21.6852  21.6854  21.6858

     occupation numbers 
     1.0000   1.0000   1.0000   1.0000   1.0000   1.0000   1.0000   1.0000
     1.0000   1.0000   1.0000   1.0000   1.0000   1.0000   1.0000   1.0000
     0.0000   0.0000   0.0000   0.0000

          k =-0.5000-0.5000-0.5000 (  3648 PWs)   bands (ev):

    -2.3923  -2.3916  -2.3916  -2.3916  -0.0634  -0.0631  -0.0631  -0.0627
    10.4713  10.4719  10.4719  10.4724  10.4724  10.4727  10.4727  10.4728
    21.7361  21.7367  21.7371  21.7374

     occupation numbers 
     1.0000   1.0000   1.0000   1.0000   1.0000   1.0000   1.0000   1.0000
     1.0000   1.0000   1.0000   1.0000   1.0000   1.0000   1.0000   1.0000
     0.0000   0.0000   0.0000   0.0000

          k =-0.1250 0.0000 0.1250 (  3731 PWs)   bands (ev):

    -7.8576  -1.2638  -1.2637   0.6193   0.7959   2.6264   2.6265   5.7272
     6.7826   6.7828   6.8903   6.8904   7.2249  11.8496  12.2000  13.0859
    18.1948  18.1951  18.2901  19.1564

     occupation numbers 
     1.0000   1.0000   1.0000   1.0000   1.0000   1.0000   1.0000   1.0000
     1.0000   1.0000   1.0000   1.0000   1.0000   1.0000   1.0000   1.0000
     0.0000   0.0000   0.0000   0.0000

          k =-0.1250 0.0000 0.2500 (  3711 PWs)   bands (ev):

    -7.4282  -2.9804  -0.9288   0.6730   1.1416   2.6766   4.6155   4.7718
     5.9699   6.3965   7.1608   7.1737   7.4471  10.5823  11.0798  12.4974
    18.0323  19.0255  19.0816  19.7572

     occupation numbers 
     1.0000   1.0000   1.0000   1.0000   1.0000   1.0000   1.0000   1.0000
     1.0000   1.0000   1.0000   1.0000   1.0000   1.0000   1.0000   1.0000
     0.0000   0.0000   0.0000   0.0000

          k =-0.1250 0.0000 0.3750 (  3706 PWs)   bands (ev):

    -6.7166  -4.4782  -0.4184   0.5738   1.6334   2.5645   4.2405   5.0673
     6.0841   6.4131   6.7009   7.8365   8.4289   9.2469   9.8565  11.3011
    18.0973  18.6757  20.7517  21.8805

     occupation numbers 
     1.0000   1.0000   1.0000   1.0000   1.0000   1.0000   1.0000   1.0000
     1.0000   1.0000   1.0000   1.0000   1.0000   1.0000   1.0000   1.0000
     0.0000   0.0000   0.0000   0.0000

          k =-0.2500 0.0000 0.2500 (  3724 PWs)   bands (ev):

    -7.0011  -2.6017  -2.6015   0.3231   1.5665   3.9853   4.2772   4.2772
     6.2969   6.2971   7.3468   7.3469   7.9177   9.2950  10.0286  12.5101
    18.9712  19.6053  19.6056  20.0193

     occupation numbers 
     1.0000   1.0000   1.0000   1.0000   1.0000   1.0000   1.0000   1.0000
     1.0000   1.0000   1.0000   1.0000   1.0000   1.0000   1.0000   1.0000
     0.0000   0.0000   0.0000   0.0000

          k =-0.2500 0.0000 0.3750 (  3710 PWs)   bands (ev):

    -6.2939  -4.0762  -1.9932  -0.3564   2.1613   3.6506   3.9114   5.2949
     5.5848   6.9147   7.4869   8.0026   8.0669   8.7937   8.8561  11.7367
    19.6559  19.9338  20.0837  21.7221

     occupation numbers 
     1.0000   1.0000   1.0000   1.0000   1.0000   1.0000   1.0000   1.0000
     1.0000   1.0000   1.0000   1.0000   1.0000   1.0000   1.0000   1.0000
     0.0000   0.0000   0.0000   0.0000

          k =-0.3750 0.0000 0.3750 (  3690 PWs)   bands (ev):

    -5.5951  -3.4189  -3.4188  -1.4697   2.8388   4.2054   4.6172   4.6172
     5.8561   5.8563   6.7766   7.7236   8.9822   9.1321   9.1323  11.5230
    20.0238  21.4148  21.7057  21.7062

     occupation numbers 
     1.0000   1.0000   1.0000   1.0000   1.0000   1.0000   1.0000   1.0000
     1.0000   1.0000   1.0000   1.0000   1.0000   1.0000   1.0000   1.0000
     0.0000   0.0000   0.0000   0.0000

          k = 0.1250-0.1250 0.1250 (  3725 PWs)   bands (ev):

    -7.7143  -1.1537  -1.1534  -1.1534   2.6240   2.6241   2.6242   5.9486
     5.9489   5.9490   7.3613   7.3614   7.3617  10.8614  12.6161  12.6170
    18.2689  18.2691  18.2695  19.7184

     occupation numbers 
     1.0000   1.0000   1.0000   1.0000   1.0000   1.0000   1.0000   1.0000
     1.0000   1.0000   1.0000   1.0000   1.0000   1.0000   1.0000   1.0000
     0.0000   0.0000   0.0000   0.0000

          k = 0.1250-0.1250 0.2500 (  3714 PWs)   bands (ev):

    -7.2856  -2.8541  -0.8421  -0.8419   2.5099   2.5101   4.3850   5.1709
     5.1711   6.6947   7.3148   7.3152   7.7671   9.5243  11.5701  12.3089
    18.2978  19.1362  19.1366  19.4782

     occupation numbers 
     1.0000   1.0000   1.0000   1.0000   1.0000   1.0000   1.0000   1.0000
     1.0000   1.0000   1.0000   1.0000   1.0000   1.0000   1.0000   1.0000
     0.0000   0.0000   0.0000   0.0000

          k =-0.2500 0.1250 0.1250 (  3714 PWs)   bands (ev):

    -7.2856  -2.8541  -0.8422  -0.8419   2.5100   2.5102   4.3848   5.1709
     5.1711   6.6947   7.3149   7.3150   7.7673   9.5243  11.5706  12.3082
    18.2979  19.1360  19.1365  19.4785

     occupation numbers 
     1.0000   1.0000   1.0000   1.0000   1.0000   1.0000   1.0000   1.0000
     1.0000   1.0000   1.0000   1.0000   1.0000   1.0000   1.0000   1.0000
     0.0000   0.0000   0.0000   0.0000

          k = 0.1250-0.1250 0.3750 (  3706 PWs)   bands (ev):

    -6.5754  -4.3440  -0.4174  -0.4172   2.1294   2.1298   4.8841   4.8843
     5.7700   6.9399   6.9403   8.0613   8.1953   8.4293  10.4012  11.2411
    18.4589  19.1143  20.8142  20.8146

     occupation numbers 
     1.0000   1.0000   1.0000   1.0000   1.0000   1.0000   1.0000   1.0000
     1.0000   1.0000   1.0000   1.0000   1.0000   1.0000   1.0000   1.0000
     0.0000   0.0000   0.0000   0.0000

          k =-0.3750 0.1250 0.1250 (  3706 PWs)   bands (ev):

    -6.5754  -4.3440  -0.4175  -0.4171   2.1297   2.1297   4.8838   4.8842
     5.7697   6.9402   6.9402   8.0613   8.1954   8.4295  10.4016  11.2405
    18.4590  19.1145  20.8141  20.8145

     occupation numbers 
     1.0000   1.0000   1.0000   1.0000   1.0000   1.0000   1.0000   1.0000
     1.0000   1.0000   1.0000   1.0000   1.0000   1.0000   1.0000   1.0000
     0.0000   0.0000   0.0000   0.0000

          k = 0.1250-0.1250-0.5000 (  3710 PWs)   bands (ev):

    -5.5911  -5.5907  -0.1689  -0.1687   1.8485   1.8490   4.8926   4.8928
     6.7150   6.7154   6.9583   6.9586   9.3225   9.3233   9.7204   9.7206
    18.7477  18.7480  22.4619  22.4629

     occupation numbers 
     1.0000   1.0000   1.0000   1.0000   1.0000   1.0000   1.0000   1.0000
     1.0000   1.0000   1.0000   1.0000   1.0000   1.0000   1.0000   1.0000
     0.0000   0.0000   0.0000   0.0000

          k = 0.2500-0.1250 0.2500 (  3717 PWs)   bands (ev):

    -6.8594  -2.4832  -2.4829  -0.6461   1.9696   3.6705   3.6705   4.8196
     6.3420   6.3422   7.8104   7.8107   8.0410   8.1483  10.9333  12.2314
    19.0751  19.2999  19.3003  20.3035

     occupation numbers 
     1.0000   1.0000   1.0000   1.0000   1.0000   1.0000   1.0000   1.0000
     1.0000   1.0000   1.0000   1.0000   1.0000   1.0000   1.0000   1.0000
     0.0000   0.0000   0.0000   0.0000

          k =-0.2500 0.1250 0.2500 (  3717 PWs)   bands (ev):

    -6.8594  -2.4831  -2.4829  -0.6462   1.9700   3.6702   3.6704   4.8196
     6.3419   6.3421   7.8108   7.8110   8.0407   8.1483  10.9338  12.2307
    19.0749  19.2999  19.3003  20.3043

     occupation numbers 
     1.0000   1.0000   1.0000   1.0000   1.0000   1.0000   1.0000   1.0000
     1.0000   1.0000   1.0000   1.0000   1.0000   1.0000   1.0000   1.0000
     0.0000   0.0000   0.0000   0.0000

          k = 0.2500-0.1250 0.3750 (  3716 PWs)   bands (ev):

    -6.1538  -3.9452  -1.8978  -0.6518   1.5495   2.7216   4.6191   5.0552
     6.0439   6.8262   7.7044   7.7874   8.1970   8.8224   9.8742  11.5614
    19.5642  20.0383  20.2347  20.9902

     occupation numbers 
     1.0000   1.0000   1.0000   1.0000   1.0000   1.0000   1.0000   1.0000
     1.0000   1.0000   1.0000   1.0000   1.0000   1.0000   1.0000   1.0000
     0.0000   0.0000   0.0000   0.0000

          k =-0.2500 0.1250 0.3750 (  3716 PWs)   bands (ev):

    -6.1538  -3.9452  -1.8977  -0.6520   1.5500   2.7213   4.6190   5.0553
     6.0438   6.8263   7.7039   7.7879   8.1966   8.8229   9.8746  11.5608
    19.5641  20.0381  20.2350  20.9905

     occupation numbers 
     1.0000   1.0000   1.0000   1.0000   1.0000   1.0000   1.0000   1.0000
     1.0000   1.0000   1.0000   1.0000   1.0000   1.0000   1.0000   1.0000
     0.0000   0.0000   0.0000   0.0000

          k =-0.3750 0.2500 0.1250 (  3716 PWs)   bands (ev):

    -6.1538  -3.9452  -1.8977  -0.6520   1.5500   2.7216   4.6187   5.0552
     6.0435   6.8263   7.7043   7.7879   8.1967   8.8229   9.8747  11.5607
    19.5642  20.0381  20.2352  20.9903

     occupation numbers 
     1.0000   1.0000   1.0000   1.0000   1.0000   1.0000   1.0000   1.0000
     1.0000   1.0000   1.0000   1.0000   1.0000   1.0000   1.0000   1.0000
     0.0000   0.0000   0.0000   0.0000

          k = 0.2500-0.1250-0.5000 (  3702 PWs)   bands (ev):

    -5.1777  -5.1773  -1.1902  -1.1898   1.8904   1.8909   5.5539   5.5542
     5.6437   5.6440   7.9876   7.9881   8.8017   8.8024  10.2830  10.2836
    19.8981  19.8984  21.6655  21.6662

     occupation numbers 
     1.0000   1.0000   1.0000   1.0000   1.0000   1.0000   1.0000   1.0000
     1.0000   1.0000   1.0000   1.0000   1.0000   1.0000   1.0000   1.0000
     0.0000   0.0000   0.0000   0.0000

          k = 0.3750-0.1250 0.3750 (  3710 PWs)   bands (ev):

    -5.4574  -3.2964  -3.2961  -1.4502   1.7146   3.4502   3.4503   5.5269
     5.5490   7.0079   7.0080   8.9159   9.0752   9.1977   9.1984  11.4318
    20.1356  21.2429  21.2432  21.3882

     occupation numbers 
     1.0000   1.0000   1.0000   1.0000   1.0000   1.0000   1.0000   1.0000
     1.0000   1.0000   1.0000   1.0000   1.0000   1.0000   1.0000   1.0000
     0.0000   0.0000   0.0000   0.0000

          k =-0.3750 0.1250 0.3750 (  3710 PWs)   bands (ev):

    -5.4574  -3.2963  -3.2962  -1.4503   1.7150   3.4499   3.4502   5.5270
     5.5490   7.0075   7.0079   8.9163   9.0749   9.1984   9.1986  11.4312
    20.1353  21.2430  21.2434  21.3890

     occupation numbers 
     1.0000   1.0000   1.0000   1.0000   1.0000   1.0000   1.0000   1.0000
     1.0000   1.0000   1.0000   1.0000   1.0000   1.0000   1.0000   1.0000
     0.0000   0.0000   0.0000   0.0000

          k = 0.3750-0.1250-0.5000 (  3710 PWs)   bands (ev):

    -4.4979  -4.4975  -2.4326  -2.4322   2.4363   2.4368   4.3871   4.3875
     6.2369   6.2372   7.9320   7.9326   9.3590   9.3594  10.5732  10.5738
    21.1382  21.1388  21.4942  21.4946

     occupation numbers 
     1.0000   1.0000   1.0000   1.0000   1.0000   1.0000   1.0000   1.0000
     1.0000   1.0000   1.0000   1.0000   1.0000   1.0000   1.0000   1.0000
     0.0000   0.0000   0.0000   0.0000

          k = 0.2500-0.2500 0.2500 (  3728 PWs)   bands (ev):

    -6.4359  -2.1449  -2.1447  -2.1446   2.5121   2.5123   2.5124   6.5480
     6.5484   6.5485   6.6971   8.4036   8.4038   8.4040  11.5252  11.5260
    19.3682  19.3683  19.3688  21.0578

     occupation numbers 
     1.0000   1.0000   1.0000   1.0000   1.0000   1.0000   1.0000   1.0000
     1.0000   1.0000   1.0000   1.0000   1.0000   1.0000   1.0000   1.0000
     0.0000   0.0000   0.0000   0.0000

          k = 0.2500-0.2500 0.3750 (  3711 PWs)   bands (ev):

    -5.7360  -3.5589  -1.6719  -1.6717   1.4414   1.4418   3.2324   5.3481
     6.8272   6.8274   8.4175   8.6030   8.6034   8.9873  10.6378  11.2189
    19.7987  20.3337  20.3341  20.7310

     occupation numbers 
     1.0000   1.0000   1.0000   1.0000   1.0000   1.0000   1.0000   1.0000
     1.0000   1.0000   1.0000   1.0000   1.0000   1.0000   1.0000   1.0000
     0.0000   0.0000   0.0000   0.0000

          k =-0.3750 0.2500 0.2500 (  3711 PWs)   bands (ev):

    -5.7360  -3.5588  -1.6720  -1.6717   1.4417   1.4419   3.2321   5.3481
     6.8269   6.8274   8.4176   8.6033   8.6033   8.9876  10.6383  11.2183
    19.7989  20.3336  20.3340  20.7315

     occupation numbers 
     1.0000   1.0000   1.0000   1.0000   1.0000   1.0000   1.0000   1.0000
     1.0000   1.0000   1.0000   1.0000   1.0000   1.0000   1.0000   1.0000
     0.0000   0.0000   0.0000   0.0000

          k = 0.2500-0.2500-0.5000 (  3708 PWs)   bands (ev):

    -4.7704  -4.7700  -1.3844  -1.3842   0.9424   0.9428   4.1804   4.1807
     6.9723   6.9725   8.5938   8.5943   9.7536   9.7544  10.0779  10.0781
    20.2832  20.2836  21.5823  21.5833

     occupation numbers 
     1.0000   1.0000   1.0000   1.0000   1.0000   1.0000   1.0000   1.0000
     1.0000   1.0000   1.0000   1.0000   1.0000   1.0000   1.0000   1.0000
     0.0000   0.0000   0.0000   0.0000

          k = 0.3750-0.2500 0.3750 (  3708 PWs)   bands (ev):

    -5.0476  -2.9448  -2.9445  -1.6341   0.7031   1.9686   1.9687   3.9957
     7.4150   8.3583   8.3583   9.3426   9.3956   9.3962  10.1667  11.1622
    20.4499  20.7641  20.7645  21.4106

     occupation numbers 
     1.0000   1.0000   1.0000   1.0000   1.0000   1.0000   1.0000   1.0000
     1.0000   1.0000   1.0000   1.0000   1.0000   1.0000   1.0000   1.0000
     0.0000   0.0000   0.0000   0.0000

          k =-0.3750 0.2500 0.3750 (  3708 PWs)   bands (ev):

    -5.0476  -2.9447  -2.9446  -1.6343   0.7035   1.9684   1.9687   3.9957
     7.4150   8.3578   8.3581   9.3423   9.3963   9.3965  10.1673  11.1616
    20.4496  20.7643  20.7647  21.4116

     occupation numbers 
     1.0000   1.0000   1.0000   1.0000   1.0000   1.0000   1.0000   1.0000
     1.0000   1.0000   1.0000   1.0000   1.0000   1.0000   1.0000   1.0000
     0.0000   0.0000   0.0000   0.0000

          k = 0.3750-0.2500-0.5000 (  3720 PWs)   bands (ev):

    -4.1051  -4.1047  -2.1935  -2.1931   1.0074   1.0079   2.8500   2.8504
     7.9497   7.9499   9.3618   9.3625   9.5892   9.5896  10.4930  10.4937
    21.2217  21.2222  21.3409  21.3417

     occupation numbers 
     1.0000   1.0000   1.0000   1.0000   1.0000   1.0000   1.0000   1.0000
     1.0000   1.0000   1.0000   1.0000   1.0000   1.0000   1.0000   1.0000
     0.0000   0.0000   0.0000   0.0000

          k = 0.3750-0.3750 0.3750 (  3704 PWs)   bands (ev):

    -4.3775  -2.4473  -2.4469  -2.4469   0.7526   0.7529   0.7531   2.6271
     9.1280   9.1283   9.1286   9.7514   9.7515   9.7518  10.7440  10.7448
    20.8967  20.8968  20.8974  21.6595

     occupation numbers 
     1.0000   1.0000   1.0000   1.0000   1.0000   1.0000   1.0000   1.0000
     1.0000   1.0000   1.0000   1.0000   1.0000   1.0000   1.0000   1.0000
     0.0000   0.0000   0.0000   0.0000

          k = 0.3750-0.3750-0.5000 (  3696 PWs)   bands (ev):

    -3.4787  -3.4783  -2.1380  -2.1377   0.1992   0.1996   1.5080   1.5083
     9.3075   9.3077   9.9780   9.9785  10.2449  10.2457  10.3571  10.3572
    21.3464  21.3469  21.5344  21.5355

     occupation numbers 
     1.0000   1.0000   1.0000   1.0000   1.0000   1.0000   1.0000   1.0000
     1.0000   1.0000   1.0000   1.0000   1.0000   1.0000   1.0000   1.0000
     0.0000   0.0000   0.0000   0.0000

     the Fermi energy is    15.8820 ev

!    total energy              =     -99.35173517 Ry
     Harris-Foulkes estimate   =     -99.35173513 Ry
     estimated scf accuracy    <       0.00000013 Ry

     The total energy is the sum of the following terms:

     one-electron contribution =      32.52426949 Ry
     hartree contribution      =       7.78662203 Ry
     xc contribution           =     -37.48648208 Ry
     ewald contribution        =    -102.17614461 Ry
     smearing contrib. (-TS)   =      -0.00000000 Ry

     convergence has been achieved in   5 iterations

     Forces acting on atoms (cartesian axes, Ry/au):

     atom    1 type  1   force =    -0.00004032   -0.00004032   -0.00004032
     atom    2 type  1   force =    -0.00003353   -0.00003353   -0.00003713
     atom    3 type  1   force =    -0.00003713   -0.00003353   -0.00003353
     atom    4 type  1   force =    -0.00003353   -0.00003713   -0.00003353
     atom    5 type  1   force =     0.00010656    0.00010656    0.00010656
     atom    6 type  1   force =    -0.00003255   -0.00003255    0.00010305
     atom    7 type  1   force =     0.00010305   -0.00003255   -0.00003255
     atom    8 type  1   force =    -0.00003255    0.00010305   -0.00003255
     The non-local contrib.  to forces
     atom    1 type  1   force =    -0.00000836   -0.00000836   -0.00000836
     atom    2 type  1   force =    -0.00004560   -0.00004560   -0.00001156
     atom    3 type  1   force =    -0.00001156   -0.00004560   -0.00004560
     atom    4 type  1   force =    -0.00004560   -0.00001156   -0.00004560
     atom    5 type  1   force =     0.00009837    0.00009837    0.00009837
     atom    6 type  1   force =    -0.00004159   -0.00004159    0.00009909
     atom    7 type  1   force =     0.00009909   -0.00004159   -0.00004159
     atom    8 type  1   force =    -0.00004159    0.00009909   -0.00004159
     The ionic contribution  to forces
     atom    1 type  1   force =    -0.00013247   -0.00013247   -0.00013247
     atom    2 type  1   force =    -0.00003242   -0.00003242   -0.00013243
     atom    3 type  1   force =    -0.00013243   -0.00003242   -0.00003242
     atom    4 type  1   force =    -0.00003242   -0.00013243   -0.00003242
     atom    5 type  1   force =     0.00033260    0.00033260    0.00033260
     atom    6 type  1   force =    -0.00016771   -0.00016771    0.00033255
     atom    7 type  1   force =     0.00033255   -0.00016771   -0.00016771
     atom    8 type  1   force =    -0.00016771    0.00033255   -0.00016771
     The local contribution  to forces
     atom    1 type  1   force =     0.00019871    0.00019871    0.00019871
     atom    2 type  1   force =    -0.00005824   -0.00005824    0.00021153
     atom    3 type  1   force =     0.00021153   -0.00005824   -0.00005824
     atom    4 type  1   force =    -0.00005824    0.00021153   -0.00005824
     atom    5 type  1   force =    -0.00024482   -0.00024482   -0.00024482
     atom    6 type  1   force =     0.00010211    0.00010211   -0.00025562
     atom    7 type  1   force =    -0.00025562    0.00010211    0.00010211
     atom    8 type  1   force =     0.00010211   -0.00025562    0.00010211
     The core correction contribution to forces
     atom    1 type  1   force =     0.00000056    0.00000056    0.00000056
     atom    2 type  1   force =     0.00000071    0.00000071    0.00000076
     atom    3 type  1   force =     0.00000076    0.00000071    0.00000071
     atom    4 type  1   force =     0.00000071    0.00000076    0.00000071
     atom    5 type  1   force =    -0.00000189   -0.00000189   -0.00000189
     atom    6 type  1   force =     0.00000066    0.00000066   -0.00000201
     atom    7 type  1   force =    -0.00000201    0.00000066    0.00000066
     atom    8 type  1   force =     0.00000066   -0.00000201    0.00000066
     The Hubbard contrib.    to forces
     atom    1 type  1   force =     0.00000000    0.00000000    0.00000000
     atom    2 type  1   force =     0.00000000    0.00000000    0.00000000
     atom    3 type  1   force =     0.00000000    0.00000000    0.00000000
     atom    4 type  1   force =     0.00000000    0.00000000    0.00000000
     atom    5 type  1   force =     0.00000000    0.00000000    0.00000000
     atom    6 type  1   force =     0.00000000    0.00000000    0.00000000
     atom    7 type  1   force =     0.00000000    0.00000000    0.00000000
     atom    8 type  1   force =     0.00000000    0.00000000    0.00000000
     The SCF correction term to forces
     atom    1 type  1   force =    -0.00009866   -0.00009866   -0.00009866
     atom    2 type  1   force =     0.00010212    0.00010212   -0.00010534
     atom    3 type  1   force =    -0.00010534    0.00010212    0.00010212
     atom    4 type  1   force =     0.00010212   -0.00010534    0.00010212
     atom    5 type  1   force =    -0.00007759   -0.00007759   -0.00007759
     atom    6 type  1   force =     0.00007407    0.00007407   -0.00007086
     atom    7 type  1   force =    -0.00007086    0.00007407    0.00007407
     atom    8 type  1   force =     0.00007407   -0.00007086    0.00007407

     Total force =     0.000297     Total SCF correction =     0.000437
     SCF correction compared to forces is large: reduce conv_thr to get better values


     Computing stress (Cartesian axis) and pressure

          total   stress  (Ry/bohr**3)                   (kbar)     P=   -0.91
  -0.00000619   0.00000008   0.00000008         -0.91      0.01      0.01
   0.00000008  -0.00000619   0.00000008          0.01     -0.91      0.01
   0.00000008   0.00000008  -0.00000619          0.01      0.01     -0.91

     kinetic stress (kbar)  18961.80     -0.10     -0.10
                               -0.10  18961.80     -0.10
                               -0.10     -0.10  18961.80

     local   stress (kbar)  -2469.66     -0.65     -0.65
                               -0.65  -2469.66     -0.65
                               -0.65     -0.65  -2469.66

     nonloc. stress (kbar)   3294.71      0.02      0.02
                                0.02   3294.71      0.02
                                0.02      0.02   3294.71

     hartree stress (kbar)   1242.46      0.10      0.10
                                0.10   1242.46      0.10
                                0.10      0.10   1242.46

     exc-cor stress (kbar)   -441.21      0.00      0.00
                                0.00   -441.21      0.00
                                0.00      0.00   -441.21

     corecor stress (kbar)  -4285.45     -0.00     -0.00
                               -0.00  -4285.45     -0.00
                               -0.00     -0.00  -4285.45

     ewald   stress (kbar) -16303.56      0.64      0.64
                                0.64 -16303.56      0.64
                                0.64      0.64 -16303.56

     hubbard stress (kbar)      0.00      0.00      0.00
                                0.00      0.00      0.00
                                0.00      0.00      0.00

     london  stress (kbar)      0.00      0.00      0.00
                                0.00      0.00      0.00
                                0.00      0.00      0.00

     DFT-D3  stress (kbar)      0.00      0.00      0.00
                                0.00      0.00      0.00
                                0.00      0.00      0.00

     XDM     stress (kbar)      0.00      0.00      0.00
                                0.00      0.00      0.00
                                0.00      0.00      0.00

     dft-nl  stress (kbar)      0.00      0.00      0.00
                                0.00      0.00      0.00
                                0.00      0.00      0.00

     TS-vdW  stress (kbar)      0.00      0.00      0.00
                                0.00      0.00      0.00
                                0.00      0.00      0.00



     BFGS Geometry Optimization

     number of scf cycles    =   1
     number of bfgs steps    =   0

     enthalpy new            =     -99.3517351748 Ry

     new trust radius        =       0.0005426487 bohr
     new conv_thr            =       0.0000010000 Ry

     new unit-cell volume =    307.16506 a.u.^3 (    45.51717 Ang^3 )
     density =      3.50544 g/cm^3

CELL_PARAMETERS (angstrom)
   3.570467378   0.000006827   0.000006827
   0.000006827   3.570467378   0.000006827
   0.000006827   0.000006827   3.570467378

ATOMIC_POSITIONS (angstrom)
C       -0.000021333  -0.000021333  -0.000021333
C        1.785209364   1.785209364  -0.000012820
C       -0.000012820   1.785209364   1.785209364
C        1.785209364  -0.000012820   1.785209364
C        0.892621648   0.892621648   0.892621648
C        2.677835139   2.677835139   0.892626618
C        0.892626618   2.677835139   2.677835139
C        2.677835139   0.892626618   2.677835139



     Writing output data file c-3.57102.save/
     NEW-OLD atomic charge density approx. for the potential

     Check: negative core charge=   -0.000003
     extrapolated charge   31.98514, renormalised to   32.00000

     total cpu time spent up to now is       24.4 secs

     Self-consistent Calculation

     iteration #  1     ecut=    80.00 Ry     beta= 0.70
     Davidson diagonalization with overlap
     ethr =  1.00E-06,  avg # of iterations =  2.0

     Threshold (ethr) on eigenvalues was too large:
     Diagonalizing with lowered threshold

     Davidson diagonalization with overlap
     ethr =  1.93E-09,  avg # of iterations =  1.1

     total cpu time spent up to now is       30.4 secs

     End of self-consistent calculation

          k = 0.0000 0.0000 0.0000 (  3743 PWs)   bands (ev):

    -8.1427   0.5416   0.5416   0.5417   0.5419   0.5419   0.5423   6.9896
     6.9896   6.9896   6.9899   6.9899   6.9899  13.2717  13.2717  13.2725
    18.0680  18.0683  18.0685  18.0686

     occupation numbers 
     1.0000   1.0000   1.0000   1.0000   1.0000   1.0000   1.0000   1.0000
     1.0000   1.0000   1.0000   1.0000   1.0000   1.0000   1.0000   1.0000
     0.0000   0.0000   0.0000   0.0000

          k =-0.0000-0.0000 0.1250 (  3767 PWs)   bands (ev):

    -7.9989  -1.3756   0.6321   0.6323   0.6325   0.6327   2.5940   6.6855
     6.6857   6.6858   6.6859   7.1301   7.1302  12.7211  12.7214  12.9213
    17.6096  18.6458  18.6461  18.7607

     occupation numbers 
     1.0000   1.0000   1.0000   1.0000   1.0000   1.0000   1.0000   1.0000
     1.0000   1.0000   1.0000   1.0000   1.0000   1.0000   1.0000   1.0000
     0.0000   0.0000   0.0000   0.0000

          k =-0.0000-0.0000 0.2500 (  3719 PWs)   bands (ev):

    -7.5687  -3.1054   0.8775   0.8777   0.8779   0.8781   4.7090   5.9811
     5.9812   5.9813   5.9814   7.5481   7.5482  11.5537  11.5540  11.9495
    17.4361  18.4669  20.0394  20.1711

     occupation numbers 
     1.0000   1.0000   1.0000   1.0000   1.0000   1.0000   1.0000   1.0000
     1.0000   1.0000   1.0000   1.0000   1.0000   1.0000   1.0000   1.0000
     0.0000   0.0000   0.0000   0.0000

          k =-0.0000-0.0000 0.3751 (  3715 PWs)   bands (ev):

    -6.8556  -4.6104   1.1778   1.1781   1.1783   1.1785   5.2811   5.2811
     5.2813   5.2814   6.7983   8.2328   8.2329  10.2978  10.2980  10.5181
    17.4974  18.0907  21.6213  22.2320

     occupation numbers 
     1.0000   1.0000   1.0000   1.0000   1.0000   1.0000   1.0000   1.0000
     1.0000   1.0000   1.0000   1.0000   1.0000   1.0000   1.0000   1.0000
     0.0000   0.0000   0.0000   0.0000

          k = 0.0000 0.0000-0.5001 (  3764 PWs)   bands (ev):

    -5.8661  -5.8658   1.3276   1.3278   1.3280   1.3283   4.9792   4.9793
     4.9795   4.9795   8.7661   8.7664   9.1626   9.1628   9.1630   9.1632
    17.7381  17.7383  23.5410  23.5412

     occupation numbers 
     1.0000   1.0000   1.0000   1.0000   1.0000   1.0000   1.0000   1.0000
     1.0000   1.0000   1.0000   1.0000   1.0000   1.0000   1.0000   1.0000
     0.0000   0.0000   0.0000   0.0000

          k =-0.0000 0.1250 0.1250 (  3731 PWs)   bands (ev):

    -7.8554  -1.2601  -1.2600   0.6234   0.8000   2.6308   2.6310   5.7313
     6.7868   6.7869   6.8944   6.8946   7.2291  11.8550  12.2054  13.0915
    18.2056  18.2057  18.3012  19.1648

     occupation numbers 
     1.0000   1.0000   1.0000   1.0000   1.0000   1.0000   1.0000   1.0000
     1.0000   1.0000   1.0000   1.0000   1.0000   1.0000   1.0000   1.0000
     0.0000   0.0000   0.0000   0.0000

          k =-0.0000 0.1250 0.2500 (  3711 PWs)   bands (ev):

    -7.4259  -2.9771  -0.9250   0.6771   1.1458   2.6811   4.6203   4.7758
     5.9741   6.4006   7.1651   7.1780   7.4513  10.5876  11.0850  12.5029
    18.0427  19.0343  19.0927  19.7680

     occupation numbers 
     1.0000   1.0000   1.0000   1.0000   1.0000   1.0000   1.0000   1.0000
     1.0000   1.0000   1.0000   1.0000   1.0000   1.0000   1.0000   1.0000
     0.0000   0.0000   0.0000   0.0000

          k =-0.0000 0.1250 0.3751 (  3706 PWs)   bands (ev):

    -6.7141  -4.4752  -0.4145   0.5779   1.6376   2.5690   4.2444   5.0714
     6.0883   6.4182   6.7053   7.8410   8.4335   9.2520   9.8614  11.3065
    18.1073  18.6849  20.7628  21.8908

     occupation numbers 
     1.0000   1.0000   1.0000   1.0000   1.0000   1.0000   1.0000   1.0000
     1.0000   1.0000   1.0000   1.0000   1.0000   1.0000   1.0000   1.0000
     0.0000   0.0000   0.0000   0.0000

          k = 0.0000 0.1250-0.5001 (  3700 PWs)   bands (ev):

    -5.7270  -5.7266   0.1602   0.1606   2.1749   2.1752   4.3943   4.3945
     6.2333   6.2335   7.9075   7.9078   8.7501   8.7502   9.8266   9.8270
    18.3443  18.3445  22.7650  22.7654

     occupation numbers 
     1.0000   1.0000   1.0000   1.0000   1.0000   1.0000   1.0000   1.0000
     1.0000   1.0000   1.0000   1.0000   1.0000   1.0000   1.0000   1.0000
     0.0000   0.0000   0.0000   0.0000

          k =-0.0000 0.2500 0.2500 (  3724 PWs)   bands (ev):

    -6.9987  -2.5983  -2.5981   0.3272   1.5707   3.9892   4.2819   4.2819
     6.3014   6.3014   7.3510   7.3514   7.9221   9.3002  10.0337  12.5155
    18.9823  19.6159  19.6159  20.0279

     occupation numbers 
     1.0000   1.0000   1.0000   1.0000   1.0000   1.0000   1.0000   1.0000
     1.0000   1.0000   1.0000   1.0000   1.0000   1.0000   1.0000   1.0000
     0.0000   0.0000   0.0000   0.0000

          k =-0.0000 0.2500 0.3751 (  3710 PWs)   bands (ev):

    -6.2913  -4.0731  -1.9896  -0.3524   2.1655   3.6552   3.9154   5.2991
     5.5896   6.9192   7.4914   8.0076   8.0714   8.7984   8.8610  11.7420
    19.6659  19.9449  20.0928  21.7327

     occupation numbers 
     1.0000   1.0000   1.0000   1.0000   1.0000   1.0000   1.0000   1.0000
     1.0000   1.0000   1.0000   1.0000   1.0000   1.0000   1.0000   1.0000
     0.0000   0.0000   0.0000   0.0000

          k = 0.0000 0.2500-0.5001 (  3712 PWs)   bands (ev):

    -5.3118  -5.3114  -1.2020  -1.2016   2.8925   2.8928   4.4347   4.4349
     6.7793   6.7796   7.7898   7.7900   7.8157   7.8159  10.3925  10.3929
    19.8575  19.8578  21.6619  21.6622

     occupation numbers 
     1.0000   1.0000   1.0000   1.0000   1.0000   1.0000   1.0000   1.0000
     1.0000   1.0000   1.0000   1.0000   1.0000   1.0000   1.0000   1.0000
     0.0000   0.0000   0.0000   0.0000

          k =-0.0000 0.3751 0.3751 (  3690 PWs)   bands (ev):

    -5.5924  -3.4157  -3.4156  -1.4661   2.8432   4.2095   4.6218   4.6219
     5.8606   5.8606   6.7814   7.7283   8.9868   9.1367   9.1371  11.5282
    20.0349  21.4239  21.7161  21.7162

     occupation numbers 
     1.0000   1.0000   1.0000   1.0000   1.0000   1.0000   1.0000   1.0000
     1.0000   1.0000   1.0000   1.0000   1.0000   1.0000   1.0000   1.0000
     0.0000   0.0000   0.0000   0.0000

          k = 0.0000 0.3751-0.5001 (  3698 PWs)   bands (ev):

    -4.6279  -4.6276  -2.5285  -2.5281   3.6758   3.6761   4.9080   4.9082
     5.6457   5.6460   6.6920   6.6922   9.2849   9.2852  10.5990  10.5994
    21.0706  21.0709  21.7410  21.7413

     occupation numbers 
     1.0000   1.0000   1.0000   1.0000   1.0000   1.0000   1.0000   1.0000
     1.0000   1.0000   1.0000   1.0000   1.0000   1.0000   1.0000   1.0000
     0.0000   0.0000   0.0000   0.0000

          k = 0.0000-0.5001-0.5001 (  3676 PWs)   bands (ev):

    -3.6905  -3.6904  -3.6903  -3.6897   4.5948   4.5948   4.5951   4.5951
     5.6907   5.6908   5.6909   5.6911  10.2671  10.2674  10.2676  10.2678
    21.2188  21.2190  21.2192  21.2194

     occupation numbers 
     1.0000   1.0000   1.0000   1.0000   1.0000   1.0000   1.0000   1.0000
     1.0000   1.0000   1.0000   1.0000   1.0000   1.0000   1.0000   1.0000
     0.0000   0.0000   0.0000   0.0000

          k = 0.1250 0.1250 0.1250 (  3725 PWs)   bands (ev):

    -7.7121  -1.1499  -1.1499  -1.1496   2.6284   2.6284   2.6286   5.9530
     5.9530   5.9532   7.3655   7.3657   7.3657  10.8669  12.6219  12.6219
    18.2799  18.2800  18.2800  19.7274

     occupation numbers 
     1.0000   1.0000   1.0000   1.0000   1.0000   1.0000   1.0000   1.0000
     1.0000   1.0000   1.0000   1.0000   1.0000   1.0000   1.0000   1.0000
     0.0000   0.0000   0.0000   0.0000

          k = 0.1250 0.1250 0.2500 (  3714 PWs)   bands (ev):

    -7.2833  -2.8508  -0.8383  -0.8381   2.5143   2.5144   4.3895   5.1752
     5.1754   6.6992   7.3192   7.3192   7.7714   9.5296  11.5754  12.3140
    18.3083  19.1472  19.1473  19.4872

     occupation numbers 
     1.0000   1.0000   1.0000   1.0000   1.0000   1.0000   1.0000   1.0000
     1.0000   1.0000   1.0000   1.0000   1.0000   1.0000   1.0000   1.0000
     0.0000   0.0000   0.0000   0.0000

          k = 0.1250 0.1250 0.3751 (  3706 PWs)   bands (ev):

    -6.5730  -4.3409  -0.4134  -0.4132   2.1337   2.1337   4.8884   4.8886
     5.7746   6.9444   6.9445   8.0663   8.2004   8.4337  10.4062  11.2462
    18.4690  19.1236  20.8252  20.8253

     occupation numbers 
     1.0000   1.0000   1.0000   1.0000   1.0000   1.0000   1.0000   1.0000
     1.0000   1.0000   1.0000   1.0000   1.0000   1.0000   1.0000   1.0000
     0.0000   0.0000   0.0000   0.0000

          k = 0.1250 0.1250-0.5001 (  3710 PWs)   bands (ev):

    -5.5883  -5.5880  -0.1649  -0.1646   1.8528   1.8529   4.8968   4.8971
     6.7196   6.7196   6.9630   6.9635   9.3275   9.3279   9.7254   9.7260
    18.7574  18.7577  22.4733  22.4734

     occupation numbers 
     1.0000   1.0000   1.0000   1.0000   1.0000   1.0000   1.0000   1.0000
     1.0000   1.0000   1.0000   1.0000   1.0000   1.0000   1.0000   1.0000
     0.0000   0.0000   0.0000   0.0000

          k = 0.1250 0.2500 0.2500 (  3717 PWs)   bands (ev):

    -6.8570  -2.4797  -2.4795  -0.6423   1.9738   3.6747   3.6747   4.8240
     6.3466   6.3468   7.8150   7.8152   8.0451   8.1534  10.9388  12.2361
    19.0859  19.3107  19.3107  20.3129

     occupation numbers 
     1.0000   1.0000   1.0000   1.0000   1.0000   1.0000   1.0000   1.0000
     1.0000   1.0000   1.0000   1.0000   1.0000   1.0000   1.0000   1.0000
     0.0000   0.0000   0.0000   0.0000

          k = 0.1250 0.2500 0.3751 (  3716 PWs)   bands (ev):

    -6.1513  -3.9421  -1.8941  -0.6480   1.5537   2.7256   4.6234   5.0597
     6.0484   6.8312   7.7091   7.7922   8.2012   8.8274   9.8795  11.5661
    19.5743  20.0491  20.2443  21.0010

     occupation numbers 
     1.0000   1.0000   1.0000   1.0000   1.0000   1.0000   1.0000   1.0000
     1.0000   1.0000   1.0000   1.0000   1.0000   1.0000   1.0000   1.0000
     0.0000   0.0000   0.0000   0.0000

          k = 0.1250 0.2500-0.5001 (  3702 PWs)   bands (ev):

    -5.1749  -5.1745  -1.1864  -1.1861   1.8945   1.8948   5.5583   5.5587
     5.6483   5.6487   7.9923   7.9925   8.8068   8.8071  10.2882  10.2885
    19.9079  19.9082  21.6765  21.6767

     occupation numbers 
     1.0000   1.0000   1.0000   1.0000   1.0000   1.0000   1.0000   1.0000
     1.0000   1.0000   1.0000   1.0000   1.0000   1.0000   1.0000   1.0000
     0.0000   0.0000   0.0000   0.0000

          k = 0.1250 0.3751 0.3751 (  3710 PWs)   bands (ev):

    -5.4547  -3.2930  -3.2929  -1.4466   1.7188   3.4544   3.4544   5.5316
     5.5536   7.0125   7.0125   8.9211   9.0795   9.2030   9.2034  11.4364
    20.1463  21.2533  21.2533  21.3980

     occupation numbers 
     1.0000   1.0000   1.0000   1.0000   1.0000   1.0000   1.0000   1.0000
     1.0000   1.0000   1.0000   1.0000   1.0000   1.0000   1.0000   1.0000
     0.0000   0.0000   0.0000   0.0000

          k = 0.1250 0.3751-0.5001 (  3710 PWs)   bands (ev):

    -4.4949  -4.4945  -2.4291  -2.4287   2.4405   2.4408   4.3915   4.3919
     6.2414   6.2418   7.9370   7.9373   9.3638   9.3640  10.5783  10.5785
    21.1492  21.1495  21.5040  21.5044

     occupation numbers 
     1.0000   1.0000   1.0000   1.0000   1.0000   1.0000   1.0000   1.0000
     1.0000   1.0000   1.0000   1.0000   1.0000   1.0000   1.0000   1.0000
     0.0000   0.0000   0.0000   0.0000

          k = 0.1250-0.5001-0.5001 (  3696 PWs)   bands (ev):

    -3.5665  -3.5664  -3.5663  -3.5658   3.2994   3.2996   3.2997   3.3000
     7.0439   7.0442   7.0442   7.0446  10.2966  10.2969  10.2971  10.2973
    21.2950  21.2952  21.2953  21.2956

     occupation numbers 
     1.0000   1.0000   1.0000   1.0000   1.0000   1.0000   1.0000   1.0000
     1.0000   1.0000   1.0000   1.0000   1.0000   1.0000   1.0000   1.0000
     0.0000   0.0000   0.0000   0.0000

          k = 0.2500 0.2500 0.2500 (  3728 PWs)   bands (ev):

    -6.4334  -2.1413  -2.1413  -2.1410   2.5163   2.5163   2.5163   6.5530
     6.5530   6.5534   6.7020   8.4080   8.4082   8.4082  11.5307  11.5307
    19.3791  19.3792  19.3792  21.0662

     occupation numbers 
     1.0000   1.0000   1.0000   1.0000   1.0000   1.0000   1.0000   1.0000
     1.0000   1.0000   1.0000   1.0000   1.0000   1.0000   1.0000   1.0000
     0.0000   0.0000   0.0000   0.0000

          k = 0.2500 0.2500 0.3751 (  3711 PWs)   bands (ev):

    -5.7333  -3.5556  -1.6682  -1.6679   1.4454   1.4455   3.2365   5.3527
     6.8319   6.8323   8.4227   8.6077   8.6077   8.9919  10.6429  11.2238
    19.8091  20.3445  20.3446  20.7406

     occupation numbers 
     1.0000   1.0000   1.0000   1.0000   1.0000   1.0000   1.0000   1.0000
     1.0000   1.0000   1.0000   1.0000   1.0000   1.0000   1.0000   1.0000
     0.0000   0.0000   0.0000   0.0000

          k = 0.2500 0.2500-0.5001 (  3708 PWs)   bands (ev):

    -4.7674  -4.7671  -1.3806  -1.3803   0.9462   0.9464   4.1848   4.1851
     6.9769   6.9773   8.5986   8.5986   9.7586   9.7590  10.0829  10.0833
    20.2932  20.2936  21.5933  21.5933

     occupation numbers 
     1.0000   1.0000   1.0000   1.0000   1.0000   1.0000   1.0000   1.0000
     1.0000   1.0000   1.0000   1.0000   1.0000   1.0000   1.0000   1.0000
     0.0000   0.0000   0.0000   0.0000

          k = 0.2500 0.3751 0.3751 (  3708 PWs)   bands (ev):

    -5.0448  -2.9414  -2.9412  -1.6304   0.7069   1.9725   1.9725   4.0002
     7.4199   8.3630   8.3631   9.3469   9.4007   9.4011  10.1720  11.1668
    20.4604  20.7747  20.7747  21.4205

     occupation numbers 
     1.0000   1.0000   1.0000   1.0000   1.0000   1.0000   1.0000   1.0000
     1.0000   1.0000   1.0000   1.0000   1.0000   1.0000   1.0000   1.0000
     0.0000   0.0000   0.0000   0.0000

          k = 0.2500 0.3751-0.5001 (  3720 PWs)   bands (ev):

    -4.1020  -4.1016  -2.1898  -2.1895   1.0113   1.0115   2.8542   2.8545
     7.9544   7.9548   9.3670   9.3672   9.5940   9.5942  10.4982  10.4984
    21.2317  21.2320  21.3517  21.3519

     occupation numbers 
     1.0000   1.0000   1.0000   1.0000   1.0000   1.0000   1.0000   1.0000
     1.0000   1.0000   1.0000   1.0000   1.0000   1.0000   1.0000   1.0000
     0.0000   0.0000   0.0000   0.0000

          k = 0.2500-0.5001-0.5001 (  3700 PWs)   bands (ev):

    -3.2107  -3.2106  -3.2105  -3.2099   1.7569   1.7571   1.7572   1.7575
     8.7037   8.7038   8.7039   8.7044  10.3694  10.3697  10.3699  10.3702
    21.4905  21.4908  21.4908  21.4913

     occupation numbers 
     1.0000   1.0000   1.0000   1.0000   1.0000   1.0000   1.0000   1.0000
     1.0000   1.0000   1.0000   1.0000   1.0000   1.0000   1.0000   1.0000
     0.0000   0.0000   0.0000   0.0000

          k = 0.3751 0.3751 0.3751 (  3704 PWs)   bands (ev):

    -4.3746  -2.4436  -2.4436  -2.4432   0.7564   0.7565   0.7565   2.6313
     9.1332   9.1332   9.1337   9.7561   9.7563   9.7563  10.7493  10.7493
    20.9072  20.9073  20.9074  21.6683

     occupation numbers 
     1.0000   1.0000   1.0000   1.0000   1.0000   1.0000   1.0000   1.0000
     1.0000   1.0000   1.0000   1.0000   1.0000   1.0000   1.0000   1.0000
     0.0000   0.0000   0.0000   0.0000

          k = 0.3751 0.3751-0.5001 (  3696 PWs)   bands (ev):

    -3.4755  -3.4751  -2.1343  -2.1340   0.2028   0.2029   1.5119   1.5122
     9.3122   9.3126   9.9830   9.9831  10.2500  10.2504  10.3619  10.3622
    21.3565  21.3568  21.5449  21.5450

     occupation numbers 
     1.0000   1.0000   1.0000   1.0000   1.0000   1.0000   1.0000   1.0000
     1.0000   1.0000   1.0000   1.0000   1.0000   1.0000   1.0000   1.0000
     0.0000   0.0000   0.0000   0.0000

          k = 0.3751-0.5001-0.5001 (  3700 PWs)   bands (ev):

    -2.7050  -2.7048  -2.7048  -2.7042   0.5081   0.5084   0.5085   0.5087
     9.9807   9.9808   9.9809   9.9814  10.4447  10.4450  10.4452  10.4455
    21.6948  21.6951  21.6952  21.6957

     occupation numbers 
     1.0000   1.0000   1.0000   1.0000   1.0000   1.0000   1.0000   1.0000
     1.0000   1.0000   1.0000   1.0000   1.0000   1.0000   1.0000   1.0000
     0.0000   0.0000   0.0000   0.0000

          k =-0.5001-0.5001-0.5001 (  3648 PWs)   bands (ev):

    -2.3885  -2.3882  -2.3882  -2.3875  -0.0599  -0.0597  -0.0597  -0.0594
    10.4767  10.4767  10.4767  10.4770  10.4770  10.4774  10.4774  10.4777
    21.7460  21.7461  21.7464  21.7469

     occupation numbers 
     1.0000   1.0000   1.0000   1.0000   1.0000   1.0000   1.0000   1.0000
     1.0000   1.0000   1.0000   1.0000   1.0000   1.0000   1.0000   1.0000
     0.0000   0.0000   0.0000   0.0000

          k =-0.1250 0.0000 0.1250 (  3731 PWs)   bands (ev):

    -7.8554  -1.2602  -1.2600   0.6237   0.7997   2.6309   2.6311   5.7312
     6.7867   6.7869   6.8943   6.8946   7.2292  11.8546  12.2054  13.0920
    18.2056  18.2059  18.3013  19.1643

     occupation numbers 
     1.0000   1.0000   1.0000   1.0000   1.0000   1.0000   1.0000   1.0000
     1.0000   1.0000   1.0000   1.0000   1.0000   1.0000   1.0000   1.0000
     0.0000   0.0000   0.0000   0.0000

          k =-0.1250-0.0000 0.2500 (  3711 PWs)   bands (ev):

    -7.4259  -2.9771  -0.9251   0.6774   1.1455   2.6813   4.6205   4.7757
     5.9741   6.4005   7.1652   7.1779   7.4512  10.5872  11.0851  12.5033
    18.0427  19.0341  19.0927  19.7681

     occupation numbers 
     1.0000   1.0000   1.0000   1.0000   1.0000   1.0000   1.0000   1.0000
     1.0000   1.0000   1.0000   1.0000   1.0000   1.0000   1.0000   1.0000
     0.0000   0.0000   0.0000   0.0000

          k =-0.1250-0.0000 0.3751 (  3706 PWs)   bands (ev):

    -6.7141  -4.4753  -0.4146   0.5782   1.6373   2.5692   4.2443   5.0715
     6.0881   6.4184   6.7055   7.8409   8.4332   9.2517   9.8615  11.3069
    18.1074  18.6848  20.7629  21.8915

     occupation numbers 
     1.0000   1.0000   1.0000   1.0000   1.0000   1.0000   1.0000   1.0000
     1.0000   1.0000   1.0000   1.0000   1.0000   1.0000   1.0000   1.0000
     0.0000   0.0000   0.0000   0.0000

          k =-0.2500 0.0000 0.2500 (  3724 PWs)   bands (ev):

    -6.9987  -2.5984  -2.5981   0.3275   1.5704   3.9891   4.2821   4.2822
     6.3012   6.3014   7.3508   7.3512   7.9222   9.2998  10.0338  12.5160
    18.9824  19.6158  19.6162  20.0274

     occupation numbers 
     1.0000   1.0000   1.0000   1.0000   1.0000   1.0000   1.0000   1.0000
     1.0000   1.0000   1.0000   1.0000   1.0000   1.0000   1.0000   1.0000
     0.0000   0.0000   0.0000   0.0000

          k =-0.2500-0.0000 0.3751 (  3710 PWs)   bands (ev):

    -6.2913  -4.0732  -1.9897  -0.3522   2.1653   3.6555   3.9153   5.2991
     5.5899   6.9192   7.4911   8.0073   8.0715   8.7981   8.8611  11.7424
    19.6661  19.9450  20.0925  21.7329

     occupation numbers 
     1.0000   1.0000   1.0000   1.0000   1.0000   1.0000   1.0000   1.0000
     1.0000   1.0000   1.0000   1.0000   1.0000   1.0000   1.0000   1.0000
     0.0000   0.0000   0.0000   0.0000

          k =-0.3751 0.0000 0.3751 (  3690 PWs)   bands (ev):

    -5.5924  -3.4158  -3.4156  -1.4660   2.8429   4.2095   4.6221   4.6222
     5.8604   5.8607   6.7811   7.7284   8.9870   9.1364   9.1369  11.5286
    20.0350  21.4235  21.7161  21.7166

     occupation numbers 
     1.0000   1.0000   1.0000   1.0000   1.0000   1.0000   1.0000   1.0000
[...]

          k = 0.1250-0.1250-0.5000 (  3710 PWs)   bands (ev):

    -5.5903  -5.5900  -0.1676  -0.1674   1.8499   1.8502   4.8938   4.8939
     6.7164   6.7167   6.9598   6.9601   9.3243   9.3248   9.7222   9.7223
    18.7500  18.7502  22.4645  22.4650

     occupation numbers 
     1.0000   1.0000   1.0000   1.0000   1.0000   1.0000   1.0000   1.0000
     1.0000   1.0000   1.0000   1.0000   1.0000   1.0000   1.0000   1.0000
     0.0000   0.0000   0.0000   0.0000

          k = 0.2500-0.1250 0.2500 (  3717 PWs)   bands (ev):

    -6.8587  -2.4821  -2.4819  -0.6449   1.9710   3.6719   3.6719   4.8208
     6.3434   6.3435   7.8119   7.8122   8.0424   8.1499  10.9352  12.2332
    19.0772  19.3022  19.3025  20.3060

     occupation numbers 
     1.0000   1.0000   1.0000   1.0000   1.0000   1.0000   1.0000   1.0000
     1.0000   1.0000   1.0000   1.0000   1.0000   1.0000   1.0000   1.0000
     0.0000   0.0000   0.0000   0.0000

          k =-0.2500 0.1250 0.2500 (  3717 PWs)   bands (ev):

    -6.8587  -2.4820  -2.4820  -0.6450   1.9712   3.6717   3.6719   4.8208
     6.3433   6.3434   7.8122   7.8124   8.0422   8.1499  10.9355  12.2327
    19.0771  19.3023  19.3025  20.3066

     occupation numbers 
     1.0000   1.0000   1.0000   1.0000   1.0000   1.0000   1.0000   1.0000
     1.0000   1.0000   1.0000   1.0000   1.0000   1.0000   1.0000   1.0000
     0.0000   0.0000   0.0000   0.0000

          k = 0.2500-0.1250 0.3750 (  3716 PWs)   bands (ev):

    -6.1531  -3.9443  -1.8967  -0.6506   1.5507   2.7228   4.6205   5.0565
     6.0452   6.8277   7.7058   7.7890   8.1984   8.8240   9.8760  11.5632
    19.5665  20.0406  20.2372  20.9926

     occupation numbers 
     1.0000   1.0000   1.0000   1.0000   1.0000   1.0000   1.0000   1.0000
     1.0000   1.0000   1.0000   1.0000   1.0000   1.0000   1.0000   1.0000
     0.0000   0.0000   0.0000   0.0000

          k =-0.2500 0.1250 0.3750 (  3716 PWs)   bands (ev):

    -6.1531  -3.9443  -1.8966  -0.6507   1.5510   2.7226   4.6204   5.0565
     6.0451   6.8277   7.7055   7.7893   8.1982   8.8244   9.8763  11.5628
    19.5664  20.0404  20.2374  20.9928

     occupation numbers 
     1.0000   1.0000   1.0000   1.0000   1.0000   1.0000   1.0000   1.0000
     1.0000   1.0000   1.0000   1.0000   1.0000   1.0000   1.0000   1.0000
     0.0000   0.0000   0.0000   0.0000

          k =-0.3750 0.2500 0.1250 (  3716 PWs)   bands (ev):

    -6.1531  -3.9443  -1.8966  -0.6507   1.5510   2.7228   4.6202   5.0564
     6.0449   6.8278   7.7058   7.7893   8.1982   8.8244   9.8763  11.5627
    19.5666  20.0404  20.2375  20.9927

     occupation numbers 
     1.0000   1.0000   1.0000   1.0000   1.0000   1.0000   1.0000   1.0000
     1.0000   1.0000   1.0000   1.0000   1.0000   1.0000   1.0000   1.0000
     0.0000   0.0000   0.0000   0.0000

          k = 0.2500-0.1250-0.5000 (  3702 PWs)   bands (ev):

    -5.1769  -5.1765  -1.1890  -1.1887   1.8916   1.8920   5.5552   5.5555
     5.6452   5.6454   7.9892   7.9895   8.8034   8.8039  10.2849  10.2853
    19.9005  19.9008  21.6680  21.6684

     occupation numbers 
     1.0000   1.0000   1.0000   1.0000   1.0000   1.0000   1.0000   1.0000
     1.0000   1.0000   1.0000   1.0000   1.0000   1.0000   1.0000   1.0000
     0.0000   0.0000   0.0000   0.0000

          k = 0.3750-0.1250 0.3750 (  3710 PWs)   bands (ev):

    -5.4567  -3.2954  -3.2952  -1.4491   1.7158   3.4515   3.4515   5.5283
     5.5503   7.0093   7.0094   8.9176   9.0767   9.1995   9.2000  11.4335
    20.1378  21.2454  21.2456  21.3909

     occupation numbers 
     1.0000   1.0000   1.0000   1.0000   1.0000   1.0000   1.0000   1.0000
     1.0000   1.0000   1.0000   1.0000   1.0000   1.0000   1.0000   1.0000
     0.0000   0.0000   0.0000   0.0000

          k =-0.3750 0.1250 0.3750 (  3710 PWs)   bands (ev):

    -5.4567  -3.2953  -3.2952  -1.4491   1.7161   3.4513   3.4515   5.5284
     5.5503   7.0091   7.0093   8.9179   9.0765   9.1999   9.2002  11.4331
    20.1376  21.2456  21.2457  21.3914

     occupation numbers 
     1.0000   1.0000   1.0000   1.0000   1.0000   1.0000   1.0000   1.0000
     1.0000   1.0000   1.0000   1.0000   1.0000   1.0000   1.0000   1.0000
     0.0000   0.0000   0.0000   0.0000

          k = 0.3750-0.1250-0.5000 (  3710 PWs)   bands (ev):

    -4.4970  -4.4966  -2.4315  -2.4312   2.4376   2.4380   4.3885   4.3888
     6.2383   6.2385   7.9336   7.9341   9.3607   9.3610  10.5750  10.5754
    21.1407  21.1411  21.4968  21.4971

     occupation numbers 
     1.0000   1.0000   1.0000   1.0000   1.0000   1.0000   1.0000   1.0000
     1.0000   1.0000   1.0000   1.0000   1.0000   1.0000   1.0000   1.0000
     0.0000   0.0000   0.0000   0.0000

          k = 0.2500-0.2500 0.2500 (  3728 PWs)   bands (ev):

    -6.4352  -2.1438  -2.1436  -2.1436   2.5134   2.5136   2.5136   6.5495
     6.5497   6.5498   6.6986   8.4052   8.4053   8.4055  11.5272  11.5278
    19.3705  19.3706  19.3709  21.0590

     occupation numbers 
     1.0000   1.0000   1.0000   1.0000   1.0000   1.0000   1.0000   1.0000
     1.0000   1.0000   1.0000   1.0000   1.0000   1.0000   1.0000   1.0000
     0.0000   0.0000   0.0000   0.0000

          k = 0.2500-0.2500 0.3750 (  3711 PWs)   bands (ev):

    -5.7352  -3.5579  -1.6707  -1.6706   1.4426   1.4429   3.2336   5.3494
     6.8287   6.8289   8.4191   8.6046   8.6049   8.9890  10.6396  11.2207
    19.8011  20.3361  20.3364  20.7335

     occupation numbers 
     1.0000   1.0000   1.0000   1.0000   1.0000   1.0000   1.0000   1.0000
     1.0000   1.0000   1.0000   1.0000   1.0000   1.0000   1.0000   1.0000
     0.0000   0.0000   0.0000   0.0000

          k =-0.3750 0.2500 0.2500 (  3711 PWs)   bands (ev):

    -5.7352  -3.5579  -1.6708  -1.6705   1.4428   1.4429   3.2334   5.3495
     6.8284   6.8289   8.4192   8.6048   8.6048   8.9892  10.6399  11.2203
    19.8012  20.3360  20.3363  20.7338

     occupation numbers 
     1.0000   1.0000   1.0000   1.0000   1.0000   1.0000   1.0000   1.0000
     1.0000   1.0000   1.0000   1.0000   1.0000   1.0000   1.0000   1.0000
     0.0000   0.0000   0.0000   0.0000

          k = 0.2500-0.2500-0.5000 (  3708 PWs)   bands (ev):

    -4.7695  -4.7692  -1.3832  -1.3830   0.9434   0.9438   4.1817   4.1820
     6.9737   6.9740   8.5954   8.5958   9.7554   9.7560  10.0797  10.0797
    20.2857  20.2860  21.5848  21.5854

     occupation numbers 
     1.0000   1.0000   1.0000   1.0000   1.0000   1.0000   1.0000   1.0000
     1.0000   1.0000   1.0000   1.0000   1.0000   1.0000   1.0000   1.0000
     0.0000   0.0000   0.0000   0.0000

          k = 0.3750-0.2500 0.3750 (  3708 PWs)   bands (ev):

    -5.0468  -2.9438  -2.9436  -1.6329   0.7041   1.9697   1.9698   3.9970
     7.4165   8.3598   8.3598   9.3442   9.3974   9.3978  10.1686  11.1639
    20.4522  20.7666  20.7669  21.4132

     occupation numbers 
     1.0000   1.0000   1.0000   1.0000   1.0000   1.0000   1.0000   1.0000
     1.0000   1.0000   1.0000   1.0000   1.0000   1.0000   1.0000   1.0000
     0.0000   0.0000   0.0000   0.0000

          k =-0.3750 0.2500 0.3750 (  3708 PWs)   bands (ev):

    -5.0468  -2.9437  -2.9436  -1.6330   0.7044   1.9696   1.9698   3.9970
     7.4165   8.3595   8.3597   9.3439   9.3979   9.3981  10.1689  11.1635
    20.4519  20.7668  20.7670  21.4139

     occupation numbers 
     1.0000   1.0000   1.0000   1.0000   1.0000   1.0000   1.0000   1.0000
     1.0000   1.0000   1.0000   1.0000   1.0000   1.0000   1.0000   1.0000
     0.0000   0.0000   0.0000   0.0000

          k = 0.3750-0.2500-0.5000 (  3720 PWs)   bands (ev):

    -4.1042  -4.1038  -2.1923  -2.1920   1.0085   1.0089   2.8512   2.8515
     7.9512   7.9515   9.3636   9.3641   9.5909   9.5912  10.4949  10.4953
    21.2245  21.2248  21.3435  21.3440

     occupation numbers 
     1.0000   1.0000   1.0000   1.0000   1.0000   1.0000   1.0000   1.0000
     1.0000   1.0000   1.0000   1.0000   1.0000   1.0000   1.0000   1.0000
     0.0000   0.0000   0.0000   0.0000

          k = 0.3750-0.3750 0.3750 (  3704 PWs)   bands (ev):

    -4.3766  -2.4461  -2.4459  -2.4458   0.7537   0.7538   0.7540   2.6282
     9.1297   9.1300   9.1302   9.7532   9.7533   9.7535  10.7459  10.7465
    20.8991  20.8993  20.8996  21.6610

     occupation numbers 
     1.0000   1.0000   1.0000   1.0000   1.0000   1.0000   1.0000   1.0000
     1.0000   1.0000   1.0000   1.0000   1.0000   1.0000   1.0000   1.0000
     0.0000   0.0000   0.0000   0.0000

          k = 0.3750-0.3750-0.5000 (  3696 PWs)   bands (ev):

    -3.4777  -3.4774  -2.1368  -2.1366   0.2001   0.2004   1.5091   1.5094
     9.3091   9.3093   9.9798   9.9802  10.2468  10.2474  10.3588  10.3589
    21.3490  21.3494  21.5370  21.5377

     occupation numbers 
     1.0000   1.0000   1.0000   1.0000   1.0000   1.0000   1.0000   1.0000
     1.0000   1.0000   1.0000   1.0000   1.0000   1.0000   1.0000   1.0000
     0.0000   0.0000   0.0000   0.0000

     the Fermi energy is    15.8841 ev

!    total energy              =     -99.35173530 Ry
     Harris-Foulkes estimate   =     -99.35173522 Ry
     estimated scf accuracy    <       0.00000015 Ry

     The total energy is the sum of the following terms:

     one-electron contribution =      32.52889180 Ry
     hartree contribution      =       7.78609139 Ry
     xc contribution           =     -37.48711875 Ry
     ewald contribution        =    -102.17959975 Ry
     smearing contrib. (-TS)   =      -0.00000000 Ry

     convergence has been achieved in   5 iterations

     Forces acting on atoms (cartesian axes, Ry/au):

     atom    1 type  1   force =    -0.00003357   -0.00003357   -0.00003357
     atom    2 type  1   force =    -0.00001377   -0.00001377   -0.00003367
     atom    3 type  1   force =    -0.00003367   -0.00001377   -0.00001377
     atom    4 type  1   force =    -0.00001377   -0.00003367   -0.00001377
     atom    5 type  1   force =     0.00006451    0.00006451    0.00006451
     atom    6 type  1   force =    -0.00001719   -0.00001719    0.00006465
     atom    7 type  1   force =     0.00006465   -0.00001719   -0.00001719
     atom    8 type  1   force =    -0.00001719    0.00006465   -0.00001719
     The non-local contrib.  to forces
     atom    1 type  1   force =    -0.00002253   -0.00002253   -0.00002253
     atom    2 type  1   force =    -0.00001370   -0.00001370   -0.00002358
     atom    3 type  1   force =    -0.00002358   -0.00001370   -0.00001370
     atom    4 type  1   force =    -0.00001370   -0.00002358   -0.00001370
     atom    5 type  1   force =     0.00004889    0.00004889    0.00004889
     atom    6 type  1   force =    -0.00001254   -0.00001254    0.00004997
     atom    7 type  1   force =     0.00004997   -0.00001254   -0.00001254
     atom    8 type  1   force =    -0.00001254    0.00004997   -0.00001254
     The ionic contribution  to forces
     atom    1 type  1   force =    -0.00009341   -0.00009341   -0.00009341
     atom    2 type  1   force =    -0.00000196   -0.00000196   -0.00009859
     atom    3 type  1   force =    -0.00009859   -0.00000196   -0.00000196
     atom    4 type  1   force =    -0.00000196   -0.00009859   -0.00000196
     atom    5 type  1   force =     0.00021716    0.00021716    0.00021716
     atom    6 type  1   force =    -0.00012171   -0.00012171    0.00022220
     atom    7 type  1   force =     0.00022220   -0.00012171   -0.00012171
     atom    8 type  1   force =    -0.00012171    0.00022220   -0.00012171
     The local contribution  to forces
     atom    1 type  1   force =     0.00009686    0.00009686    0.00009686
     atom    2 type  1   force =    -0.00001452   -0.00001452    0.00010498
     atom    3 type  1   force =     0.00010498   -0.00001452   -0.00001452
     atom    4 type  1   force =    -0.00001452    0.00010498   -0.00001452
     atom    5 type  1   force =    -0.00020788   -0.00020788   -0.00020788
     atom    6 type  1   force =     0.00012529    0.00012529   -0.00021585
     atom    7 type  1   force =    -0.00021585    0.00012529    0.00012529
     atom    8 type  1   force =     0.00012529   -0.00021585    0.00012529
     The core correction contribution to forces
     atom    1 type  1   force =     0.00000060    0.00000060    0.00000060
     atom    2 type  1   force =     0.00000026    0.00000026    0.00000065
     atom    3 type  1   force =     0.00000065    0.00000026    0.00000026
     atom    4 type  1   force =     0.00000026    0.00000065    0.00000026
     atom    5 type  1   force =    -0.00000110   -0.00000110   -0.00000110
     atom    6 type  1   force =     0.00000031    0.00000031   -0.00000115
     atom    7 type  1   force =    -0.00000115    0.00000031    0.00000031
     atom    8 type  1   force =     0.00000031   -0.00000115    0.00000031
     The Hubbard contrib.    to forces
     atom    1 type  1   force =     0.00000000    0.00000000    0.00000000
     atom    2 type  1   force =     0.00000000    0.00000000    0.00000000
     atom    3 type  1   force =     0.00000000    0.00000000    0.00000000
     atom    4 type  1   force =     0.00000000    0.00000000    0.00000000
     atom    5 type  1   force =     0.00000000    0.00000000    0.00000000
     atom    6 type  1   force =     0.00000000    0.00000000    0.00000000
     atom    7 type  1   force =     0.00000000    0.00000000    0.00000000
     atom    8 type  1   force =     0.00000000    0.00000000    0.00000000
     The SCF correction term to forces
     atom    1 type  1   force =    -0.00001506   -0.00001506   -0.00001506
     atom    2 type  1   force =     0.00001617    0.00001617   -0.00001712
     atom    3 type  1   force =    -0.00001712    0.00001617    0.00001617
     atom    4 type  1   force =     0.00001617   -0.00001712    0.00001617
     atom    5 type  1   force =     0.00000746    0.00000746    0.00000746
     atom    6 type  1   force =    -0.00000851   -0.00000851    0.00000951
     atom    7 type  1   force =     0.00000951   -0.00000851   -0.00000851
     atom    8 type  1   force =    -0.00000851    0.00000951   -0.00000851

     Total force =     0.000186     Total SCF correction =     0.000063
     SCF correction compared to forces is large: reduce conv_thr to get better values


     Computing stress (Cartesian axis) and pressure

          total   stress  (Ry/bohr**3)                   (kbar)     P=   -0.57
  -0.00000385   0.00000001   0.00000001         -0.57      0.00      0.00
   0.00000001  -0.00000385   0.00000001          0.00     -0.57      0.00
   0.00000001   0.00000001  -0.00000385          0.00      0.00     -0.57

     kinetic stress (kbar)  18964.39     -0.07     -0.07
                               -0.07  18964.39     -0.07
                               -0.07     -0.07  18964.39

     local   stress (kbar)  -2469.41     -0.42     -0.42
                               -0.42  -2469.41     -0.42
                               -0.42     -0.42  -2469.41

     nonloc. stress (kbar)   3294.95      0.01      0.01
                                0.01   3294.95      0.01
                                0.01      0.01   3294.95

     hartree stress (kbar)   1242.50      0.06      0.06
                                0.06   1242.50      0.06
                                0.06      0.06   1242.50

     exc-cor stress (kbar)   -441.34      0.00      0.00
                                0.00   -441.34      0.00
                                0.00      0.00   -441.34

     corecor stress (kbar)  -4285.90     -0.00     -0.00
                               -0.00  -4285.90     -0.00
                               -0.00     -0.00  -4285.90

     ewald   stress (kbar) -16305.76      0.41      0.41
                                0.41 -16305.76      0.41
                                0.41      0.41 -16305.76

     hubbard stress (kbar)      0.00      0.00      0.00
                                0.00      0.00      0.00
                                0.00      0.00      0.00

     london  stress (kbar)      0.00      0.00      0.00
                                0.00      0.00      0.00
                                0.00      0.00      0.00

     DFT-D3  stress (kbar)      0.00      0.00      0.00
                                0.00      0.00      0.00
                                0.00      0.00      0.00

     XDM     stress (kbar)      0.00      0.00      0.00
                                0.00      0.00      0.00
                                0.00      0.00      0.00

     dft-nl  stress (kbar)      0.00      0.00      0.00
                                0.00      0.00      0.00
                                0.00      0.00      0.00

     TS-vdW  stress (kbar)      0.00      0.00      0.00
                                0.00      0.00      0.00
                                0.00      0.00      0.00



     Writing output data file c-3.57102.save/

     init_run     :      4.60s CPU      4.77s WALL (       2 calls)
     electrons    :     53.74s CPU     55.63s WALL (       4 calls)
     update_pot   :      2.19s CPU      2.19s WALL (       2 calls)
     forces       :      4.03s CPU      4.05s WALL (       4 calls)
     stress       :      5.71s CPU      5.71s WALL (       4 calls)

     Called by init_run:
     wfcinit      :      3.06s CPU      3.21s WALL (       2 calls)
     wfcinit:atom :      0.02s CPU      0.02s WALL (     130 calls)
     wfcinit:wfcr :      2.88s CPU      3.03s WALL (     130 calls)
     potinit      :      0.38s CPU      0.39s WALL (       2 calls)
     hinit0       :      0.91s CPU      0.91s WALL (       2 calls)

     Called by electrons:
     c_bands      :     47.63s CPU     49.26s WALL (      15 calls)
     sum_band     :      5.60s CPU      5.83s WALL (      15 calls)
     v_of_rho     :      0.28s CPU      0.29s WALL (      17 calls)
     v_h          :      0.02s CPU      0.02s WALL (      17 calls)
     v_xc         :      0.39s CPU      0.40s WALL (      25 calls)
     newd         :      0.31s CPU      0.31s WALL (      17 calls)
     mix_rho      :      0.02s CPU      0.02s WALL (      15 calls)

     Called by c_bands:
     init_us_2    :      0.64s CPU      0.66s WALL (    2600 calls)
     cegterg      :     46.01s CPU     47.62s WALL (     975 calls)

     Called by sum_band:
     sum_band:bec :      0.02s CPU      0.02s WALL (     975 calls)
     addusdens    :      0.16s CPU      0.16s WALL (      15 calls)

     Called by *egterg:
     h_psi        :     29.53s CPU     31.13s WALL (    4135 calls)
     s_psi        :      3.50s CPU      3.54s WALL (    4135 calls)
     g_psi        :      0.19s CPU      0.20s WALL (    3030 calls)
     cdiaghg      :      3.31s CPU      3.36s WALL (    3745 calls)
     cegterg:over :      5.64s CPU      5.69s WALL (    3030 calls)
     cegterg:upda :      2.22s CPU      2.23s WALL (    3030 calls)
     cegterg:last :      1.27s CPU      1.28s WALL (    1047 calls)

     Called by h_psi:
     h_psi:pot    :     29.43s CPU     31.03s WALL (    4135 calls)
     h_psi:calbec :      4.93s CPU      5.20s WALL (    4135 calls)
     vloc_psi     :     20.95s CPU     22.18s WALL (    4135 calls)
     add_vuspsi   :      3.54s CPU      3.64s WALL (    4135 calls)

     General routines
     calbec       :      8.99s CPU      9.35s WALL (    6410 calls)
     fft          :      0.37s CPU      0.37s WALL (     317 calls)
     ffts         :      0.01s CPU      0.01s WALL (      32 calls)
     fftw         :     22.32s CPU     23.57s WALL (  139774 calls)
     interpolate  :      0.02s CPU      0.02s WALL (      17 calls)

     Parallel routines
     fft_scatt_xy :      1.76s CPU      1.86s WALL (  140123 calls)
     fft_scatt_yz :     10.84s CPU     11.45s WALL (  140123 calls)

     PWSCF        :   1m10.75s CPU   1m12.90s WALL


   This run was terminated on:  19:40:52  26May2022            

=------------------------------------------------------------------------------=
   JOB DONE.
=------------------------------------------------------------------------------=
