
     Program PWSCF v.6.4.1 starts on 22Jul2022 at 11:13:32 

     This program is part of the open-source Quantum ESPRESSO suite
     for quantum simulation of materials; please cite
         "P. Giannozzi et al., J. Phys.:Condens. Matter 21 395502 (2009);
         "P. Giannozzi et al., J. Phys.:Condens. Matter 29 465901 (2017);
          URL http://www.quantum-espresso.org", 
     in publications or presentations arising from this work. More details at
     http://www.quantum-espresso.org/quote

     Parallel version (MPI), running on     6 processors

     MPI processes distributed on     1 nodes
     R & G space division:  proc/nbgrp/npool/nimage =       6
     Reading input from distance-2.6.in

     Current dimensions of program PWSCF are:
     Max number of different atomic species (ntypx) = 10
     Max number of k-points (npk) =  40000
     Max angular momentum in pseudopotentials (lmaxx) =  3

     IMPORTANT: XC functional enforced from input :
     Exchange-correlation      = RVV10 ( 1  4 13  4 3 0)
     Any further DFT definition will be discarded
     Please, verify this is what you really want

               file H.pbe-rrkjus.UPF: wavefunction(s)  1S renormalized
               file Mn.pbe-spn-rrkjus_psl.0.3.1.UPF: wavefunction(s)  3D renormalized

     Subspace diagonalization in iterative solution of the eigenvalue problem:
     a serial algorithm will be used


     Parallelization info
     --------------------
     sticks:   dense  smooth     PW     G-vecs:    dense   smooth      PW
     Min        3051    1746    432               270999   117096   14629
     Max        3053    1747    437               271001   117099   14630
     Sum       18313   10477   2611              1626001   702581   87777



     bravais-lattice index     =            4
     lattice parameter (alat)  =      23.2937  a.u.
     unit-cell volume          =    8879.8548 (a.u.)^3
     number of atoms/cell      =           52
     number of atomic types    =            3
     number of electrons       =       213.00
     number of Kohn-Sham states=          128
     kinetic-energy cutoff     =      70.0000  Ry
     charge density cutoff     =     490.0000  Ry
     convergence threshold     =      1.0E-06
     mixing beta               =       0.7000
     number of iterations used =            8  plain     mixing
     Exchange-correlation      = RVV10 ( 1  4 13  4 3 0)

     celldm(1)=  23.293684  celldm(2)=   0.000000  celldm(3)=   0.811261
     celldm(4)=   0.000000  celldm(5)=   0.000000  celldm(6)=   0.000000

     crystal axes: (cart. coord. in units of alat)
               a(1) = (   1.000000   0.000000   0.000000 )  
               a(2) = (  -0.500000   0.866025   0.000000 )  
               a(3) = (   0.000000   0.000000   0.811261 )  

     reciprocal axes: (cart. coord. in units 2 pi/alat)
               b(1) = (  1.000000  0.577350 -0.000000 )  
               b(2) = (  0.000000  1.154701  0.000000 )  
               b(3) = (  0.000000 -0.000000  1.232649 )  


     PseudoPot. # 1 for H  read from file:
     /home/cristian/Escritorio/Proyecto_Grafeno/pseudopotenciales/H.pbe-rrkjus.UPF
     MD5 check sum: 7cc9d459525c9a0585f487a71c3c9563
     Pseudo is Ultrasoft, Zval =  1.0
     Generated by new atomic code, or converted to UPF format
     Using radial grid of 1061 points,  2 beta functions with: 
                l(1) =   0
                l(2) =   0
     Q(r) pseudized with 0 coefficients 


     PseudoPot. # 2 for C  read from file:
     /home/cristian/Escritorio/Proyecto_Grafeno/pseudopotenciales/C.pbe-n-rrkjus_psl.1.0.0.UPF
     MD5 check sum: 1fdd950c42eb37d8afe3dd2f8d12311e
     Pseudo is Ultrasoft + core correction, Zval =  4.0
     Generated using "atomic" code by A. Dal Corso v.6.3MaX
     Using radial grid of 1073 points,  4 beta functions with: 
                l(1) =   0
                l(2) =   0
                l(3) =   1
                l(4) =   1
     Q(r) pseudized with 0 coefficients 


     PseudoPot. # 3 for Mn read from file:
     /home/cristian/Escritorio/Proyecto_Grafeno/pseudopotenciales/Mn.pbe-spn-rrkjus_psl.0.3.1.UPF
     MD5 check sum: e1cac159bdd2ba70c18e85765a5d4279
     Pseudo is Ultrasoft + core correction, Zval = 15.0
     Generated using "atomic" code by A. Dal Corso v.6.2.2
     Using radial grid of 1187 points,  6 beta functions with: 
                l(1) =   0
                l(2) =   0
                l(3) =   1
                l(4) =   1
                l(5) =   2
                l(6) =   2
     Q(r) pseudized with 0 coefficients 


     vdW kernel table read from file rVV10_kernel_table
     MD5 check sum: b8e2538accc0c0b3206b45ba4daaba6c

     atomic species   valence    mass     pseudopotential
        H              1.00     1.00794     H ( 1.00)
        C              4.00    12.01070     C ( 1.00)
        Mn            15.00    54.93804     Mn( 1.00)

      2 Sym. Ops. (no inversion) found


                                    s                        frac. trans.

      isym =  1     identity                                     

 cryst.   s( 1) = (     1          0          0      )
                  (     0          1          0      )
                  (     0          0          1      )

 cart.    s( 1) = (  1.0000000  0.0000000  0.0000000 )
                  (  0.0000000  1.0000000  0.0000000 )
                  (  0.0000000  0.0000000  1.0000000 )


      isym =  2     inv. 180 deg rotation - cryst. axis [1,1,0]  

 cryst.   s( 2) = (     0         -1          0      )
                  (    -1          0          0      )
                  (     0          0          1      )

 cart.    s( 2) = (  0.5000000 -0.8660254  0.0000000 )
                  ( -0.8660254 -0.5000000  0.0000000 )
                  (  0.0000000  0.0000000  1.0000000 )


     point group C_s (m)    
     there are  2 classes
     the character table:

       E     s    
A'     1.00  1.00
A''    1.00 -1.00

     the symmetry operations in each class and the name of the first element:

     E        1
          identity                                               
     s        2
          inv. 180 deg rotation - cryst. axis [1,1,0]            

   Cartesian axes

     site n.     atom                  positions (alat units)
         1           H   tau(   1) = (   0.3000000   0.4041452   0.2109279  )
         2           H   tau(   2) = (   0.3000000   0.4041452   0.2719406  )
         3           C   tau(   3) = (   0.0000000   0.0000000   0.0000000  )
         4           C   tau(   4) = (   0.0000000   0.1154701   0.0000000  )
         5           C   tau(   5) = (  -0.1000000   0.1732051   0.0000000  )
         6           C   tau(   6) = (  -0.1000000   0.2886751   0.0000000  )
         7           C   tau(   7) = (  -0.2000000   0.3464102   0.0000000  )
         8           C   tau(   8) = (  -0.2000000   0.4618802   0.0000000  )
         9           C   tau(   9) = (  -0.3000000   0.5196152   0.0000000  )
        10           C   tau(  10) = (  -0.3000000   0.6350853   0.0000000  )
        11           C   tau(  11) = (  -0.4000000   0.6928203   0.0000000  )
        12           C   tau(  12) = (  -0.4000000   0.8082904   0.0000000  )
        13           C   tau(  13) = (   0.2000000   0.0000000   0.0000000  )
        14           C   tau(  14) = (   0.2000000   0.1154701   0.0000000  )
        15           C   tau(  15) = (   0.1000000   0.1732051   0.0000000  )
        16           C   tau(  16) = (   0.1000000   0.2886751   0.0000000  )
        17           C   tau(  17) = (   0.0000000   0.3464102   0.0000000  )
        18           C   tau(  18) = (   0.0000000   0.4618802   0.0000000  )
        19           C   tau(  19) = (  -0.1000000   0.5196152   0.0000000  )
        20           C   tau(  20) = (  -0.1000000   0.6350853   0.0000000  )
        21           C   tau(  21) = (  -0.2000000   0.6928203   0.0000000  )
        22           C   tau(  22) = (  -0.2000000   0.8082904   0.0000000  )
        23           C   tau(  23) = (   0.4000000   0.0000000   0.0000000  )
        24           C   tau(  24) = (   0.4000000   0.1154701   0.0000000  )
        25           C   tau(  25) = (   0.3000000   0.1732051   0.0000000  )
        26           C   tau(  26) = (   0.3000000   0.2886751   0.0000000  )
        27           C   tau(  27) = (   0.2000000   0.3464102   0.0000000  )
        28           Mn  tau(  28) = (   0.2000000   0.4618802   0.0000000  )
        29           C   tau(  29) = (   0.1000000   0.5196152   0.0000000  )
        30           C   tau(  30) = (   0.1000000   0.6350853   0.0000000  )
        31           C   tau(  31) = (   0.0000000   0.6928203   0.0000000  )
        32           C   tau(  32) = (   0.0000000   0.8082904   0.0000000  )
        33           C   tau(  33) = (   0.6000000   0.0000000   0.0000000  )
        34           C   tau(  34) = (   0.6000000   0.1154701   0.0000000  )
        35           C   tau(  35) = (   0.5000000   0.1732051   0.0000000  )
        36           C   tau(  36) = (   0.5000000   0.2886751   0.0000000  )
        37           C   tau(  37) = (   0.4000000   0.3464102   0.0000000  )
        38           C   tau(  38) = (   0.4000000   0.4618802   0.0000000  )
        39           C   tau(  39) = (   0.3000000   0.5196152   0.0000000  )
        40           C   tau(  40) = (   0.3000000   0.6350853   0.0000000  )
        41           C   tau(  41) = (   0.2000000   0.6928203   0.0000000  )
        42           C   tau(  42) = (   0.2000000   0.8082904   0.0000000  )
        43           C   tau(  43) = (   0.8000000   0.0000000   0.0000000  )
        44           C   tau(  44) = (   0.8000000   0.1154701   0.0000000  )
        45           C   tau(  45) = (   0.7000000   0.1732051   0.0000000  )
        46           C   tau(  46) = (   0.7000000   0.2886751   0.0000000  )
        47           C   tau(  47) = (   0.6000000   0.3464102   0.0000000  )
        48           C   tau(  48) = (   0.6000000   0.4618802   0.0000000  )
        49           C   tau(  49) = (   0.5000000   0.5196152   0.0000000  )
        50           C   tau(  50) = (   0.5000000   0.6350853   0.0000000  )
        51           C   tau(  51) = (   0.4000000   0.6928203   0.0000000  )
        52           C   tau(  52) = (   0.4000000   0.8082904   0.0000000  )

   Crystallographic axes

     site n.     atom                  positions (cryst. coord.)
         1           H   tau(   1) = (  0.5333333  0.4666667  0.2600000  )
         2           H   tau(   2) = (  0.5333333  0.4666667  0.3352072  )
         3           C   tau(   3) = (  0.0000000  0.0000000  0.0000000  )
         4           C   tau(   4) = (  0.0666667  0.1333333  0.0000000  )
         5           C   tau(   5) = (  0.0000000  0.2000000  0.0000000  )
         6           C   tau(   6) = (  0.0666667  0.3333333  0.0000000  )
         7           C   tau(   7) = (  0.0000000  0.4000000  0.0000000  )
         8           C   tau(   8) = (  0.0666667  0.5333333  0.0000000  )
         9           C   tau(   9) = (  0.0000000  0.6000000  0.0000000  )
        10           C   tau(  10) = (  0.0666667  0.7333333  0.0000000  )
        11           C   tau(  11) = (  0.0000000  0.8000000  0.0000000  )
        12           C   tau(  12) = (  0.0666667  0.9333333  0.0000000  )
        13           C   tau(  13) = (  0.2000000  0.0000000  0.0000000  )
        14           C   tau(  14) = (  0.2666667  0.1333333  0.0000000  )
        15           C   tau(  15) = (  0.2000000  0.2000000  0.0000000  )
        16           C   tau(  16) = (  0.2666667  0.3333333  0.0000000  )
        17           C   tau(  17) = (  0.2000000  0.4000000  0.0000000  )
        18           C   tau(  18) = (  0.2666667  0.5333333  0.0000000  )
        19           C   tau(  19) = (  0.2000000  0.6000000  0.0000000  )
        20           C   tau(  20) = (  0.2666667  0.7333333  0.0000000  )
        21           C   tau(  21) = (  0.2000000  0.8000000  0.0000000  )
        22           C   tau(  22) = (  0.2666667  0.9333333  0.0000000  )
        23           C   tau(  23) = (  0.4000000  0.0000000  0.0000000  )
        24           C   tau(  24) = (  0.4666667  0.1333333  0.0000000  )
        25           C   tau(  25) = (  0.4000000  0.2000000  0.0000000  )
        26           C   tau(  26) = (  0.4666667  0.3333333  0.0000000  )
        27           C   tau(  27) = (  0.4000000  0.4000000  0.0000000  )
        28           Mn  tau(  28) = (  0.4666667  0.5333333  0.0000000  )
        29           C   tau(  29) = (  0.4000000  0.6000000  0.0000000  )
        30           C   tau(  30) = (  0.4666667  0.7333333  0.0000000  )
        31           C   tau(  31) = (  0.4000000  0.8000000  0.0000000  )
        32           C   tau(  32) = (  0.4666667  0.9333333  0.0000000  )
        33           C   tau(  33) = (  0.6000000  0.0000000  0.0000000  )
        34           C   tau(  34) = (  0.6666667  0.1333333  0.0000000  )
        35           C   tau(  35) = (  0.6000000  0.2000000  0.0000000  )
        36           C   tau(  36) = (  0.6666667  0.3333333  0.0000000  )
        37           C   tau(  37) = (  0.6000000  0.4000000  0.0000000  )
        38           C   tau(  38) = (  0.6666667  0.5333333  0.0000000  )
        39           C   tau(  39) = (  0.6000000  0.6000000  0.0000000  )
        40           C   tau(  40) = (  0.6666667  0.7333333  0.0000000  )
        41           C   tau(  41) = (  0.6000000  0.8000000  0.0000000  )
        42           C   tau(  42) = (  0.6666667  0.9333333  0.0000000  )
        43           C   tau(  43) = (  0.8000000  0.0000000  0.0000000  )
        44           C   tau(  44) = (  0.8666667  0.1333333  0.0000000  )
        45           C   tau(  45) = (  0.8000000  0.2000000  0.0000000  )
        46           C   tau(  46) = (  0.8666667  0.3333333  0.0000000  )
        47           C   tau(  47) = (  0.8000000  0.4000000  0.0000000  )
        48           C   tau(  48) = (  0.8666667  0.5333333  0.0000000  )
        49           C   tau(  49) = (  0.8000000  0.6000000  0.0000000  )
        50           C   tau(  50) = (  0.8666667  0.7333333  0.0000000  )
        51           C   tau(  51) = (  0.8000000  0.8000000  0.0000000  )
        52           C   tau(  52) = (  0.8666667  0.9333333  0.0000000  )

     number of k points=     1  Marzari-Vanderbilt smearing, width (Ry)=  0.0010
                       cart. coord. in units 2pi/alat
        k(    1) = (   0.0000000   0.0000000   0.0000000), wk =   2.0000000

                       cryst. coord.
        k(    1) = (   0.0000000   0.0000000   0.0000000), wk =   2.0000000

     Dense  grid:  1626001 G-vectors     FFT dimensions: ( 180, 180, 135)

     Smooth grid:   702581 G-vectors     FFT dimensions: ( 125, 125, 108)

     Dynamical RAM for                 wfc:      28.59 MB

     Dynamical RAM for     wfc (w. buffer):      28.59 MB

     Dynamical RAM for           str. fact:      12.41 MB

     Dynamical RAM for           local pot:       0.00 MB

     Dynamical RAM for          nlocal pot:      92.46 MB

     Dynamical RAM for                qrad:      19.73 MB

     Dynamical RAM for          rho,v,vnew:      29.46 MB

     Dynamical RAM for               rhoin:       9.82 MB

     Dynamical RAM for            rho*nmix:      66.16 MB

     Dynamical RAM for           G-vectors:      16.40 MB

     Dynamical RAM for          h,s,v(r/c):      12.00 MB

     Dynamical RAM for          <psi|beta>:       0.81 MB

     Dynamical RAM for                 psi:     114.35 MB

     Dynamical RAM for                hpsi:     114.35 MB

     Dynamical RAM for                spsi:     114.35 MB

     Dynamical RAM for      wfcinit/wfcrot:      93.90 MB

     Dynamical RAM for           addusdens:     971.75 MB

     Estimated static dynamical RAM per process >     320.00 MB

     Estimated max dynamical RAM per process >       1.26 GB

     Estimated total dynamical RAM >       7.57 GB

     Check: negative core charge=   -0.000002

     Initial potential from superposition of free atoms

     starting charge  212.80506, renormalised to  213.00000

     negative rho (up, down):  7.080E-05 0.000E+00


---------------------------------------------------------------------------------
Carrying out rVV10 run using the following parameters:
Nqs =      20    Nr_points =    1024   r_max =   100.000
b_value =  6.30000    beta =  0.00901
     q_mesh =  0.00010000  0.00030000  0.00058939  0.00100810
               0.00161396  0.00249058  0.00375900  0.00559430
               0.00824984  0.01209221  0.01765183  0.02569619
               0.03733578  0.05417739  0.07854596  0.11380545
               0.16482331  0.23864234  0.34545298  0.50000000

Gradients computed in Reciprocal space

---------------------------------------------------------------------------------


     Starting wfcs are  208 randomized atomic wfcs

     total cpu time spent up to now is       50.7 secs

     Self-consistent Calculation

     iteration #  1     ecut=    70.00 Ry     beta= 0.70
     Davidson diagonalization with overlap
     ethr =  1.00E-02,  avg # of iterations =  2.0

     negative rho (up, down):  1.432E-04 0.000E+00

     total cpu time spent up to now is      125.0 secs

     total energy              =    -823.29145420 Ry
     Harris-Foulkes estimate   =    -828.78267952 Ry
     estimated scf accuracy    <       8.15743099 Ry

     iteration #  2     ecut=    70.00 Ry     beta= 0.70
     Davidson diagonalization with overlap
     ethr =  3.83E-03,  avg # of iterations =  8.0

     negative rho (up, down):  1.737E-04 0.000E+00

     total cpu time spent up to now is      207.0 secs

     total energy              =    -815.57780669 Ry
     Harris-Foulkes estimate   =    -834.19073294 Ry
     estimated scf accuracy    <      77.04897157 Ry

     iteration #  3     ecut=    70.00 Ry     beta= 0.70
     Davidson diagonalization with overlap
     ethr =  3.83E-03,  avg # of iterations =  6.0

     negative rho (up, down):  2.305E-04 0.000E+00

     total cpu time spent up to now is      316.8 secs

     total energy              =    -824.89183634 Ry
     Harris-Foulkes estimate   =    -827.04393654 Ry
     estimated scf accuracy    <      10.17145549 Ry

     iteration #  4     ecut=    70.00 Ry     beta= 0.70
     Davidson diagonalization with overlap
     ethr =  3.83E-03,  avg # of iterations =  3.0

     negative rho (up, down):  2.540E-04 0.000E+00

     total cpu time spent up to now is      372.8 secs

     total energy              =    -825.59977134 Ry
     Harris-Foulkes estimate   =    -826.39476723 Ry
     estimated scf accuracy    <       2.51918850 Ry

     iteration #  5     ecut=    70.00 Ry     beta= 0.70
     Davidson diagonalization with overlap
     ethr =  1.18E-03,  avg # of iterations =  5.0

     negative rho (up, down):  2.709E-04 0.000E+00

     total cpu time spent up to now is      432.9 secs

     total energy              =    -825.85316916 Ry
     Harris-Foulkes estimate   =    -825.94720177 Ry
     estimated scf accuracy    <       0.46999205 Ry

     iteration #  6     ecut=    70.00 Ry     beta= 0.70
     Davidson diagonalization with overlap
     ethr =  2.21E-04,  avg # of iterations =  4.0

     negative rho (up, down):  2.918E-04 0.000E+00

     total cpu time spent up to now is      492.8 secs

     total energy              =    -825.89758353 Ry
     Harris-Foulkes estimate   =    -825.93526538 Ry
     estimated scf accuracy    <       0.33444179 Ry

     iteration #  7     ecut=    70.00 Ry     beta= 0.70
     Davidson diagonalization with overlap
     ethr =  1.57E-04,  avg # of iterations =  1.0

     negative rho (up, down):  3.330E-04 0.000E+00

     total cpu time spent up to now is      549.6 secs

     total energy              =    -825.88366961 Ry
     Harris-Foulkes estimate   =    -825.90983703 Ry
     estimated scf accuracy    <       0.11503871 Ry

     iteration #  8     ecut=    70.00 Ry     beta= 0.70
     Davidson diagonalization with overlap
     ethr =  5.40E-05,  avg # of iterations =  9.0

     negative rho (up, down):  4.209E-04 0.000E+00

     total cpu time spent up to now is      610.5 secs

     total energy              =    -825.90259530 Ry
     Harris-Foulkes estimate   =    -825.92286492 Ry
     estimated scf accuracy    <       0.28784529 Ry

     iteration #  9     ecut=    70.00 Ry     beta= 0.70
     Davidson diagonalization with overlap
     ethr =  5.40E-05,  avg # of iterations =  1.0

     negative rho (up, down):  4.913E-04 0.000E+00

     total cpu time spent up to now is      666.9 secs

     total energy              =    -825.89207420 Ry
     Harris-Foulkes estimate   =    -825.90567521 Ry
     estimated scf accuracy    <       0.20335359 Ry

     iteration # 10     ecut=    70.00 Ry     beta= 0.70
     Davidson diagonalization with overlap
     ethr =  5.40E-05,  avg # of iterations =  1.0

     negative rho (up, down):  6.351E-04 0.000E+00

     total cpu time spent up to now is      724.5 secs

     total energy              =    -825.89911236 Ry
     Harris-Foulkes estimate   =    -825.90535485 Ry
     estimated scf accuracy    <       0.22274578 Ry

     iteration # 11     ecut=    70.00 Ry     beta= 0.70
     Davidson diagonalization with overlap
     ethr =  5.40E-05,  avg # of iterations =  1.0

     negative rho (up, down):  5.926E-04 0.000E+00

     total cpu time spent up to now is      782.2 secs

     total energy              =    -825.89629104 Ry
     Harris-Foulkes estimate   =    -825.90364286 Ry
     estimated scf accuracy    <       0.52533001 Ry

     iteration # 12     ecut=    70.00 Ry     beta= 0.70
     Davidson diagonalization with overlap
     ethr =  5.40E-05,  avg # of iterations =  1.0

     negative rho (up, down):  5.866E-04 0.000E+00

     total cpu time spent up to now is      840.9 secs

     total energy              =    -825.89453232 Ry
     Harris-Foulkes estimate   =    -825.89966196 Ry
     estimated scf accuracy    <       0.23720927 Ry

     iteration # 13     ecut=    70.00 Ry     beta= 0.70
     Davidson diagonalization with overlap
     ethr =  5.40E-05,  avg # of iterations =  1.0

     negative rho (up, down):  6.025E-04 0.000E+00

     total cpu time spent up to now is      897.6 secs

     total energy              =    -825.89810644 Ry
     Harris-Foulkes estimate   =    -825.89872666 Ry
     estimated scf accuracy    <       0.13927955 Ry

     iteration # 14     ecut=    70.00 Ry     beta= 0.70
     Davidson diagonalization with overlap
     ethr =  5.40E-05,  avg # of iterations =  1.0

     negative rho (up, down):  6.051E-04 0.000E+00

     total cpu time spent up to now is      953.4 secs

     total energy              =    -825.89371623 Ry
     Harris-Foulkes estimate   =    -825.89914152 Ry
     estimated scf accuracy    <       0.15701300 Ry

     iteration # 15     ecut=    70.00 Ry     beta= 0.70
     Davidson diagonalization with overlap
     ethr =  5.40E-05,  avg # of iterations =  1.0

     negative rho (up, down):  6.162E-04 0.000E+00

     total cpu time spent up to now is     1009.6 secs

     total energy              =    -825.89675442 Ry
     Harris-Foulkes estimate   =    -825.89948812 Ry
     estimated scf accuracy    <       0.21269019 Ry

     iteration # 16     ecut=    70.00 Ry     beta= 0.70
     Davidson diagonalization with overlap
     ethr =  5.40E-05,  avg # of iterations =  1.0

     negative rho (up, down):  6.157E-04 0.000E+00

     total cpu time spent up to now is     1064.2 secs

     total energy              =    -825.89720800 Ry
     Harris-Foulkes estimate   =    -825.89750809 Ry
     estimated scf accuracy    <       0.01518754 Ry

     iteration # 17     ecut=    70.00 Ry     beta= 0.70
     Davidson diagonalization with overlap
     ethr =  7.13E-06,  avg # of iterations =  1.0

     negative rho (up, down):  6.195E-04 0.000E+00

     total cpu time spent up to now is     1122.9 secs

     total energy              =    -825.89726061 Ry
     Harris-Foulkes estimate   =    -825.89733280 Ry
     estimated scf accuracy    <       0.00385090 Ry

     iteration # 18     ecut=    70.00 Ry     beta= 0.70
     Davidson diagonalization with overlap
     ethr =  1.81E-06,  avg # of iterations =  1.0

     negative rho (up, down):  6.216E-04 0.000E+00

     total cpu time spent up to now is     1181.4 secs

     total energy              =    -825.89724518 Ry
     Harris-Foulkes estimate   =    -825.89730056 Ry
     estimated scf accuracy    <       0.00516733 Ry

     iteration # 19     ecut=    70.00 Ry     beta= 0.70
     Davidson diagonalization with overlap
     ethr =  1.81E-06,  avg # of iterations =  1.0

     negative rho (up, down):  6.254E-04 0.000E+00

     total cpu time spent up to now is     1245.0 secs

     total energy              =    -825.89724645 Ry
     Harris-Foulkes estimate   =    -825.89727141 Ry
     estimated scf accuracy    <       0.00072662 Ry

     iteration # 20     ecut=    70.00 Ry     beta= 0.70
     Davidson diagonalization with overlap
     ethr =  3.41E-07,  avg # of iterations =  1.0

     negative rho (up, down):  6.252E-04 0.000E+00

     total cpu time spent up to now is     1308.8 secs

     total energy              =    -825.89723737 Ry
     Harris-Foulkes estimate   =    -825.89726214 Ry
     estimated scf accuracy    <       0.00023021 Ry

     iteration # 21     ecut=    70.00 Ry     beta= 0.70
     Davidson diagonalization with overlap
     ethr =  1.08E-07,  avg # of iterations =  1.0

     negative rho (up, down):  6.251E-04 0.000E+00

     total cpu time spent up to now is     1370.5 secs

     total energy              =    -825.89719374 Ry
     Harris-Foulkes estimate   =    -825.89728748 Ry
     estimated scf accuracy    <       0.00773718 Ry

     iteration # 22     ecut=    70.00 Ry     beta= 0.70
     Davidson diagonalization with overlap
     ethr =  1.08E-07,  avg # of iterations =  1.0

     negative rho (up, down):  6.258E-04 0.000E+00

     total cpu time spent up to now is     1429.8 secs

     total energy              =    -825.89725339 Ry
     Harris-Foulkes estimate   =    -825.89726613 Ry
     estimated scf accuracy    <       0.00370569 Ry

     iteration # 23     ecut=    70.00 Ry     beta= 0.70
     Davidson diagonalization with overlap
     ethr =  1.08E-07,  avg # of iterations =  1.0

     negative rho (up, down):  6.265E-04 0.000E+00

     total cpu time spent up to now is     1491.0 secs

     total energy              =    -825.89725109 Ry
     Harris-Foulkes estimate   =    -825.89725795 Ry
     estimated scf accuracy    <       0.00074134 Ry

     iteration # 24     ecut=    70.00 Ry     beta= 0.70
     Davidson diagonalization with overlap
     ethr =  1.08E-07,  avg # of iterations =  1.0

     negative rho (up, down):  6.266E-04 0.000E+00

     total cpu time spent up to now is     1551.2 secs

     total energy              =    -825.89725410 Ry
     Harris-Foulkes estimate   =    -825.89725609 Ry
     estimated scf accuracy    <       0.00020023 Ry

     iteration # 25     ecut=    70.00 Ry     beta= 0.70
     Davidson diagonalization with overlap
     ethr =  9.40E-08,  avg # of iterations =  1.0

     negative rho (up, down):  6.266E-04 0.000E+00

     total cpu time spent up to now is     1612.2 secs

     total energy              =    -825.89725513 Ry
     Harris-Foulkes estimate   =    -825.89725520 Ry
     estimated scf accuracy    <       0.00000846 Ry

     iteration # 26     ecut=    70.00 Ry     beta= 0.70
     Davidson diagonalization with overlap
     ethr =  3.97E-09,  avg # of iterations =  1.0

     negative rho (up, down):  6.266E-04 0.000E+00

     total cpu time spent up to now is     1675.2 secs

     total energy              =    -825.89725511 Ry
     Harris-Foulkes estimate   =    -825.89725522 Ry
     estimated scf accuracy    <       0.00000162 Ry

     iteration # 27     ecut=    70.00 Ry     beta= 0.70
     Davidson diagonalization with overlap
     ethr =  7.60E-10,  avg # of iterations =  1.0

     negative rho (up, down):  6.266E-04 0.000E+00

     total cpu time spent up to now is     1732.4 secs

     total energy              =    -825.89725514 Ry
     Harris-Foulkes estimate   =    -825.89725520 Ry
     estimated scf accuracy    <       0.00000156 Ry

     iteration # 28     ecut=    70.00 Ry     beta= 0.70
     Davidson diagonalization with overlap
     ethr =  7.33E-10,  avg # of iterations =  1.0

     negative rho (up, down):  6.266E-04 0.000E+00

     total cpu time spent up to now is     1792.3 secs

     End of self-consistent calculation

          k = 0.0000 0.0000 0.0000 ( 87777 PWs)   bands (ev):

   -80.0373 -49.6793 -49.6749 -48.2549 -19.7654 -18.9290 -18.9263 -18.8390
   -18.8227 -18.8223 -18.4641 -17.0684 -17.0675 -17.0666 -16.9766 -16.9746
   -16.6783 -16.2170 -16.2164 -16.1169 -16.0541 -16.0533 -15.3600 -14.1010
   -14.1007 -14.0285 -13.9942 -13.9939 -13.3346 -13.0619 -13.0606 -13.0314
   -12.7362 -12.7352 -12.3083 -11.8320 -11.8317 -11.6532 -11.3802 -11.3796
   -10.4606  -9.6472  -9.6470  -9.4351  -9.3097  -9.3091  -9.2270  -9.1930
    -9.1929  -9.1831  -8.6957  -8.6955  -8.1487  -8.1485  -8.0548  -7.9107
    -7.8312  -7.4282  -7.4274  -7.1729  -7.1658  -7.1040  -6.8955  -6.8949
    -6.8421  -6.8036  -6.7982  -6.7156  -6.6678  -6.5597  -6.5593  -6.5337
    -6.5241  -6.5230  -6.4756  -6.2748  -5.5115  -5.5106  -5.5101  -5.4999
    -5.2888  -5.2884  -4.9864  -4.8826  -4.8514  -4.7197  -4.6880  -4.6856
    -4.3737  -4.1712  -4.1711  -4.1253  -4.1241  -3.8296  -3.8268  -3.7527
    -3.6672  -3.6670  -3.1249  -2.6292  -2.6272  -1.8183  -1.7972  -1.7970
    -0.8486  -0.8381  -0.8380  -0.8364   0.9663   0.9728   0.9762   1.6407
     1.6410   1.6468   2.5651   2.8135   2.8156   2.8786   3.1542   3.1622
     3.5301   3.5502   3.5521   3.6936   3.7356   3.7772   3.7928   3.7952

     occupation numbers 
     1.0000   1.0000   1.0000   1.0000   1.0000   1.0000   1.0000   1.0000
     1.0000   1.0000   1.0000   1.0000   1.0000   1.0000   1.0000   1.0000
     1.0000   1.0000   1.0000   1.0000   1.0000   1.0000   1.0000   1.0000
     1.0000   1.0000   1.0000   1.0000   1.0000   1.0000   1.0000   1.0000
     1.0000   1.0000   1.0000   1.0000   1.0000   1.0000   1.0000   1.0000
     1.0000   1.0000   1.0000   1.0000   1.0000   1.0000   1.0000   1.0000
     1.0000   1.0000   1.0000   1.0000   1.0000   1.0000   1.0000   1.0000
     1.0000   1.0000   1.0000   1.0000   1.0000   1.0000   1.0000   1.0000
     1.0000   1.0000   1.0000   1.0000   1.0000   1.0000   1.0000   1.0000
     1.0000   1.0000   1.0000   1.0000   1.0000   1.0000   1.0000   1.0000
     1.0000   1.0000   1.0000   1.0000   1.0000   1.0000   1.0000   1.0000
     1.0000   1.0000   1.0000   1.0000   1.0000   1.0000   1.0000   1.0000
     1.0000   1.0000   1.0000   1.0000   1.0000   1.0000   1.0000   1.0000
     1.0118   0.5274   0.5213   0.4395   0.0000   0.0000   0.0000   0.0000
     0.0000   0.0000   0.0000   0.0000   0.0000   0.0000   0.0000   0.0000
     0.0000   0.0000   0.0000   0.0000   0.0000   0.0000   0.0000   0.0000

     the Fermi energy is    -0.8357 ev

!    total energy              =    -825.89725502 Ry
     Harris-Foulkes estimate   =    -825.89725517 Ry
     estimated scf accuracy    <       0.00000019 Ry

     The total energy is the sum of the following terms:

     one-electron contribution =   -2722.89236989 Ry
     hartree contribution      =    1406.23059717 Ry
     xc contribution           =    -259.59082339 Ry
     ewald contribution        =     750.35613705 Ry
     smearing contrib. (-TS)   =      -0.00079595 Ry

     convergence has been achieved in  28 iterations

     Writing output data file gr-12-sixhollow.save/

     init_run     :     48.21s CPU     49.46s WALL (       1 calls)
     electrons    :   1688.83s CPU   1741.79s WALL (       1 calls)

     Called by init_run:
     wfcinit      :     24.70s CPU     24.85s WALL (       1 calls)
     wfcinit:atom :      0.03s CPU      0.05s WALL (       1 calls)
     wfcinit:wfcr :     24.48s CPU     24.57s WALL (       1 calls)
     potinit      :     11.01s CPU     11.41s WALL (       1 calls)
     hinit0       :      6.75s CPU      6.80s WALL (       1 calls)

     Called by electrons:
     c_bands      :    994.44s CPU   1000.34s WALL (      28 calls)
     sum_band     :    347.90s CPU    365.63s WALL (      28 calls)
     v_of_rho     :    202.06s CPU    214.17s WALL (      29 calls)
     v_h          :      2.43s CPU      2.53s WALL (      29 calls)
     v_xc         :    199.63s CPU    211.64s WALL (      29 calls)
     newd         :    145.60s CPU    163.59s WALL (      29 calls)
     mix_rho      :      6.99s CPU      7.09s WALL (      28 calls)

     Called by c_bands:
     init_us_2    :      2.88s CPU      2.93s WALL (      57 calls)
     cegterg      :    986.91s CPU    992.78s WALL (      28 calls)

     Called by sum_band:
     sum_band:bec :      0.02s CPU      0.02s WALL (      28 calls)
     addusdens    :    218.79s CPU    235.41s WALL (      28 calls)

     Called by *egterg:
     h_psi        :    534.79s CPU    539.03s WALL (      87 calls)
     s_psi        :    174.74s CPU    174.86s WALL (      87 calls)
     g_psi        :      0.51s CPU      0.51s WALL (      58 calls)
     cdiaghg      :      5.90s CPU      5.90s WALL (      86 calls)
     cegterg:over :    114.49s CPU    114.56s WALL (      58 calls)
     cegterg:upda :     64.70s CPU     65.16s WALL (      58 calls)
     cegterg:last :     58.18s CPU     58.22s WALL (      29 calls)

     Called by h_psi:
     h_psi:pot    :    534.20s CPU    537.78s WALL (      87 calls)
     h_psi:calbec :    175.63s CPU    175.75s WALL (      87 calls)
     vloc_psi     :    182.92s CPU    186.26s WALL (      87 calls)
     add_vuspsi   :    175.64s CPU    175.76s WALL (      87 calls)

     General routines
     calbec       :    253.03s CPU    253.18s WALL (     115 calls)
     fft          :    113.72s CPU    118.16s WALL (    1825 calls)
     ffts         :      1.31s CPU      1.33s WALL (      57 calls)
     fftw         :    194.73s CPU    198.48s WALL (   19544 calls)
     interpolate  :      3.09s CPU      3.14s WALL (      29 calls)

     Parallel routines
     fft_scatt_xy :     58.68s CPU     59.35s WALL (   21426 calls)
     fft_scatt_yz :     93.39s CPU     99.22s WALL (   21426 calls)

     PWSCF        :  28m58.38s CPU  29m52.88s WALL


   This run was terminated on:  11:43:25  22Jul2022            

=------------------------------------------------------------------------------=
   JOB DONE.
=------------------------------------------------------------------------------=
