
     Program PWSCF v.6.4.1 starts on 22Jul2022 at 13:51:24 

     This program is part of the open-source Quantum ESPRESSO suite
     for quantum simulation of materials; please cite
         "P. Giannozzi et al., J. Phys.:Condens. Matter 21 395502 (2009);
         "P. Giannozzi et al., J. Phys.:Condens. Matter 29 465901 (2017);
          URL http://www.quantum-espresso.org", 
     in publications or presentations arising from this work. More details at
     http://www.quantum-espresso.org/quote

     Parallel version (MPI), running on     6 processors

     MPI processes distributed on     1 nodes
     R & G space division:  proc/nbgrp/npool/nimage =       6
     Reading input from distance-1.8.in

     Current dimensions of program PWSCF are:
     Max number of different atomic species (ntypx) = 10
     Max number of k-points (npk) =  40000
     Max angular momentum in pseudopotentials (lmaxx) =  3

     IMPORTANT: XC functional enforced from input :
     Exchange-correlation      = RVV10 ( 1  4 13  4 3 0)
     Any further DFT definition will be discarded
     Please, verify this is what you really want

               file H.pbe-rrkjus.UPF: wavefunction(s)  1S renormalized
               file Mn.pbe-spn-rrkjus_psl.0.3.1.UPF: wavefunction(s)  3D renormalized

     Subspace diagonalization in iterative solution of the eigenvalue problem:
     a serial algorithm will be used


     Parallelization info
     --------------------
     sticks:   dense  smooth     PW     G-vecs:    dense   smooth      PW
     Min        3051    1746    432               270999   117096   14629
     Max        3053    1747    437               271001   117099   14630
     Sum       18313   10477   2611              1626001   702581   87777



     bravais-lattice index     =            4
     lattice parameter (alat)  =      23.2937  a.u.
     unit-cell volume          =    8879.8548 (a.u.)^3
     number of atoms/cell      =           52
     number of atomic types    =            3
     number of electrons       =       213.00
     number of Kohn-Sham states=          128
     kinetic-energy cutoff     =      70.0000  Ry
     charge density cutoff     =     490.0000  Ry
     convergence threshold     =      1.0E-06
     mixing beta               =       0.7000
     number of iterations used =            8  plain     mixing
     Exchange-correlation      = RVV10 ( 1  4 13  4 3 0)

     celldm(1)=  23.293684  celldm(2)=   0.000000  celldm(3)=   0.811261
     celldm(4)=   0.000000  celldm(5)=   0.000000  celldm(6)=   0.000000

     crystal axes: (cart. coord. in units of alat)
               a(1) = (   1.000000   0.000000   0.000000 )  
               a(2) = (  -0.500000   0.866025   0.000000 )  
               a(3) = (   0.000000   0.000000   0.811261 )  

     reciprocal axes: (cart. coord. in units 2 pi/alat)
               b(1) = (  1.000000  0.577350 -0.000000 )  
               b(2) = (  0.000000  1.154701  0.000000 )  
               b(3) = (  0.000000 -0.000000  1.232649 )  


     PseudoPot. # 1 for H  read from file:
     /home/cristian/Escritorio/Proyecto_Grafeno/pseudopotenciales/H.pbe-rrkjus.UPF
     MD5 check sum: 7cc9d459525c9a0585f487a71c3c9563
     Pseudo is Ultrasoft, Zval =  1.0
     Generated by new atomic code, or converted to UPF format
     Using radial grid of 1061 points,  2 beta functions with: 
                l(1) =   0
                l(2) =   0
     Q(r) pseudized with 0 coefficients 


     PseudoPot. # 2 for C  read from file:
     /home/cristian/Escritorio/Proyecto_Grafeno/pseudopotenciales/C.pbe-n-rrkjus_psl.1.0.0.UPF
     MD5 check sum: 1fdd950c42eb37d8afe3dd2f8d12311e
     Pseudo is Ultrasoft + core correction, Zval =  4.0
     Generated using "atomic" code by A. Dal Corso v.6.3MaX
     Using radial grid of 1073 points,  4 beta functions with: 
                l(1) =   0
                l(2) =   0
                l(3) =   1
                l(4) =   1
     Q(r) pseudized with 0 coefficients 


     PseudoPot. # 3 for Mn read from file:
     /home/cristian/Escritorio/Proyecto_Grafeno/pseudopotenciales/Mn.pbe-spn-rrkjus_psl.0.3.1.UPF
     MD5 check sum: e1cac159bdd2ba70c18e85765a5d4279
     Pseudo is Ultrasoft + core correction, Zval = 15.0
     Generated using "atomic" code by A. Dal Corso v.6.2.2
     Using radial grid of 1187 points,  6 beta functions with: 
                l(1) =   0
                l(2) =   0
                l(3) =   1
                l(4) =   1
                l(5) =   2
                l(6) =   2
     Q(r) pseudized with 0 coefficients 


     vdW kernel table read from file rVV10_kernel_table
     MD5 check sum: b8e2538accc0c0b3206b45ba4daaba6c

     atomic species   valence    mass     pseudopotential
        H              1.00     1.00794     H ( 1.00)
        C              4.00    12.01070     C ( 1.00)
        Mn            15.00    54.93804     Mn( 1.00)

      2 Sym. Ops. (no inversion) found


                                    s                        frac. trans.

      isym =  1     identity                                     

 cryst.   s( 1) = (     1          0          0      )
                  (     0          1          0      )
                  (     0          0          1      )

 cart.    s( 1) = (  1.0000000  0.0000000  0.0000000 )
                  (  0.0000000  1.0000000  0.0000000 )
                  (  0.0000000  0.0000000  1.0000000 )


      isym =  2     inv. 180 deg rotation - cryst. axis [1,1,0]  

 cryst.   s( 2) = (     0         -1          0      )
                  (    -1          0          0      )
                  (     0          0          1      )

 cart.    s( 2) = (  0.5000000 -0.8660254  0.0000000 )
                  ( -0.8660254 -0.5000000  0.0000000 )
                  (  0.0000000  0.0000000  1.0000000 )


     point group C_s (m)    
     there are  2 classes
     the character table:

       E     s    
A'     1.00  1.00
A''    1.00 -1.00

     the symmetry operations in each class and the name of the first element:

     E        1
          identity                                               
     s        2
          inv. 180 deg rotation - cryst. axis [1,1,0]            

   Cartesian axes

     site n.     atom                  positions (alat units)
         1           H   tau(   1) = (   0.3000000   0.4041452   0.1460270  )
         2           H   tau(   2) = (   0.3000000   0.4041452   0.2070397  )
         3           C   tau(   3) = (   0.0000000   0.0000000   0.0000000  )
         4           C   tau(   4) = (   0.0000000   0.1154701   0.0000000  )
         5           C   tau(   5) = (  -0.1000000   0.1732051   0.0000000  )
         6           C   tau(   6) = (  -0.1000000   0.2886751   0.0000000  )
         7           C   tau(   7) = (  -0.2000000   0.3464102   0.0000000  )
         8           C   tau(   8) = (  -0.2000000   0.4618802   0.0000000  )
         9           C   tau(   9) = (  -0.3000000   0.5196152   0.0000000  )
        10           C   tau(  10) = (  -0.3000000   0.6350853   0.0000000  )
        11           C   tau(  11) = (  -0.4000000   0.6928203   0.0000000  )
        12           C   tau(  12) = (  -0.4000000   0.8082904   0.0000000  )
        13           C   tau(  13) = (   0.2000000   0.0000000   0.0000000  )
        14           C   tau(  14) = (   0.2000000   0.1154701   0.0000000  )
        15           C   tau(  15) = (   0.1000000   0.1732051   0.0000000  )
        16           C   tau(  16) = (   0.1000000   0.2886751   0.0000000  )
        17           C   tau(  17) = (   0.0000000   0.3464102   0.0000000  )
        18           C   tau(  18) = (   0.0000000   0.4618802   0.0000000  )
        19           C   tau(  19) = (  -0.1000000   0.5196152   0.0000000  )
        20           C   tau(  20) = (  -0.1000000   0.6350853   0.0000000  )
        21           C   tau(  21) = (  -0.2000000   0.6928203   0.0000000  )
        22           C   tau(  22) = (  -0.2000000   0.8082904   0.0000000  )
        23           C   tau(  23) = (   0.4000000   0.0000000   0.0000000  )
        24           C   tau(  24) = (   0.4000000   0.1154701   0.0000000  )
        25           C   tau(  25) = (   0.3000000   0.1732051   0.0000000  )
        26           C   tau(  26) = (   0.3000000   0.2886751   0.0000000  )
        27           C   tau(  27) = (   0.2000000   0.3464102   0.0000000  )
        28           Mn  tau(  28) = (   0.2000000   0.4618802   0.0000000  )
        29           C   tau(  29) = (   0.1000000   0.5196152   0.0000000  )
        30           C   tau(  30) = (   0.1000000   0.6350853   0.0000000  )
        31           C   tau(  31) = (   0.0000000   0.6928203   0.0000000  )
        32           C   tau(  32) = (   0.0000000   0.8082904   0.0000000  )
        33           C   tau(  33) = (   0.6000000   0.0000000   0.0000000  )
        34           C   tau(  34) = (   0.6000000   0.1154701   0.0000000  )
        35           C   tau(  35) = (   0.5000000   0.1732051   0.0000000  )
        36           C   tau(  36) = (   0.5000000   0.2886751   0.0000000  )
        37           C   tau(  37) = (   0.4000000   0.3464102   0.0000000  )
        38           C   tau(  38) = (   0.4000000   0.4618802   0.0000000  )
        39           C   tau(  39) = (   0.3000000   0.5196152   0.0000000  )
        40           C   tau(  40) = (   0.3000000   0.6350853   0.0000000  )
        41           C   tau(  41) = (   0.2000000   0.6928203   0.0000000  )
        42           C   tau(  42) = (   0.2000000   0.8082904   0.0000000  )
        43           C   tau(  43) = (   0.8000000   0.0000000   0.0000000  )
        44           C   tau(  44) = (   0.8000000   0.1154701   0.0000000  )
        45           C   tau(  45) = (   0.7000000   0.1732051   0.0000000  )
        46           C   tau(  46) = (   0.7000000   0.2886751   0.0000000  )
        47           C   tau(  47) = (   0.6000000   0.3464102   0.0000000  )
        48           C   tau(  48) = (   0.6000000   0.4618802   0.0000000  )
        49           C   tau(  49) = (   0.5000000   0.5196152   0.0000000  )
        50           C   tau(  50) = (   0.5000000   0.6350853   0.0000000  )
        51           C   tau(  51) = (   0.4000000   0.6928203   0.0000000  )
        52           C   tau(  52) = (   0.4000000   0.8082904   0.0000000  )

   Crystallographic axes

     site n.     atom                  positions (cryst. coord.)
         1           H   tau(   1) = (  0.5333333  0.4666667  0.1800000  )
         2           H   tau(   2) = (  0.5333333  0.4666667  0.2552072  )
         3           C   tau(   3) = (  0.0000000  0.0000000  0.0000000  )
         4           C   tau(   4) = (  0.0666667  0.1333333  0.0000000  )
         5           C   tau(   5) = (  0.0000000  0.2000000  0.0000000  )
         6           C   tau(   6) = (  0.0666667  0.3333333  0.0000000  )
         7           C   tau(   7) = (  0.0000000  0.4000000  0.0000000  )
         8           C   tau(   8) = (  0.0666667  0.5333333  0.0000000  )
         9           C   tau(   9) = (  0.0000000  0.6000000  0.0000000  )
        10           C   tau(  10) = (  0.0666667  0.7333333  0.0000000  )
        11           C   tau(  11) = (  0.0000000  0.8000000  0.0000000  )
        12           C   tau(  12) = (  0.0666667  0.9333333  0.0000000  )
        13           C   tau(  13) = (  0.2000000  0.0000000  0.0000000  )
        14           C   tau(  14) = (  0.2666667  0.1333333  0.0000000  )
        15           C   tau(  15) = (  0.2000000  0.2000000  0.0000000  )
        16           C   tau(  16) = (  0.2666667  0.3333333  0.0000000  )
        17           C   tau(  17) = (  0.2000000  0.4000000  0.0000000  )
        18           C   tau(  18) = (  0.2666667  0.5333333  0.0000000  )
        19           C   tau(  19) = (  0.2000000  0.6000000  0.0000000  )
        20           C   tau(  20) = (  0.2666667  0.7333333  0.0000000  )
        21           C   tau(  21) = (  0.2000000  0.8000000  0.0000000  )
        22           C   tau(  22) = (  0.2666667  0.9333333  0.0000000  )
        23           C   tau(  23) = (  0.4000000  0.0000000  0.0000000  )
        24           C   tau(  24) = (  0.4666667  0.1333333  0.0000000  )
        25           C   tau(  25) = (  0.4000000  0.2000000  0.0000000  )
        26           C   tau(  26) = (  0.4666667  0.3333333  0.0000000  )
        27           C   tau(  27) = (  0.4000000  0.4000000  0.0000000  )
        28           Mn  tau(  28) = (  0.4666667  0.5333333  0.0000000  )
        29           C   tau(  29) = (  0.4000000  0.6000000  0.0000000  )
        30           C   tau(  30) = (  0.4666667  0.7333333  0.0000000  )
        31           C   tau(  31) = (  0.4000000  0.8000000  0.0000000  )
        32           C   tau(  32) = (  0.4666667  0.9333333  0.0000000  )
        33           C   tau(  33) = (  0.6000000  0.0000000  0.0000000  )
        34           C   tau(  34) = (  0.6666667  0.1333333  0.0000000  )
        35           C   tau(  35) = (  0.6000000  0.2000000  0.0000000  )
        36           C   tau(  36) = (  0.6666667  0.3333333  0.0000000  )
        37           C   tau(  37) = (  0.6000000  0.4000000  0.0000000  )
        38           C   tau(  38) = (  0.6666667  0.5333333  0.0000000  )
        39           C   tau(  39) = (  0.6000000  0.6000000  0.0000000  )
        40           C   tau(  40) = (  0.6666667  0.7333333  0.0000000  )
        41           C   tau(  41) = (  0.6000000  0.8000000  0.0000000  )
        42           C   tau(  42) = (  0.6666667  0.9333333  0.0000000  )
        43           C   tau(  43) = (  0.8000000  0.0000000  0.0000000  )
        44           C   tau(  44) = (  0.8666667  0.1333333  0.0000000  )
        45           C   tau(  45) = (  0.8000000  0.2000000  0.0000000  )
        46           C   tau(  46) = (  0.8666667  0.3333333  0.0000000  )
        47           C   tau(  47) = (  0.8000000  0.4000000  0.0000000  )
        48           C   tau(  48) = (  0.8666667  0.5333333  0.0000000  )
        49           C   tau(  49) = (  0.8000000  0.6000000  0.0000000  )
        50           C   tau(  50) = (  0.8666667  0.7333333  0.0000000  )
        51           C   tau(  51) = (  0.8000000  0.8000000  0.0000000  )
        52           C   tau(  52) = (  0.8666667  0.9333333  0.0000000  )

     number of k points=     1  Marzari-Vanderbilt smearing, width (Ry)=  0.0010
                       cart. coord. in units 2pi/alat
        k(    1) = (   0.0000000   0.0000000   0.0000000), wk =   2.0000000

                       cryst. coord.
        k(    1) = (   0.0000000   0.0000000   0.0000000), wk =   2.0000000

     Dense  grid:  1626001 G-vectors     FFT dimensions: ( 180, 180, 135)

     Smooth grid:   702581 G-vectors     FFT dimensions: ( 125, 125, 108)

     Dynamical RAM for                 wfc:      28.59 MB

     Dynamical RAM for     wfc (w. buffer):      28.59 MB

     Dynamical RAM for           str. fact:      12.41 MB

     Dynamical RAM for           local pot:       0.00 MB

     Dynamical RAM for          nlocal pot:      92.46 MB

     Dynamical RAM for                qrad:      19.73 MB

     Dynamical RAM for          rho,v,vnew:      29.46 MB

     Dynamical RAM for               rhoin:       9.82 MB

     Dynamical RAM for            rho*nmix:      66.16 MB

     Dynamical RAM for           G-vectors:      16.40 MB

     Dynamical RAM for          h,s,v(r/c):      12.00 MB

     Dynamical RAM for          <psi|beta>:       0.81 MB

     Dynamical RAM for                 psi:     114.35 MB

     Dynamical RAM for                hpsi:     114.35 MB

     Dynamical RAM for                spsi:     114.35 MB

     Dynamical RAM for      wfcinit/wfcrot:      93.90 MB

     Dynamical RAM for           addusdens:     971.75 MB

     Estimated static dynamical RAM per process >     320.00 MB

     Estimated max dynamical RAM per process >       1.26 GB

     Estimated total dynamical RAM >       7.57 GB

     Check: negative core charge=   -0.000002

     Initial potential from superposition of free atoms

     starting charge  212.80506, renormalised to  213.00000

     negative rho (up, down):  7.749E-05 0.000E+00


---------------------------------------------------------------------------------
Carrying out rVV10 run using the following parameters:
Nqs =      20    Nr_points =    1024   r_max =   100.000
b_value =  6.30000    beta =  0.00901
     q_mesh =  0.00010000  0.00030000  0.00058939  0.00100810
               0.00161396  0.00249058  0.00375900  0.00559430
               0.00824984  0.01209221  0.01765183  0.02569619
               0.03733578  0.05417739  0.07854596  0.11380545
               0.16482331  0.23864234  0.34545298  0.50000000

Gradients computed in Reciprocal space

---------------------------------------------------------------------------------


     Starting wfcs are  208 randomized atomic wfcs

     total cpu time spent up to now is       53.4 secs

     Self-consistent Calculation

     iteration #  1     ecut=    70.00 Ry     beta= 0.70
     Davidson diagonalization with overlap
     ethr =  1.00E-02,  avg # of iterations =  2.0

     negative rho (up, down):  1.665E-04 0.000E+00

     total cpu time spent up to now is      136.8 secs

     total energy              =    -822.21924124 Ry
     Harris-Foulkes estimate   =    -828.94905950 Ry
     estimated scf accuracy    <       9.55268226 Ry

     iteration #  2     ecut=    70.00 Ry     beta= 0.70
     Davidson diagonalization with overlap
     ethr =  4.48E-03,  avg # of iterations =  8.0

     negative rho (up, down):  2.003E-04 0.000E+00

     total cpu time spent up to now is      222.0 secs

     total energy              =    -814.44645502 Ry
     Harris-Foulkes estimate   =    -838.08579174 Ry
     estimated scf accuracy    <      94.73636332 Ry

     iteration #  3     ecut=    70.00 Ry     beta= 0.70
     Davidson diagonalization with overlap
     ethr =  4.48E-03,  avg # of iterations =  6.0

     negative rho (up, down):  2.443E-04 0.000E+00

     total cpu time spent up to now is      339.6 secs

     total energy              =    -824.75990990 Ry
     Harris-Foulkes estimate   =    -826.85083237 Ry
     estimated scf accuracy    <       8.35107757 Ry

     iteration #  4     ecut=    70.00 Ry     beta= 0.70
     Davidson diagonalization with overlap
     ethr =  3.92E-03,  avg # of iterations =  3.0

     negative rho (up, down):  2.823E-04 0.000E+00

     total cpu time spent up to now is      405.0 secs

     total energy              =    -825.44109853 Ry
     Harris-Foulkes estimate   =    -826.43471279 Ry
     estimated scf accuracy    <       3.06913010 Ry

     iteration #  5     ecut=    70.00 Ry     beta= 0.70
     Davidson diagonalization with overlap
     ethr =  1.44E-03,  avg # of iterations =  4.0

     negative rho (up, down):  3.188E-04 0.000E+00

     total cpu time spent up to now is      475.4 secs

     total energy              =    -825.83398230 Ry
     Harris-Foulkes estimate   =    -825.92585132 Ry
     estimated scf accuracy    <       0.33663191 Ry

     iteration #  6     ecut=    70.00 Ry     beta= 0.70
     Davidson diagonalization with overlap
     ethr =  1.58E-04,  avg # of iterations =  4.0

     negative rho (up, down):  3.450E-04 0.000E+00

     total cpu time spent up to now is      548.6 secs

     total energy              =    -825.82616203 Ry
     Harris-Foulkes estimate   =    -825.88491302 Ry
     estimated scf accuracy    <       0.34325326 Ry

     iteration #  7     ecut=    70.00 Ry     beta= 0.70
     Davidson diagonalization with overlap
     ethr =  1.58E-04,  avg # of iterations =  3.0

     negative rho (up, down):  4.438E-04 0.000E+00

     total cpu time spent up to now is      614.9 secs

     total energy              =    -825.87591232 Ry
     Harris-Foulkes estimate   =    -825.92024526 Ry
     estimated scf accuracy    <       0.42311993 Ry

     iteration #  8     ecut=    70.00 Ry     beta= 0.70
     Davidson diagonalization with overlap
     ethr =  1.58E-04,  avg # of iterations =  2.0

     negative rho (up, down):  5.265E-04 0.000E+00

     total cpu time spent up to now is      680.0 secs

     total energy              =    -825.87756792 Ry
     Harris-Foulkes estimate   =    -825.88890078 Ry
     estimated scf accuracy    <       0.19183883 Ry

     iteration #  9     ecut=    70.00 Ry     beta= 0.70
     Davidson diagonalization with overlap
     ethr =  9.01E-05,  avg # of iterations =  2.0

     negative rho (up, down):  6.244E-04 0.000E+00

     total cpu time spent up to now is      745.3 secs

     total energy              =    -825.86687458 Ry
     Harris-Foulkes estimate   =    -825.87981396 Ry
     estimated scf accuracy    <       0.16148826 Ry

     iteration # 10     ecut=    70.00 Ry     beta= 0.70
     Davidson diagonalization with overlap
     ethr =  7.58E-05,  avg # of iterations =  1.0

     negative rho (up, down):  6.704E-04 0.000E+00

     total cpu time spent up to now is      812.6 secs

     total energy              =    -825.87264630 Ry
     Harris-Foulkes estimate   =    -825.87815900 Ry
     estimated scf accuracy    <       0.27884854 Ry

     iteration # 11     ecut=    70.00 Ry     beta= 0.70
     Davidson diagonalization with overlap
     ethr =  7.58E-05,  avg # of iterations =  1.0

     negative rho (up, down):  6.267E-04 0.000E+00

     total cpu time spent up to now is      878.3 secs

     total energy              =    -825.87032478 Ry
     Harris-Foulkes estimate   =    -825.87634770 Ry
     estimated scf accuracy    <       0.21220015 Ry

     iteration # 12     ecut=    70.00 Ry     beta= 0.70
     Davidson diagonalization with overlap
     ethr =  7.58E-05,  avg # of iterations =  1.0

     negative rho (up, down):  6.274E-04 0.000E+00

     total cpu time spent up to now is      943.5 secs

     total energy              =    -825.87403379 Ry
     Harris-Foulkes estimate   =    -825.87470814 Ry
     estimated scf accuracy    <       0.09358994 Ry

     iteration # 13     ecut=    70.00 Ry     beta= 0.70
     Davidson diagonalization with overlap
     ethr =  4.39E-05,  avg # of iterations =  1.0

     negative rho (up, down):  6.291E-04 0.000E+00

     total cpu time spent up to now is     1004.5 secs

     total energy              =    -825.87382438 Ry
     Harris-Foulkes estimate   =    -825.87408668 Ry
     estimated scf accuracy    <       0.07495814 Ry

     iteration # 14     ecut=    70.00 Ry     beta= 0.70
     Davidson diagonalization with overlap
     ethr =  3.52E-05,  avg # of iterations =  1.0

     negative rho (up, down):  6.340E-04 0.000E+00

     total cpu time spent up to now is     1064.1 secs

     total energy              =    -825.87243551 Ry
     Harris-Foulkes estimate   =    -825.87387243 Ry
     estimated scf accuracy    <       0.05339465 Ry

     iteration # 15     ecut=    70.00 Ry     beta= 0.70
     Davidson diagonalization with overlap
     ethr =  2.51E-05,  avg # of iterations =  1.0

     negative rho (up, down):  6.557E-04 0.000E+00

     total cpu time spent up to now is     1123.4 secs

     total energy              =    -825.87263073 Ry
     Harris-Foulkes estimate   =    -825.87466820 Ry
     estimated scf accuracy    <       0.10212510 Ry

     iteration # 16     ecut=    70.00 Ry     beta= 0.70
     Davidson diagonalization with overlap
     ethr =  2.51E-05,  avg # of iterations =  1.0

     negative rho (up, down):  6.625E-04 0.000E+00

     total cpu time spent up to now is     1183.0 secs

     total energy              =    -825.87305146 Ry
     Harris-Foulkes estimate   =    -825.87321263 Ry
     estimated scf accuracy    <       0.01808515 Ry

     iteration # 17     ecut=    70.00 Ry     beta= 0.70
     Davidson diagonalization with overlap
     ethr =  8.49E-06,  avg # of iterations = 14.0

     negative rho (up, down):  6.644E-04 0.000E+00

     total cpu time spent up to now is     1245.3 secs

     total energy              =    -825.87306793 Ry
     Harris-Foulkes estimate   =    -825.87313919 Ry
     estimated scf accuracy    <       0.00655240 Ry

     iteration # 18     ecut=    70.00 Ry     beta= 0.70
     Davidson diagonalization with overlap
     ethr =  3.08E-06,  avg # of iterations =  1.0

     negative rho (up, down):  6.722E-04 0.000E+00

     total cpu time spent up to now is     1304.9 secs

     total energy              =    -825.87291271 Ry
     Harris-Foulkes estimate   =    -825.87310259 Ry
     estimated scf accuracy    <       0.01707256 Ry

     iteration # 19     ecut=    70.00 Ry     beta= 0.70
     Davidson diagonalization with overlap
     ethr =  3.08E-06,  avg # of iterations =  1.0

     negative rho (up, down):  6.703E-04 0.000E+00

     total cpu time spent up to now is     1364.7 secs

     total energy              =    -825.87293928 Ry
     Harris-Foulkes estimate   =    -825.87306520 Ry
     estimated scf accuracy    <       0.00557065 Ry

     iteration # 20     ecut=    70.00 Ry     beta= 0.70
     Davidson diagonalization with overlap
     ethr =  2.62E-06,  avg # of iterations =  1.0

     negative rho (up, down):  6.695E-04 0.000E+00

     total cpu time spent up to now is     1425.0 secs

     total energy              =    -825.87301210 Ry
     Harris-Foulkes estimate   =    -825.87302637 Ry
     estimated scf accuracy    <       0.00109534 Ry

     iteration # 21     ecut=    70.00 Ry     beta= 0.70
     Davidson diagonalization with overlap
     ethr =  5.14E-07,  avg # of iterations =  1.0

     negative rho (up, down):  6.692E-04 0.000E+00

     total cpu time spent up to now is     1485.2 secs

     total energy              =    -825.87296811 Ry
     Harris-Foulkes estimate   =    -825.87305207 Ry
     estimated scf accuracy    <       0.00397232 Ry

     iteration # 22     ecut=    70.00 Ry     beta= 0.70
     Davidson diagonalization with overlap
     ethr =  5.14E-07,  avg # of iterations =  1.0

     negative rho (up, down):  6.698E-04 0.000E+00

     total cpu time spent up to now is     1545.1 secs

     total energy              =    -825.87302391 Ry
     Harris-Foulkes estimate   =    -825.87303881 Ry
     estimated scf accuracy    <       0.00312025 Ry

     iteration # 23     ecut=    70.00 Ry     beta= 0.70
     Davidson diagonalization with overlap
     ethr =  5.14E-07,  avg # of iterations =  1.0

     negative rho (up, down):  6.703E-04 0.000E+00

     total cpu time spent up to now is     1605.8 secs

     total energy              =    -825.87301708 Ry
     Harris-Foulkes estimate   =    -825.87302677 Ry
     estimated scf accuracy    <       0.00146593 Ry

     iteration # 24     ecut=    70.00 Ry     beta= 0.70
     Davidson diagonalization with overlap
     ethr =  5.14E-07,  avg # of iterations =  1.0

     negative rho (up, down):  6.705E-04 0.000E+00

     total cpu time spent up to now is     1668.6 secs

     total energy              =    -825.87301505 Ry
     Harris-Foulkes estimate   =    -825.87302003 Ry
     estimated scf accuracy    <       0.00026632 Ry

     iteration # 25     ecut=    70.00 Ry     beta= 0.70
     Davidson diagonalization with overlap
     ethr =  1.25E-07,  avg # of iterations =  1.0

     negative rho (up, down):  6.707E-04 0.000E+00

     total cpu time spent up to now is     1731.4 secs

     total energy              =    -825.87301470 Ry
     Harris-Foulkes estimate   =    -825.87301662 Ry
     estimated scf accuracy    <       0.00014349 Ry

     iteration # 26     ecut=    70.00 Ry     beta= 0.70
     Davidson diagonalization with overlap
     ethr =  6.74E-08,  avg # of iterations =  1.0

     negative rho (up, down):  6.707E-04 0.000E+00

     total cpu time spent up to now is     1794.5 secs

     total energy              =    -825.87301525 Ry
     Harris-Foulkes estimate   =    -825.87301549 Ry
     estimated scf accuracy    <       0.00001042 Ry

     iteration # 27     ecut=    70.00 Ry     beta= 0.70
     Davidson diagonalization with overlap
     ethr =  4.89E-09,  avg # of iterations =  1.0

     negative rho (up, down):  6.706E-04 0.000E+00

     total cpu time spent up to now is     1857.4 secs

     total energy              =    -825.87301523 Ry
     Harris-Foulkes estimate   =    -825.87301532 Ry
     estimated scf accuracy    <       0.00000344 Ry

     iteration # 28     ecut=    70.00 Ry     beta= 0.70
     Davidson diagonalization with overlap
     ethr =  1.62E-09,  avg # of iterations =  1.0

     negative rho (up, down):  6.704E-04 0.000E+00

     total cpu time spent up to now is     1913.1 secs

     End of self-consistent calculation

          k = 0.0000 0.0000 0.0000 ( 87777 PWs)   bands (ev):

   -80.1402 -49.7791 -49.7620 -48.3905 -19.7388 -18.9036 -18.8960 -18.8091
   -18.8035 -18.7999 -18.4620 -17.0491 -17.0428 -17.0405 -16.9626 -16.9501
   -16.6541 -16.1951 -16.1939 -16.0910 -16.0432 -16.0340 -15.3551 -14.0857
   -14.0847 -14.0092 -13.9651 -13.9644 -13.3178 -13.0445 -13.0356 -13.0066
   -12.7236 -12.7129 -12.2848 -11.8154 -11.8150 -11.6322 -11.3680 -11.3593
   -10.4531  -9.6480  -9.6434  -9.4221  -9.2881  -9.2824  -9.1962  -9.1647
    -9.1627  -9.1537  -8.6815  -8.6725  -8.1587  -8.1369  -8.1131  -8.0015
    -7.8065  -7.6402  -7.3996  -7.3896  -7.1577  -7.1144  -6.9132  -6.8784
    -6.8748  -6.7773  -6.7693  -6.7026  -6.6976  -6.5307  -6.5295  -6.5061
    -6.4988  -6.4962  -6.4513  -6.0349  -5.5517  -5.4942  -5.4892  -5.4168
    -5.2749  -5.2727  -4.9595  -4.8946  -4.8584  -4.6962  -4.6636  -4.6314
    -4.3095  -4.1565  -4.1561  -4.1451  -4.1429  -3.8044  -3.7788  -3.7202
    -3.6410  -3.6404  -3.0889  -2.6402  -2.6300  -1.8022  -1.7701  -1.7689
    -0.8624  -0.8523  -0.8522  -0.8476   0.9802   0.9931   1.0017   1.6497
     1.6505   1.6673   2.5404   2.8325   2.8384   2.8962   3.0639   3.0924
     3.5380   3.5563   3.5592   3.7150   3.7632   3.7854   3.8001   3.8125

     occupation numbers 
     1.0000   1.0000   1.0000   1.0000   1.0000   1.0000   1.0000   1.0000
     1.0000   1.0000   1.0000   1.0000   1.0000   1.0000   1.0000   1.0000
     1.0000   1.0000   1.0000   1.0000   1.0000   1.0000   1.0000   1.0000
     1.0000   1.0000   1.0000   1.0000   1.0000   1.0000   1.0000   1.0000
     1.0000   1.0000   1.0000   1.0000   1.0000   1.0000   1.0000   1.0000
     1.0000   1.0000   1.0000   1.0000   1.0000   1.0000   1.0000   1.0000
     1.0000   1.0000   1.0000   1.0000   1.0000   1.0000   1.0000   1.0000
     1.0000   1.0000   1.0000   1.0000   1.0000   1.0000   1.0000   1.0000
     1.0000   1.0000   1.0000   1.0000   1.0000   1.0000   1.0000   1.0000
     1.0000   1.0000   1.0000   1.0000   1.0000   1.0000   1.0000   1.0000
     1.0000   1.0000   1.0000   1.0000   1.0000   1.0000   1.0000   1.0000
     1.0000   1.0000   1.0000   1.0000   1.0000   1.0000   1.0000   1.0000
     1.0000   1.0000   1.0000   1.0000   1.0000   1.0000   1.0000   1.0000
     1.0216   0.5761   0.5685   0.3338   0.0000   0.0000   0.0000   0.0000
     0.0000   0.0000   0.0000   0.0000   0.0000   0.0000   0.0000   0.0000
     0.0000   0.0000   0.0000   0.0000   0.0000   0.0000   0.0000   0.0000

     the Fermi energy is    -0.8490 ev

!    total energy              =    -825.87301453 Ry
     Harris-Foulkes estimate   =    -825.87301529 Ry
     estimated scf accuracy    <       0.00000096 Ry

     The total energy is the sum of the following terms:

     one-electron contribution =   -2741.89605551 Ry
     hartree contribution      =    1415.85344658 Ry
     xc contribution           =    -259.66755992 Ry
     ewald contribution        =     759.83788771 Ry
     smearing contrib. (-TS)   =      -0.00073339 Ry

     convergence has been achieved in  28 iterations

     Writing output data file gr-12-sixhollow.save/

     init_run     :     50.57s CPU     52.10s WALL (       1 calls)
     electrons    :   1804.55s CPU   1859.83s WALL (       1 calls)

     Called by init_run:
     wfcinit      :     26.11s CPU     26.34s WALL (       1 calls)
     wfcinit:atom :      0.05s CPU      0.06s WALL (       1 calls)
     wfcinit:wfcr :     25.89s CPU     26.06s WALL (       1 calls)
     potinit      :     11.21s CPU     11.79s WALL (       1 calls)
     hinit0       :      7.08s CPU      7.13s WALL (       1 calls)

     Called by electrons:
     c_bands      :   1058.78s CPU   1065.16s WALL (      28 calls)
     sum_band     :    383.61s CPU    402.14s WALL (      28 calls)
     v_of_rho     :    210.34s CPU    222.90s WALL (      29 calls)
     v_h          :      2.47s CPU      2.58s WALL (      29 calls)
     v_xc         :    207.87s CPU    220.32s WALL (      29 calls)
     newd         :    153.08s CPU    171.79s WALL (      29 calls)
     mix_rho      :      7.37s CPU      7.48s WALL (      28 calls)

     Called by c_bands:
     init_us_2    :      3.10s CPU      3.15s WALL (      57 calls)
     cegterg      :   1051.61s CPU   1057.96s WALL (      28 calls)

     Called by sum_band:
     sum_band:bec :      0.02s CPU      0.02s WALL (      28 calls)
     addusdens    :    246.09s CPU    263.50s WALL (      28 calls)

     Called by *egterg:
     h_psi        :    567.93s CPU    572.62s WALL (      95 calls)
     s_psi        :    185.77s CPU    185.88s WALL (      95 calls)
     g_psi        :      0.52s CPU      0.52s WALL (      66 calls)
     cdiaghg      :      6.50s CPU      6.50s WALL (      94 calls)
     cegterg:over :    122.88s CPU    122.94s WALL (      66 calls)
     cegterg:upda :     70.20s CPU     70.66s WALL (      66 calls)
     cegterg:last :     61.92s CPU     61.95s WALL (      29 calls)

     Called by h_psi:
     h_psi:pot    :    567.29s CPU    571.22s WALL (      95 calls)
     h_psi:calbec :    185.47s CPU    185.59s WALL (      95 calls)
     vloc_psi     :    196.01s CPU    199.72s WALL (      95 calls)
     add_vuspsi   :    185.81s CPU    185.91s WALL (      95 calls)

     General routines
     calbec       :    268.07s CPU    268.25s WALL (     123 calls)
     fft          :    121.52s CPU    126.28s WALL (    1825 calls)
     ffts         :      1.36s CPU      1.41s WALL (      57 calls)
     fftw         :    208.06s CPU    212.05s WALL (   19614 calls)
     interpolate  :      3.08s CPU      3.19s WALL (      29 calls)

     Parallel routines
     fft_scatt_xy :     63.22s CPU     63.88s WALL (   21496 calls)
     fft_scatt_yz :     99.93s CPU    106.20s WALL (   21496 calls)

     PWSCF        :  30m56.44s CPU  31m53.57s WALL


   This run was terminated on:  14:23:18  22Jul2022            

=------------------------------------------------------------------------------=
   JOB DONE.
=------------------------------------------------------------------------------=
