
     Program PWSCF v.6.4.1 starts on 22Jul2022 at 10:46: 4 

     This program is part of the open-source Quantum ESPRESSO suite
     for quantum simulation of materials; please cite
         "P. Giannozzi et al., J. Phys.:Condens. Matter 21 395502 (2009);
         "P. Giannozzi et al., J. Phys.:Condens. Matter 29 465901 (2017);
          URL http://www.quantum-espresso.org", 
     in publications or presentations arising from this work. More details at
     http://www.quantum-espresso.org/quote

     Parallel version (MPI), running on     6 processors

     MPI processes distributed on     1 nodes
     R & G space division:  proc/nbgrp/npool/nimage =       6
     Reading input from distance-2.8.in

     Current dimensions of program PWSCF are:
     Max number of different atomic species (ntypx) = 10
     Max number of k-points (npk) =  40000
     Max angular momentum in pseudopotentials (lmaxx) =  3

     IMPORTANT: XC functional enforced from input :
     Exchange-correlation      = RVV10 ( 1  4 13  4 3 0)
     Any further DFT definition will be discarded
     Please, verify this is what you really want

               file H.pbe-rrkjus.UPF: wavefunction(s)  1S renormalized
               file Mn.pbe-spn-rrkjus_psl.0.3.1.UPF: wavefunction(s)  3D renormalized

     Subspace diagonalization in iterative solution of the eigenvalue problem:
     a serial algorithm will be used


     Parallelization info
     --------------------
     sticks:   dense  smooth     PW     G-vecs:    dense   smooth      PW
     Min        3051    1746    432               270999   117096   14629
     Max        3053    1747    437               271001   117099   14630
     Sum       18313   10477   2611              1626001   702581   87777



     bravais-lattice index     =            4
     lattice parameter (alat)  =      23.2937  a.u.
     unit-cell volume          =    8879.8548 (a.u.)^3
     number of atoms/cell      =           52
     number of atomic types    =            3
     number of electrons       =       213.00
     number of Kohn-Sham states=          128
     kinetic-energy cutoff     =      70.0000  Ry
     charge density cutoff     =     490.0000  Ry
     convergence threshold     =      1.0E-06
     mixing beta               =       0.7000
     number of iterations used =            8  plain     mixing
     Exchange-correlation      = RVV10 ( 1  4 13  4 3 0)

     celldm(1)=  23.293684  celldm(2)=   0.000000  celldm(3)=   0.811261
     celldm(4)=   0.000000  celldm(5)=   0.000000  celldm(6)=   0.000000

     crystal axes: (cart. coord. in units of alat)
               a(1) = (   1.000000   0.000000   0.000000 )  
               a(2) = (  -0.500000   0.866025   0.000000 )  
               a(3) = (   0.000000   0.000000   0.811261 )  

     reciprocal axes: (cart. coord. in units 2 pi/alat)
               b(1) = (  1.000000  0.577350 -0.000000 )  
               b(2) = (  0.000000  1.154701  0.000000 )  
               b(3) = (  0.000000 -0.000000  1.232649 )  


     PseudoPot. # 1 for H  read from file:
     /home/cristian/Escritorio/Proyecto_Grafeno/pseudopotenciales/H.pbe-rrkjus.UPF
     MD5 check sum: 7cc9d459525c9a0585f487a71c3c9563
     Pseudo is Ultrasoft, Zval =  1.0
     Generated by new atomic code, or converted to UPF format
     Using radial grid of 1061 points,  2 beta functions with: 
                l(1) =   0
                l(2) =   0
     Q(r) pseudized with 0 coefficients 


     PseudoPot. # 2 for C  read from file:
     /home/cristian/Escritorio/Proyecto_Grafeno/pseudopotenciales/C.pbe-n-rrkjus_psl.1.0.0.UPF
     MD5 check sum: 1fdd950c42eb37d8afe3dd2f8d12311e
     Pseudo is Ultrasoft + core correction, Zval =  4.0
     Generated using "atomic" code by A. Dal Corso v.6.3MaX
     Using radial grid of 1073 points,  4 beta functions with: 
                l(1) =   0
                l(2) =   0
                l(3) =   1
                l(4) =   1
     Q(r) pseudized with 0 coefficients 


     PseudoPot. # 3 for Mn read from file:
     /home/cristian/Escritorio/Proyecto_Grafeno/pseudopotenciales/Mn.pbe-spn-rrkjus_psl.0.3.1.UPF
     MD5 check sum: e1cac159bdd2ba70c18e85765a5d4279
     Pseudo is Ultrasoft + core correction, Zval = 15.0
     Generated using "atomic" code by A. Dal Corso v.6.2.2
     Using radial grid of 1187 points,  6 beta functions with: 
                l(1) =   0
                l(2) =   0
                l(3) =   1
                l(4) =   1
                l(5) =   2
                l(6) =   2
     Q(r) pseudized with 0 coefficients 


     vdW kernel table read from file rVV10_kernel_table
     MD5 check sum: b8e2538accc0c0b3206b45ba4daaba6c

     atomic species   valence    mass     pseudopotential
        H              1.00     1.00794     H ( 1.00)
        C              4.00    12.01070     C ( 1.00)
        Mn            15.00    54.93804     Mn( 1.00)

      2 Sym. Ops. (no inversion) found


                                    s                        frac. trans.

      isym =  1     identity                                     

 cryst.   s( 1) = (     1          0          0      )
                  (     0          1          0      )
                  (     0          0          1      )

 cart.    s( 1) = (  1.0000000  0.0000000  0.0000000 )
                  (  0.0000000  1.0000000  0.0000000 )
                  (  0.0000000  0.0000000  1.0000000 )


      isym =  2     inv. 180 deg rotation - cryst. axis [1,1,0]  

 cryst.   s( 2) = (     0         -1          0      )
                  (    -1          0          0      )
                  (     0          0          1      )

 cart.    s( 2) = (  0.5000000 -0.8660254  0.0000000 )
                  ( -0.8660254 -0.5000000  0.0000000 )
                  (  0.0000000  0.0000000  1.0000000 )


     point group C_s (m)    
     there are  2 classes
     the character table:

       E     s    
A'     1.00  1.00
A''    1.00 -1.00

     the symmetry operations in each class and the name of the first element:

     E        1
          identity                                               
     s        2
          inv. 180 deg rotation - cryst. axis [1,1,0]            

   Cartesian axes

     site n.     atom                  positions (alat units)
         1           H   tau(   1) = (   0.3000000   0.4041452   0.2271531  )
         2           H   tau(   2) = (   0.3000000   0.4041452   0.2881658  )
         3           C   tau(   3) = (   0.0000000   0.0000000   0.0000000  )
         4           C   tau(   4) = (   0.0000000   0.1154701   0.0000000  )
         5           C   tau(   5) = (  -0.1000000   0.1732051   0.0000000  )
         6           C   tau(   6) = (  -0.1000000   0.2886751   0.0000000  )
         7           C   tau(   7) = (  -0.2000000   0.3464102   0.0000000  )
         8           C   tau(   8) = (  -0.2000000   0.4618802   0.0000000  )
         9           C   tau(   9) = (  -0.3000000   0.5196152   0.0000000  )
        10           C   tau(  10) = (  -0.3000000   0.6350853   0.0000000  )
        11           C   tau(  11) = (  -0.4000000   0.6928203   0.0000000  )
        12           C   tau(  12) = (  -0.4000000   0.8082904   0.0000000  )
        13           C   tau(  13) = (   0.2000000   0.0000000   0.0000000  )
        14           C   tau(  14) = (   0.2000000   0.1154701   0.0000000  )
        15           C   tau(  15) = (   0.1000000   0.1732051   0.0000000  )
        16           C   tau(  16) = (   0.1000000   0.2886751   0.0000000  )
        17           C   tau(  17) = (   0.0000000   0.3464102   0.0000000  )
        18           C   tau(  18) = (   0.0000000   0.4618802   0.0000000  )
        19           C   tau(  19) = (  -0.1000000   0.5196152   0.0000000  )
        20           C   tau(  20) = (  -0.1000000   0.6350853   0.0000000  )
        21           C   tau(  21) = (  -0.2000000   0.6928203   0.0000000  )
        22           C   tau(  22) = (  -0.2000000   0.8082904   0.0000000  )
        23           C   tau(  23) = (   0.4000000   0.0000000   0.0000000  )
        24           C   tau(  24) = (   0.4000000   0.1154701   0.0000000  )
        25           C   tau(  25) = (   0.3000000   0.1732051   0.0000000  )
        26           C   tau(  26) = (   0.3000000   0.2886751   0.0000000  )
        27           C   tau(  27) = (   0.2000000   0.3464102   0.0000000  )
        28           Mn  tau(  28) = (   0.2000000   0.4618802   0.0000000  )
        29           C   tau(  29) = (   0.1000000   0.5196152   0.0000000  )
        30           C   tau(  30) = (   0.1000000   0.6350853   0.0000000  )
        31           C   tau(  31) = (   0.0000000   0.6928203   0.0000000  )
        32           C   tau(  32) = (   0.0000000   0.8082904   0.0000000  )
        33           C   tau(  33) = (   0.6000000   0.0000000   0.0000000  )
        34           C   tau(  34) = (   0.6000000   0.1154701   0.0000000  )
        35           C   tau(  35) = (   0.5000000   0.1732051   0.0000000  )
        36           C   tau(  36) = (   0.5000000   0.2886751   0.0000000  )
        37           C   tau(  37) = (   0.4000000   0.3464102   0.0000000  )
        38           C   tau(  38) = (   0.4000000   0.4618802   0.0000000  )
        39           C   tau(  39) = (   0.3000000   0.5196152   0.0000000  )
        40           C   tau(  40) = (   0.3000000   0.6350853   0.0000000  )
        41           C   tau(  41) = (   0.2000000   0.6928203   0.0000000  )
        42           C   tau(  42) = (   0.2000000   0.8082904   0.0000000  )
        43           C   tau(  43) = (   0.8000000   0.0000000   0.0000000  )
        44           C   tau(  44) = (   0.8000000   0.1154701   0.0000000  )
        45           C   tau(  45) = (   0.7000000   0.1732051   0.0000000  )
        46           C   tau(  46) = (   0.7000000   0.2886751   0.0000000  )
        47           C   tau(  47) = (   0.6000000   0.3464102   0.0000000  )
        48           C   tau(  48) = (   0.6000000   0.4618802   0.0000000  )
        49           C   tau(  49) = (   0.5000000   0.5196152   0.0000000  )
        50           C   tau(  50) = (   0.5000000   0.6350853   0.0000000  )
        51           C   tau(  51) = (   0.4000000   0.6928203   0.0000000  )
        52           C   tau(  52) = (   0.4000000   0.8082904   0.0000000  )

   Crystallographic axes

     site n.     atom                  positions (cryst. coord.)
         1           H   tau(   1) = (  0.5333333  0.4666667  0.2800000  )
         2           H   tau(   2) = (  0.5333333  0.4666667  0.3552072  )
         3           C   tau(   3) = (  0.0000000  0.0000000  0.0000000  )
         4           C   tau(   4) = (  0.0666667  0.1333333  0.0000000  )
         5           C   tau(   5) = (  0.0000000  0.2000000  0.0000000  )
         6           C   tau(   6) = (  0.0666667  0.3333333  0.0000000  )
         7           C   tau(   7) = (  0.0000000  0.4000000  0.0000000  )
         8           C   tau(   8) = (  0.0666667  0.5333333  0.0000000  )
         9           C   tau(   9) = (  0.0000000  0.6000000  0.0000000  )
        10           C   tau(  10) = (  0.0666667  0.7333333  0.0000000  )
        11           C   tau(  11) = (  0.0000000  0.8000000  0.0000000  )
        12           C   tau(  12) = (  0.0666667  0.9333333  0.0000000  )
        13           C   tau(  13) = (  0.2000000  0.0000000  0.0000000  )
        14           C   tau(  14) = (  0.2666667  0.1333333  0.0000000  )
        15           C   tau(  15) = (  0.2000000  0.2000000  0.0000000  )
        16           C   tau(  16) = (  0.2666667  0.3333333  0.0000000  )
        17           C   tau(  17) = (  0.2000000  0.4000000  0.0000000  )
        18           C   tau(  18) = (  0.2666667  0.5333333  0.0000000  )
        19           C   tau(  19) = (  0.2000000  0.6000000  0.0000000  )
        20           C   tau(  20) = (  0.2666667  0.7333333  0.0000000  )
        21           C   tau(  21) = (  0.2000000  0.8000000  0.0000000  )
        22           C   tau(  22) = (  0.2666667  0.9333333  0.0000000  )
        23           C   tau(  23) = (  0.4000000  0.0000000  0.0000000  )
        24           C   tau(  24) = (  0.4666667  0.1333333  0.0000000  )
        25           C   tau(  25) = (  0.4000000  0.2000000  0.0000000  )
        26           C   tau(  26) = (  0.4666667  0.3333333  0.0000000  )
        27           C   tau(  27) = (  0.4000000  0.4000000  0.0000000  )
        28           Mn  tau(  28) = (  0.4666667  0.5333333  0.0000000  )
        29           C   tau(  29) = (  0.4000000  0.6000000  0.0000000  )
        30           C   tau(  30) = (  0.4666667  0.7333333  0.0000000  )
        31           C   tau(  31) = (  0.4000000  0.8000000  0.0000000  )
        32           C   tau(  32) = (  0.4666667  0.9333333  0.0000000  )
        33           C   tau(  33) = (  0.6000000  0.0000000  0.0000000  )
        34           C   tau(  34) = (  0.6666667  0.1333333  0.0000000  )
        35           C   tau(  35) = (  0.6000000  0.2000000  0.0000000  )
        36           C   tau(  36) = (  0.6666667  0.3333333  0.0000000  )
        37           C   tau(  37) = (  0.6000000  0.4000000  0.0000000  )
        38           C   tau(  38) = (  0.6666667  0.5333333  0.0000000  )
        39           C   tau(  39) = (  0.6000000  0.6000000  0.0000000  )
        40           C   tau(  40) = (  0.6666667  0.7333333  0.0000000  )
        41           C   tau(  41) = (  0.6000000  0.8000000  0.0000000  )
        42           C   tau(  42) = (  0.6666667  0.9333333  0.0000000  )
        43           C   tau(  43) = (  0.8000000  0.0000000  0.0000000  )
        44           C   tau(  44) = (  0.8666667  0.1333333  0.0000000  )
        45           C   tau(  45) = (  0.8000000  0.2000000  0.0000000  )
        46           C   tau(  46) = (  0.8666667  0.3333333  0.0000000  )
        47           C   tau(  47) = (  0.8000000  0.4000000  0.0000000  )
        48           C   tau(  48) = (  0.8666667  0.5333333  0.0000000  )
        49           C   tau(  49) = (  0.8000000  0.6000000  0.0000000  )
        50           C   tau(  50) = (  0.8666667  0.7333333  0.0000000  )
        51           C   tau(  51) = (  0.8000000  0.8000000  0.0000000  )
        52           C   tau(  52) = (  0.8666667  0.9333333  0.0000000  )

     number of k points=     1  Marzari-Vanderbilt smearing, width (Ry)=  0.0010
                       cart. coord. in units 2pi/alat
        k(    1) = (   0.0000000   0.0000000   0.0000000), wk =   2.0000000

                       cryst. coord.
        k(    1) = (   0.0000000   0.0000000   0.0000000), wk =   2.0000000

     Dense  grid:  1626001 G-vectors     FFT dimensions: ( 180, 180, 135)

     Smooth grid:   702581 G-vectors     FFT dimensions: ( 125, 125, 108)

     Dynamical RAM for                 wfc:      28.59 MB

     Dynamical RAM for     wfc (w. buffer):      28.59 MB

     Dynamical RAM for           str. fact:      12.41 MB

     Dynamical RAM for           local pot:       0.00 MB

     Dynamical RAM for          nlocal pot:      92.46 MB

     Dynamical RAM for                qrad:      19.73 MB

     Dynamical RAM for          rho,v,vnew:      29.46 MB

     Dynamical RAM for               rhoin:       9.82 MB

     Dynamical RAM for            rho*nmix:      66.16 MB

     Dynamical RAM for           G-vectors:      16.40 MB

     Dynamical RAM for          h,s,v(r/c):      12.00 MB

     Dynamical RAM for          <psi|beta>:       0.81 MB

     Dynamical RAM for                 psi:     114.35 MB

     Dynamical RAM for                hpsi:     114.35 MB

     Dynamical RAM for                spsi:     114.35 MB

     Dynamical RAM for      wfcinit/wfcrot:      93.90 MB

     Dynamical RAM for           addusdens:     971.75 MB

     Estimated static dynamical RAM per process >     320.00 MB

     Estimated max dynamical RAM per process >       1.26 GB

     Estimated total dynamical RAM >       7.57 GB

     Check: negative core charge=   -0.000002

     Initial potential from superposition of free atoms

     starting charge  212.80506, renormalised to  213.00000

     negative rho (up, down):  6.896E-05 0.000E+00


---------------------------------------------------------------------------------
Carrying out rVV10 run using the following parameters:
Nqs =      20    Nr_points =    1024   r_max =   100.000
b_value =  6.30000    beta =  0.00901
     q_mesh =  0.00010000  0.00030000  0.00058939  0.00100810
               0.00161396  0.00249058  0.00375900  0.00559430
               0.00824984  0.01209221  0.01765183  0.02569619
               0.03733578  0.05417739  0.07854596  0.11380545
               0.16482331  0.23864234  0.34545298  0.50000000

Gradients computed in Reciprocal space

---------------------------------------------------------------------------------


     Starting wfcs are  208 randomized atomic wfcs

     total cpu time spent up to now is       52.1 secs

     Self-consistent Calculation

     iteration #  1     ecut=    70.00 Ry     beta= 0.70
     Davidson diagonalization with overlap
     ethr =  1.00E-02,  avg # of iterations =  2.0

     negative rho (up, down):  1.381E-04 0.000E+00

     total cpu time spent up to now is      135.2 secs

     total energy              =    -823.41454616 Ry
     Harris-Foulkes estimate   =    -828.76179270 Ry
     estimated scf accuracy    <       7.99652287 Ry

     iteration #  2     ecut=    70.00 Ry     beta= 0.70
     Davidson diagonalization with overlap
     ethr =  3.75E-03,  avg # of iterations =  7.0

     negative rho (up, down):  1.679E-04 0.000E+00

     total cpu time spent up to now is      219.5 secs

     total energy              =    -815.71332066 Ry
     Harris-Foulkes estimate   =    -833.68007168 Ry
     estimated scf accuracy    <      74.68844535 Ry

     iteration #  3     ecut=    70.00 Ry     beta= 0.70
     Davidson diagonalization with overlap
     ethr =  3.75E-03,  avg # of iterations =  5.0

     negative rho (up, down):  2.240E-04 0.000E+00

     total cpu time spent up to now is      333.0 secs

     total energy              =    -824.90909803 Ry
     Harris-Foulkes estimate   =    -827.07898757 Ry
     estimated scf accuracy    <      10.48817305 Ry

     iteration #  4     ecut=    70.00 Ry     beta= 0.70
     Davidson diagonalization with overlap
     ethr =  3.75E-03,  avg # of iterations =  3.0

     negative rho (up, down):  2.470E-04 0.000E+00

     total cpu time spent up to now is      393.9 secs

     total energy              =    -825.62565861 Ry
     Harris-Foulkes estimate   =    -826.36471168 Ry
     estimated scf accuracy    <       2.31622704 Ry

     iteration #  5     ecut=    70.00 Ry     beta= 0.70
     Davidson diagonalization with overlap
     ethr =  1.09E-03,  avg # of iterations =  3.0

     negative rho (up, down):  2.628E-04 0.000E+00

     total cpu time spent up to now is      457.4 secs

     total energy              =    -825.86023344 Ry
     Harris-Foulkes estimate   =    -825.95403865 Ry
     estimated scf accuracy    <       0.50153131 Ry

     iteration #  6     ecut=    70.00 Ry     beta= 0.70
     Davidson diagonalization with overlap
     ethr =  2.35E-04,  avg # of iterations =  9.0

     negative rho (up, down):  2.828E-04 0.000E+00

     total cpu time spent up to now is      523.7 secs

     total energy              =    -825.89704896 Ry
     Harris-Foulkes estimate   =    -825.93306900 Ry
     estimated scf accuracy    <       0.31375993 Ry

     iteration #  7     ecut=    70.00 Ry     beta= 0.70
     Davidson diagonalization with overlap
     ethr =  1.47E-04,  avg # of iterations =  1.0

     negative rho (up, down):  3.201E-04 0.000E+00

     total cpu time spent up to now is      586.9 secs

     total energy              =    -825.87445885 Ry
     Harris-Foulkes estimate   =    -825.91131598 Ry
     estimated scf accuracy    <       0.22573161 Ry

     iteration #  8     ecut=    70.00 Ry     beta= 0.70
     Davidson diagonalization with overlap
     ethr =  1.06E-04,  avg # of iterations =  2.0

     negative rho (up, down):  4.163E-04 0.000E+00

     total cpu time spent up to now is      644.8 secs

     total energy              =    -825.91074257 Ry
     Harris-Foulkes estimate   =    -825.92764207 Ry
     estimated scf accuracy    <       0.31123136 Ry

     iteration #  9     ecut=    70.00 Ry     beta= 0.70
     Davidson diagonalization with overlap
     ethr =  1.06E-04,  avg # of iterations =  1.0

     negative rho (up, down):  4.951E-04 0.000E+00

     total cpu time spent up to now is      702.2 secs

     total energy              =    -825.90233960 Ry
     Harris-Foulkes estimate   =    -825.91394198 Ry
     estimated scf accuracy    <       0.26045675 Ry

     iteration # 10     ecut=    70.00 Ry     beta= 0.70
     Davidson diagonalization with overlap
     ethr =  1.06E-04,  avg # of iterations =  1.0

     negative rho (up, down):  5.358E-04 0.000E+00

     total cpu time spent up to now is      759.8 secs

     total energy              =    -825.89430763 Ry
     Harris-Foulkes estimate   =    -825.90427499 Ry
     estimated scf accuracy    <       0.21870071 Ry

     iteration # 11     ecut=    70.00 Ry     beta= 0.70
     Davidson diagonalization with overlap
     ethr =  1.03E-04,  avg # of iterations =  1.0

     negative rho (up, down):  5.946E-04 0.000E+00

     total cpu time spent up to now is      817.8 secs

     total energy              =    -825.89574857 Ry
     Harris-Foulkes estimate   =    -825.90010010 Ry
     estimated scf accuracy    <       0.18040114 Ry

     iteration # 12     ecut=    70.00 Ry     beta= 0.70
     Davidson diagonalization with overlap
     ethr =  8.47E-05,  avg # of iterations =  1.0

     negative rho (up, down):  5.943E-04 0.000E+00

     total cpu time spent up to now is      877.4 secs

     total energy              =    -825.89683061 Ry
     Harris-Foulkes estimate   =    -825.89791154 Ry
     estimated scf accuracy    <       0.04459360 Ry

     iteration # 13     ecut=    70.00 Ry     beta= 0.70
     Davidson diagonalization with overlap
     ethr =  2.09E-05,  avg # of iterations =  1.0

     negative rho (up, down):  5.945E-04 0.000E+00

     total cpu time spent up to now is      938.3 secs

     total energy              =    -825.89764882 Ry
     Harris-Foulkes estimate   =    -825.89850972 Ry
     estimated scf accuracy    <       0.15404324 Ry

     iteration # 14     ecut=    70.00 Ry     beta= 0.70
     Davidson diagonalization with overlap
     ethr =  2.09E-05,  avg # of iterations =  1.0

     negative rho (up, down):  5.973E-04 0.000E+00

     total cpu time spent up to now is     1002.1 secs

     total energy              =    -825.89749799 Ry
     Harris-Foulkes estimate   =    -825.89798098 Ry
     estimated scf accuracy    <       0.06980717 Ry

     iteration # 15     ecut=    70.00 Ry     beta= 0.70
     Davidson diagonalization with overlap
     ethr =  2.09E-05,  avg # of iterations =  9.0

     negative rho (up, down):  6.037E-04 0.000E+00

     total cpu time spent up to now is     1065.5 secs

     total energy              =    -825.89695915 Ry
     Harris-Foulkes estimate   =    -825.89793848 Ry
     estimated scf accuracy    <       0.08050730 Ry

     iteration # 16     ecut=    70.00 Ry     beta= 0.70
     Davidson diagonalization with overlap
     ethr =  2.09E-05,  avg # of iterations =  1.0

     negative rho (up, down):  6.092E-04 0.000E+00

     total cpu time spent up to now is     1124.5 secs

     total energy              =    -825.89770372 Ry
     Harris-Foulkes estimate   =    -825.89777513 Ry
     estimated scf accuracy    <       0.00831592 Ry

     iteration # 17     ecut=    70.00 Ry     beta= 0.70
     Davidson diagonalization with overlap
     ethr =  3.90E-06,  avg # of iterations =  1.0

     negative rho (up, down):  6.122E-04 0.000E+00

     total cpu time spent up to now is     1182.7 secs

     total energy              =    -825.89762614 Ry
     Harris-Foulkes estimate   =    -825.89774719 Ry
     estimated scf accuracy    <       0.02590329 Ry

     iteration # 18     ecut=    70.00 Ry     beta= 0.70
     Davidson diagonalization with overlap
     ethr =  3.90E-06,  avg # of iterations =  1.0

     negative rho (up, down):  6.150E-04 0.000E+00

     total cpu time spent up to now is     1239.0 secs

     total energy              =    -825.89750788 Ry
     Harris-Foulkes estimate   =    -825.89765089 Ry
     estimated scf accuracy    <       0.01232708 Ry

     iteration # 19     ecut=    70.00 Ry     beta= 0.70
     Davidson diagonalization with overlap
     ethr =  3.90E-06,  avg # of iterations =  1.0

     negative rho (up, down):  6.129E-04 0.000E+00

     total cpu time spent up to now is     1302.0 secs

     total energy              =    -825.89749260 Ry
     Harris-Foulkes estimate   =    -825.89764300 Ry
     estimated scf accuracy    <       0.00704853 Ry

     iteration # 20     ecut=    70.00 Ry     beta= 0.70
     Davidson diagonalization with overlap
     ethr =  3.31E-06,  avg # of iterations =  1.0

     negative rho (up, down):  6.144E-04 0.000E+00

     total cpu time spent up to now is     1356.7 secs

     total energy              =    -825.89757547 Ry
     Harris-Foulkes estimate   =    -825.89763076 Ry
     estimated scf accuracy    <       0.00114724 Ry

     iteration # 21     ecut=    70.00 Ry     beta= 0.70
     Davidson diagonalization with overlap
     ethr =  5.39E-07,  avg # of iterations =  1.0

     negative rho (up, down):  6.148E-04 0.000E+00

     total cpu time spent up to now is     1413.0 secs

     total energy              =    -825.89759655 Ry
     Harris-Foulkes estimate   =    -825.89760281 Ry
     estimated scf accuracy    <       0.00022065 Ry

     iteration # 22     ecut=    70.00 Ry     beta= 0.70
     Davidson diagonalization with overlap
     ethr =  1.04E-07,  avg # of iterations =  1.0

     negative rho (up, down):  6.151E-04 0.000E+00

     total cpu time spent up to now is     1467.7 secs

     total energy              =    -825.89759732 Ry
     Harris-Foulkes estimate   =    -825.89760682 Ry
     estimated scf accuracy    <       0.00044373 Ry

     iteration # 23     ecut=    70.00 Ry     beta= 0.70
     Davidson diagonalization with overlap
     ethr =  1.04E-07,  avg # of iterations =  1.0

     negative rho (up, down):  6.153E-04 0.000E+00

     total cpu time spent up to now is     1527.2 secs

     total energy              =    -825.89760131 Ry
     Harris-Foulkes estimate   =    -825.89760232 Ry
     estimated scf accuracy    <       0.00015515 Ry

     iteration # 24     ecut=    70.00 Ry     beta= 0.70
     Davidson diagonalization with overlap
     ethr =  7.28E-08,  avg # of iterations =  1.0

     negative rho (up, down):  6.155E-04 0.000E+00

     total cpu time spent up to now is     1586.3 secs

     total energy              =    -825.89760158 Ry
     Harris-Foulkes estimate   =    -825.89760177 Ry
     estimated scf accuracy    <       0.00002015 Ry

     iteration # 25     ecut=    70.00 Ry     beta= 0.70
     Davidson diagonalization with overlap
     ethr =  9.46E-09,  avg # of iterations =  1.0

     negative rho (up, down):  6.155E-04 0.000E+00

     total cpu time spent up to now is     1646.5 secs

     End of self-consistent calculation

          k = 0.0000 0.0000 0.0000 ( 87777 PWs)   bands (ev):

   -80.0299 -49.6724 -49.6688 -48.2446 -19.7681 -18.9315 -18.9295 -18.8423
   -18.8248 -18.8245 -18.4652 -17.0707 -17.0699 -17.0692 -16.9786 -16.9772
   -16.6810 -16.2193 -16.2189 -16.1196 -16.0558 -16.0553 -15.3613 -14.1030
   -14.1026 -14.0305 -13.9970 -13.9968 -13.3366 -13.0641 -13.0631 -13.0340
   -12.7382 -12.7376 -12.3109 -11.8340 -11.8338 -11.6555 -11.3821 -11.3818
   -10.4621  -9.6482  -9.6480  -9.4368  -9.3123  -9.3119  -9.2300  -9.1959
    -9.1959  -9.1860  -8.6979  -8.6979  -8.1502  -8.1500  -8.0571  -7.9084
    -7.8338  -7.4305  -7.4302  -7.1712  -7.1377  -7.1040  -6.8971  -6.8968
    -6.8264  -6.8061  -6.8007  -6.7177  -6.6354  -6.5626  -6.5622  -6.5364
    -6.5266  -6.5257  -6.4781  -6.3209  -5.5128  -5.5125  -5.5088  -5.5032
    -5.2906  -5.2902  -4.9891  -4.8851  -4.8487  -4.7220  -4.6905  -4.6899
    -4.3786  -4.1729  -4.1728  -4.1242  -4.1233  -3.8320  -3.8308  -3.7557
    -3.6698  -3.6697  -3.1276  -2.6290  -2.6275  -1.8200  -1.7999  -1.7997
    -0.8479  -0.8373  -0.8372  -0.8360   0.9648   0.9712   0.9737   1.6395
     1.6397   1.6447   2.5673   2.8115   2.8133   2.8768   3.1599   3.1684
     3.5255   3.5499   3.5513   3.6891   3.7295   3.7766   3.7922   3.7935

     occupation numbers 
     1.0000   1.0000   1.0000   1.0000   1.0000   1.0000   1.0000   1.0000
     1.0000   1.0000   1.0000   1.0000   1.0000   1.0000   1.0000   1.0000
     1.0000   1.0000   1.0000   1.0000   1.0000   1.0000   1.0000   1.0000
     1.0000   1.0000   1.0000   1.0000   1.0000   1.0000   1.0000   1.0000
     1.0000   1.0000   1.0000   1.0000   1.0000   1.0000   1.0000   1.0000
     1.0000   1.0000   1.0000   1.0000   1.0000   1.0000   1.0000   1.0000
     1.0000   1.0000   1.0000   1.0000   1.0000   1.0000   1.0000   1.0000
     1.0000   1.0000   1.0000   1.0000   1.0000   1.0000   1.0000   1.0000
     1.0000   1.0000   1.0000   1.0000   1.0000   1.0000   1.0000   1.0000
     1.0000   1.0000   1.0000   1.0000   1.0000   1.0000   1.0000   1.0000
     1.0000   1.0000   1.0000   1.0000   1.0000   1.0000   1.0000   1.0000
     1.0000   1.0000   1.0000   1.0000   1.0000   1.0000   1.0000   1.0000
     1.0000   1.0000   1.0000   1.0000   1.0000   1.0000   1.0000   1.0000
     1.0098   0.5225   0.5164   0.4513   0.0000   0.0000   0.0000   0.0000
     0.0000   0.0000   0.0000   0.0000   0.0000   0.0000   0.0000   0.0000
     0.0000   0.0000   0.0000   0.0000   0.0000   0.0000   0.0000   0.0000

     the Fermi energy is    -0.8350 ev

!    total energy              =    -825.89760097 Ry
     Harris-Foulkes estimate   =    -825.89760169 Ry
     estimated scf accuracy    <       0.00000084 Ry

     The total energy is the sum of the following terms:

     one-electron contribution =   -2719.17328214 Ry
     hartree contribution      =    1404.35743994 Ry
     xc contribution           =    -259.58372420 Ry
     ewald contribution        =     748.50276695 Ry
     smearing contrib. (-TS)   =      -0.00080152 Ry

     convergence has been achieved in  25 iterations

     Writing output data file gr-12-sixhollow.save/

     init_run     :     49.50s CPU     50.91s WALL (       1 calls)
     electrons    :   1545.82s CPU   1594.53s WALL (       1 calls)

     Called by init_run:
     wfcinit      :     25.41s CPU     25.63s WALL (       1 calls)
     wfcinit:atom :      0.04s CPU      0.06s WALL (       1 calls)
     wfcinit:wfcr :     25.21s CPU     25.35s WALL (       1 calls)
     potinit      :     11.04s CPU     11.53s WALL (       1 calls)
     hinit0       :      7.08s CPU      7.13s WALL (       1 calls)

     Called by electrons:
     c_bands      :    910.70s CPU    916.07s WALL (      25 calls)
     sum_band     :    321.92s CPU    338.84s WALL (      25 calls)
     v_of_rho     :    185.62s CPU    196.85s WALL (      26 calls)
     v_h          :      2.17s CPU      2.26s WALL (      26 calls)
     v_xc         :    183.45s CPU    194.59s WALL (      26 calls)
     newd         :    130.31s CPU    146.31s WALL (      26 calls)
     mix_rho      :      6.26s CPU      6.37s WALL (      25 calls)

     Called by c_bands:
     init_us_2    :      2.58s CPU      2.66s WALL (      51 calls)
     cegterg      :    904.17s CPU    909.51s WALL (      25 calls)

     Called by sum_band:
     sum_band:bec :      0.02s CPU      0.02s WALL (      25 calls)
     addusdens    :    201.25s CPU    217.19s WALL (      25 calls)

     Called by *egterg:
     h_psi        :    487.43s CPU    491.41s WALL (      83 calls)
     s_psi        :    159.36s CPU    159.45s WALL (      83 calls)
     g_psi        :      0.48s CPU      0.48s WALL (      57 calls)
     cdiaghg      :      5.70s CPU      5.71s WALL (      82 calls)
     cegterg:over :    108.23s CPU    108.28s WALL (      57 calls)
     cegterg:upda :     60.22s CPU     60.60s WALL (      57 calls)
     cegterg:last :     53.41s CPU     53.43s WALL (      26 calls)

     Called by h_psi:
     h_psi:pot    :    486.94s CPU    490.26s WALL (      83 calls)
     h_psi:calbec :    159.15s CPU    159.24s WALL (      83 calls)
     vloc_psi     :    168.86s CPU    171.99s WALL (      83 calls)
     add_vuspsi   :    158.93s CPU    159.03s WALL (      83 calls)

     General routines
     calbec       :    230.37s CPU    230.49s WALL (     108 calls)
     fft          :    105.48s CPU    109.48s WALL (    1636 calls)
     ffts         :      1.19s CPU      1.24s WALL (      51 calls)
     fftw         :    179.99s CPU    183.41s WALL (   17592 calls)
     interpolate  :      2.64s CPU      2.74s WALL (      26 calls)

     Parallel routines
     fft_scatt_xy :     53.49s CPU     54.01s WALL (   19279 calls)
     fft_scatt_yz :     89.16s CPU     94.55s WALL (   19279 calls)

     PWSCF        :  26m36.64s CPU  27m27.07s WALL


   This run was terminated on:  11:13:31  22Jul2022            

=------------------------------------------------------------------------------=
   JOB DONE.
=------------------------------------------------------------------------------=
