
     Program PWSCF v.6.4.1 starts on 20Jul2022 at 10:13: 3 

     This program is part of the open-source Quantum ESPRESSO suite
     for quantum simulation of materials; please cite
         "P. Giannozzi et al., J. Phys.:Condens. Matter 21 395502 (2009);
         "P. Giannozzi et al., J. Phys.:Condens. Matter 29 465901 (2017);
          URL http://www.quantum-espresso.org", 
     in publications or presentations arising from this work. More details at
     http://www.quantum-espresso.org/quote

     Parallel version (MPI), running on     6 processors

     MPI processes distributed on     1 nodes
     R & G space division:  proc/nbgrp/npool/nimage =       6
     Reading input from distance-3.0.in

     Current dimensions of program PWSCF are:
     Max number of different atomic species (ntypx) = 10
     Max number of k-points (npk) =  40000
     Max angular momentum in pseudopotentials (lmaxx) =  3

     IMPORTANT: XC functional enforced from input :
     Exchange-correlation      = RVV10 ( 1  4 13  4 3 0)
     Any further DFT definition will be discarded
     Please, verify this is what you really want

               file H.pbe-rrkjus.UPF: wavefunction(s)  1S renormalized
               file Cr.pbe-spn-rrkjus_psl.1.0.0.UPF: wavefunction(s)  3P renormalized

     Subspace diagonalization in iterative solution of the eigenvalue problem:
     a serial algorithm will be used


     Parallelization info
     --------------------
     sticks:   dense  smooth     PW     G-vecs:    dense   smooth      PW
     Min        3051    1746    432               270999   117096   14629
     Max        3053    1747    437               271001   117099   14630
     Sum       18313   10477   2611              1626001   702581   87777



     bravais-lattice index     =            4
     lattice parameter (alat)  =      23.2937  a.u.
     unit-cell volume          =    8879.8548 (a.u.)^3
     number of atoms/cell      =           52
     number of atomic types    =            3
     number of electrons       =       212.00
     number of Kohn-Sham states=          127
     kinetic-energy cutoff     =      70.0000  Ry
     charge density cutoff     =     490.0000  Ry
     convergence threshold     =      1.0E-06
     mixing beta               =       0.7000
     number of iterations used =            8  plain     mixing
     Exchange-correlation      = RVV10 ( 1  4 13  4 3 0)

     celldm(1)=  23.293684  celldm(2)=   0.000000  celldm(3)=   0.811261
     celldm(4)=   0.000000  celldm(5)=   0.000000  celldm(6)=   0.000000

     crystal axes: (cart. coord. in units of alat)
               a(1) = (   1.000000   0.000000   0.000000 )  
               a(2) = (  -0.500000   0.866025   0.000000 )  
               a(3) = (   0.000000   0.000000   0.811261 )  

     reciprocal axes: (cart. coord. in units 2 pi/alat)
               b(1) = (  1.000000  0.577350 -0.000000 )  
               b(2) = (  0.000000  1.154701  0.000000 )  
               b(3) = (  0.000000 -0.000000  1.232649 )  


     PseudoPot. # 1 for H  read from file:
     /home/cristian/Escritorio/Proyecto_Grafeno/pseudopotenciales/H.pbe-rrkjus.UPF
     MD5 check sum: 7cc9d459525c9a0585f487a71c3c9563
     Pseudo is Ultrasoft, Zval =  1.0
     Generated by new atomic code, or converted to UPF format
     Using radial grid of 1061 points,  2 beta functions with: 
                l(1) =   0
                l(2) =   0
     Q(r) pseudized with 0 coefficients 


     PseudoPot. # 2 for C  read from file:
     /home/cristian/Escritorio/Proyecto_Grafeno/pseudopotenciales/C.pbe-n-rrkjus_psl.1.0.0.UPF
     MD5 check sum: 1fdd950c42eb37d8afe3dd2f8d12311e
     Pseudo is Ultrasoft + core correction, Zval =  4.0
     Generated using "atomic" code by A. Dal Corso v.6.3MaX
     Using radial grid of 1073 points,  4 beta functions with: 
                l(1) =   0
                l(2) =   0
                l(3) =   1
                l(4) =   1
     Q(r) pseudized with 0 coefficients 


     PseudoPot. # 3 for Cr read from file:
     /home/cristian/Escritorio/Proyecto_Grafeno/pseudopotenciales/Cr.pbe-spn-rrkjus_psl.1.0.0.UPF
     MD5 check sum: 793d051e4f89dd1e3290b85340a92c0a
     Pseudo is Ultrasoft + core correction, Zval = 14.0
     Generated using "atomic" code by A. Dal Corso v.6.2.2
     Using radial grid of 1183 points,  6 beta functions with: 
                l(1) =   0
                l(2) =   0
                l(3) =   1
                l(4) =   1
                l(5) =   2
                l(6) =   2
     Q(r) pseudized with 0 coefficients 


     vdW kernel table read from file rVV10_kernel_table
     MD5 check sum: b8e2538accc0c0b3206b45ba4daaba6c

     atomic species   valence    mass     pseudopotential
        H              1.00     1.00794     H ( 1.00)
        C              4.00    12.01070     C ( 1.00)
        Cr            14.00    51.99610     Cr( 1.00)

      2 Sym. Ops. (no inversion) found


                                    s                        frac. trans.

      isym =  1     identity                                     

 cryst.   s( 1) = (     1          0          0      )
                  (     0          1          0      )
                  (     0          0          1      )

 cart.    s( 1) = (  1.0000000  0.0000000  0.0000000 )
                  (  0.0000000  1.0000000  0.0000000 )
                  (  0.0000000  0.0000000  1.0000000 )


      isym =  2     inv. 180 deg rotation - cryst. axis [1,1,0]  

 cryst.   s( 2) = (     0         -1          0      )
                  (    -1          0          0      )
                  (     0          0          1      )

 cart.    s( 2) = (  0.5000000 -0.8660254  0.0000000 )
                  ( -0.8660254 -0.5000000  0.0000000 )
                  (  0.0000000  0.0000000  1.0000000 )


     point group C_s (m)    
     there are  2 classes
     the character table:

       E     s    
A'     1.00  1.00
A''    1.00 -1.00

     the symmetry operations in each class and the name of the first element:

     E        1
          identity                                               
     s        2
          inv. 180 deg rotation - cryst. axis [1,1,0]            

   Cartesian axes

     site n.     atom                  positions (alat units)
         1           H   tau(   1) = (   0.3000000   0.4041452   0.2433783  )
         2           H   tau(   2) = (   0.3000000   0.4041452   0.3043910  )
         3           C   tau(   3) = (   0.0000000   0.0000000   0.0000000  )
         4           C   tau(   4) = (   0.0000000   0.1154701   0.0000000  )
         5           C   tau(   5) = (  -0.1000000   0.1732051   0.0000000  )
         6           C   tau(   6) = (  -0.1000000   0.2886751   0.0000000  )
         7           C   tau(   7) = (  -0.2000000   0.3464102   0.0000000  )
         8           C   tau(   8) = (  -0.2000000   0.4618802   0.0000000  )
         9           C   tau(   9) = (  -0.3000000   0.5196152   0.0000000  )
        10           C   tau(  10) = (  -0.3000000   0.6350853   0.0000000  )
        11           C   tau(  11) = (  -0.4000000   0.6928203   0.0000000  )
        12           C   tau(  12) = (  -0.4000000   0.8082904   0.0000000  )
        13           C   tau(  13) = (   0.2000000   0.0000000   0.0000000  )
        14           C   tau(  14) = (   0.2000000   0.1154701   0.0000000  )
        15           C   tau(  15) = (   0.1000000   0.1732051   0.0000000  )
        16           C   tau(  16) = (   0.1000000   0.2886751   0.0000000  )
        17           C   tau(  17) = (   0.0000000   0.3464102   0.0000000  )
        18           C   tau(  18) = (   0.0000000   0.4618802   0.0000000  )
        19           C   tau(  19) = (  -0.1000000   0.5196152   0.0000000  )
        20           C   tau(  20) = (  -0.1000000   0.6350853   0.0000000  )
        21           C   tau(  21) = (  -0.2000000   0.6928203   0.0000000  )
        22           C   tau(  22) = (  -0.2000000   0.8082904   0.0000000  )
        23           C   tau(  23) = (   0.4000000   0.0000000   0.0000000  )
        24           C   tau(  24) = (   0.4000000   0.1154701   0.0000000  )
        25           C   tau(  25) = (   0.3000000   0.1732051   0.0000000  )
        26           C   tau(  26) = (   0.3000000   0.2886751   0.0000000  )
        27           C   tau(  27) = (   0.2000000   0.3464102   0.0000000  )
        28           Cr  tau(  28) = (   0.2000000   0.4618802   0.0000000  )
        29           C   tau(  29) = (   0.1000000   0.5196152   0.0000000  )
        30           C   tau(  30) = (   0.1000000   0.6350853   0.0000000  )
        31           C   tau(  31) = (   0.0000000   0.6928203   0.0000000  )
        32           C   tau(  32) = (   0.0000000   0.8082904   0.0000000  )
        33           C   tau(  33) = (   0.6000000   0.0000000   0.0000000  )
        34           C   tau(  34) = (   0.6000000   0.1154701   0.0000000  )
        35           C   tau(  35) = (   0.5000000   0.1732051   0.0000000  )
        36           C   tau(  36) = (   0.5000000   0.2886751   0.0000000  )
        37           C   tau(  37) = (   0.4000000   0.3464102   0.0000000  )
        38           C   tau(  38) = (   0.4000000   0.4618802   0.0000000  )
        39           C   tau(  39) = (   0.3000000   0.5196152   0.0000000  )
        40           C   tau(  40) = (   0.3000000   0.6350853   0.0000000  )
        41           C   tau(  41) = (   0.2000000   0.6928203   0.0000000  )
        42           C   tau(  42) = (   0.2000000   0.8082904   0.0000000  )
        43           C   tau(  43) = (   0.8000000   0.0000000   0.0000000  )
        44           C   tau(  44) = (   0.8000000   0.1154701   0.0000000  )
        45           C   tau(  45) = (   0.7000000   0.1732051   0.0000000  )
        46           C   tau(  46) = (   0.7000000   0.2886751   0.0000000  )
        47           C   tau(  47) = (   0.6000000   0.3464102   0.0000000  )
        48           C   tau(  48) = (   0.6000000   0.4618802   0.0000000  )
        49           C   tau(  49) = (   0.5000000   0.5196152   0.0000000  )
        50           C   tau(  50) = (   0.5000000   0.6350853   0.0000000  )
        51           C   tau(  51) = (   0.4000000   0.6928203   0.0000000  )
        52           C   tau(  52) = (   0.4000000   0.8082904   0.0000000  )

   Crystallographic axes

     site n.     atom                  positions (cryst. coord.)
         1           H   tau(   1) = (  0.5333333  0.4666667  0.3000000  )
         2           H   tau(   2) = (  0.5333333  0.4666667  0.3752072  )
         3           C   tau(   3) = (  0.0000000  0.0000000  0.0000000  )
         4           C   tau(   4) = (  0.0666667  0.1333333  0.0000000  )
         5           C   tau(   5) = (  0.0000000  0.2000000  0.0000000  )
         6           C   tau(   6) = (  0.0666667  0.3333333  0.0000000  )
         7           C   tau(   7) = (  0.0000000  0.4000000  0.0000000  )
         8           C   tau(   8) = (  0.0666667  0.5333333  0.0000000  )
         9           C   tau(   9) = (  0.0000000  0.6000000  0.0000000  )
        10           C   tau(  10) = (  0.0666667  0.7333333  0.0000000  )
        11           C   tau(  11) = (  0.0000000  0.8000000  0.0000000  )
        12           C   tau(  12) = (  0.0666667  0.9333333  0.0000000  )
        13           C   tau(  13) = (  0.2000000  0.0000000  0.0000000  )
        14           C   tau(  14) = (  0.2666667  0.1333333  0.0000000  )
        15           C   tau(  15) = (  0.2000000  0.2000000  0.0000000  )
        16           C   tau(  16) = (  0.2666667  0.3333333  0.0000000  )
        17           C   tau(  17) = (  0.2000000  0.4000000  0.0000000  )
        18           C   tau(  18) = (  0.2666667  0.5333333  0.0000000  )
        19           C   tau(  19) = (  0.2000000  0.6000000  0.0000000  )
        20           C   tau(  20) = (  0.2666667  0.7333333  0.0000000  )
        21           C   tau(  21) = (  0.2000000  0.8000000  0.0000000  )
        22           C   tau(  22) = (  0.2666667  0.9333333  0.0000000  )
        23           C   tau(  23) = (  0.4000000  0.0000000  0.0000000  )
        24           C   tau(  24) = (  0.4666667  0.1333333  0.0000000  )
        25           C   tau(  25) = (  0.4000000  0.2000000  0.0000000  )
        26           C   tau(  26) = (  0.4666667  0.3333333  0.0000000  )
        27           C   tau(  27) = (  0.4000000  0.4000000  0.0000000  )
        28           Cr  tau(  28) = (  0.4666667  0.5333333  0.0000000  )
        29           C   tau(  29) = (  0.4000000  0.6000000  0.0000000  )
        30           C   tau(  30) = (  0.4666667  0.7333333  0.0000000  )
        31           C   tau(  31) = (  0.4000000  0.8000000  0.0000000  )
        32           C   tau(  32) = (  0.4666667  0.9333333  0.0000000  )
        33           C   tau(  33) = (  0.6000000  0.0000000  0.0000000  )
        34           C   tau(  34) = (  0.6666667  0.1333333  0.0000000  )
        35           C   tau(  35) = (  0.6000000  0.2000000  0.0000000  )
        36           C   tau(  36) = (  0.6666667  0.3333333  0.0000000  )
        37           C   tau(  37) = (  0.6000000  0.4000000  0.0000000  )
        38           C   tau(  38) = (  0.6666667  0.5333333  0.0000000  )
        39           C   tau(  39) = (  0.6000000  0.6000000  0.0000000  )
        40           C   tau(  40) = (  0.6666667  0.7333333  0.0000000  )
        41           C   tau(  41) = (  0.6000000  0.8000000  0.0000000  )
        42           C   tau(  42) = (  0.6666667  0.9333333  0.0000000  )
        43           C   tau(  43) = (  0.8000000  0.0000000  0.0000000  )
        44           C   tau(  44) = (  0.8666667  0.1333333  0.0000000  )
        45           C   tau(  45) = (  0.8000000  0.2000000  0.0000000  )
        46           C   tau(  46) = (  0.8666667  0.3333333  0.0000000  )
        47           C   tau(  47) = (  0.8000000  0.4000000  0.0000000  )
        48           C   tau(  48) = (  0.8666667  0.5333333  0.0000000  )
        49           C   tau(  49) = (  0.8000000  0.6000000  0.0000000  )
        50           C   tau(  50) = (  0.8666667  0.7333333  0.0000000  )
        51           C   tau(  51) = (  0.8000000  0.8000000  0.0000000  )
        52           C   tau(  52) = (  0.8666667  0.9333333  0.0000000  )

     number of k points=     1  Marzari-Vanderbilt smearing, width (Ry)=  0.0010
                       cart. coord. in units 2pi/alat
        k(    1) = (   0.0000000   0.0000000   0.0000000), wk =   2.0000000

                       cryst. coord.
        k(    1) = (   0.0000000   0.0000000   0.0000000), wk =   2.0000000

     Dense  grid:  1626001 G-vectors     FFT dimensions: ( 180, 180, 135)

     Smooth grid:   702581 G-vectors     FFT dimensions: ( 125, 125, 108)

     Dynamical RAM for                 wfc:      28.36 MB

     Dynamical RAM for     wfc (w. buffer):      28.36 MB

     Dynamical RAM for           str. fact:      12.41 MB

     Dynamical RAM for           local pot:       0.00 MB

     Dynamical RAM for          nlocal pot:      92.46 MB

     Dynamical RAM for                qrad:      19.73 MB

     Dynamical RAM for          rho,v,vnew:      29.46 MB

     Dynamical RAM for               rhoin:       9.82 MB

     Dynamical RAM for            rho*nmix:      66.16 MB

     Dynamical RAM for           G-vectors:      16.40 MB

     Dynamical RAM for          h,s,v(r/c):      11.81 MB

     Dynamical RAM for          <psi|beta>:       0.80 MB

     Dynamical RAM for                 psi:     113.46 MB

     Dynamical RAM for                hpsi:     113.46 MB

     Dynamical RAM for                spsi:     113.46 MB

     Dynamical RAM for      wfcinit/wfcrot:      93.90 MB

     Dynamical RAM for           addusdens:     971.75 MB

     Estimated static dynamical RAM per process >     319.78 MB

     Estimated max dynamical RAM per process >       1.26 GB

     Estimated total dynamical RAM >       7.57 GB

     Check: negative core charge=   -0.000002

     Initial potential from superposition of free atoms

     starting charge  211.80478, renormalised to  212.00000

     negative rho (up, down):  4.853E-04 0.000E+00


---------------------------------------------------------------------------------
Carrying out rVV10 run using the following parameters:
Nqs =      20    Nr_points =    1024   r_max =   100.000
b_value =  6.30000    beta =  0.00901
     q_mesh =  0.00010000  0.00030000  0.00058939  0.00100810
               0.00161396  0.00249058  0.00375900  0.00559430
               0.00824984  0.01209221  0.01765183  0.02569619
               0.03733578  0.05417739  0.07854596  0.11380545
               0.16482331  0.23864234  0.34545298  0.50000000

Gradients computed in Reciprocal space

---------------------------------------------------------------------------------


     Starting wfcs are  208 randomized atomic wfcs

     total cpu time spent up to now is       53.5 secs

     Self-consistent Calculation

     iteration #  1     ecut=    70.00 Ry     beta= 0.70
     Davidson diagonalization with overlap
     ethr =  1.00E-02,  avg # of iterations =  2.0

     negative rho (up, down):  8.218E-04 0.000E+00

     total cpu time spent up to now is      118.3 secs

     total energy              =    -784.69849941 Ry
     Harris-Foulkes estimate   =    -789.92898053 Ry
     estimated scf accuracy    <       7.90015466 Ry

     iteration #  2     ecut=    70.00 Ry     beta= 0.70
     Davidson diagonalization with overlap
     ethr =  3.73E-03,  avg # of iterations =  6.0

     negative rho (up, down):  9.271E-04 0.000E+00

     total cpu time spent up to now is      182.8 secs

     total energy              =    -777.47338529 Ry
     Harris-Foulkes estimate   =    -792.66151919 Ry
     estimated scf accuracy    <      57.24281051 Ry

     iteration #  3     ecut=    70.00 Ry     beta= 0.70
     Davidson diagonalization with overlap
     ethr =  3.73E-03,  avg # of iterations =  5.0

     negative rho (up, down):  1.061E-03 0.000E+00

     total cpu time spent up to now is      265.2 secs

     total energy              =    -785.51478191 Ry
     Harris-Foulkes estimate   =    -788.64698392 Ry
     estimated scf accuracy    <      16.19231761 Ry

     iteration #  4     ecut=    70.00 Ry     beta= 0.70
     Davidson diagonalization with overlap
     ethr =  3.73E-03,  avg # of iterations =  4.0

     negative rho (up, down):  1.385E-03 0.000E+00

     total cpu time spent up to now is      315.2 secs

     total energy              =    -786.75239025 Ry
     Harris-Foulkes estimate   =    -787.41458463 Ry
     estimated scf accuracy    <       2.17828393 Ry

     iteration #  5     ecut=    70.00 Ry     beta= 0.70
     Davidson diagonalization with overlap
     ethr =  1.03E-03,  avg # of iterations =  6.0

     negative rho (up, down):  1.686E-03 0.000E+00

     total cpu time spent up to now is      366.8 secs

     total energy              =    -786.92785854 Ry
     Harris-Foulkes estimate   =    -787.02135509 Ry
     estimated scf accuracy    <       0.35672902 Ry

     iteration #  6     ecut=    70.00 Ry     beta= 0.70
     Davidson diagonalization with overlap
     ethr =  1.68E-04,  avg # of iterations =  4.0

     negative rho (up, down):  1.787E-03 0.000E+00

     total cpu time spent up to now is      417.5 secs

     total energy              =    -786.94342292 Ry
     Harris-Foulkes estimate   =    -786.98815985 Ry
     estimated scf accuracy    <       0.21788113 Ry

     iteration #  7     ecut=    70.00 Ry     beta= 0.70
     Davidson diagonalization with overlap
     ethr =  1.03E-04,  avg # of iterations =  7.0

     negative rho (up, down):  1.951E-03 0.000E+00

     total cpu time spent up to now is      467.7 secs

     total energy              =    -786.94335028 Ry
     Harris-Foulkes estimate   =    -786.96849867 Ry
     estimated scf accuracy    <       0.13438924 Ry

     iteration #  8     ecut=    70.00 Ry     beta= 0.70
     Davidson diagonalization with overlap
     ethr =  6.34E-05,  avg # of iterations =  2.0

     negative rho (up, down):  2.525E-03 0.000E+00

     total cpu time spent up to now is      515.7 secs

     total energy              =    -786.94287959 Ry
     Harris-Foulkes estimate   =    -786.95038297 Ry
     estimated scf accuracy    <       0.02100910 Ry

     iteration #  9     ecut=    70.00 Ry     beta= 0.70
     Davidson diagonalization with overlap
     ethr =  9.91E-06,  avg # of iterations = 11.0

     negative rho (up, down):  2.686E-03 0.000E+00

     total cpu time spent up to now is      579.0 secs

     total energy              =    -786.94545985 Ry
     Harris-Foulkes estimate   =    -786.94790665 Ry
     estimated scf accuracy    <       0.00695614 Ry

     iteration # 10     ecut=    70.00 Ry     beta= 0.70
     Davidson diagonalization with overlap
     ethr =  3.28E-06,  avg # of iterations =  4.0

     negative rho (up, down):  2.744E-03 0.000E+00

     total cpu time spent up to now is      633.2 secs

     total energy              =    -786.94601415 Ry
     Harris-Foulkes estimate   =    -786.94751332 Ry
     estimated scf accuracy    <       0.01862168 Ry

     iteration # 11     ecut=    70.00 Ry     beta= 0.70
     Davidson diagonalization with overlap
     ethr =  3.28E-06,  avg # of iterations =  1.0

     negative rho (up, down):  2.697E-03 0.000E+00

     total cpu time spent up to now is      681.0 secs

     total energy              =    -786.94669641 Ry
     Harris-Foulkes estimate   =    -786.94741829 Ry
     estimated scf accuracy    <       0.01904972 Ry

     iteration # 12     ecut=    70.00 Ry     beta= 0.70
     Davidson diagonalization with overlap
     ethr =  3.28E-06,  avg # of iterations =  1.0

     negative rho (up, down):  2.692E-03 0.000E+00

     total cpu time spent up to now is      728.8 secs

     total energy              =    -786.94702180 Ry
     Harris-Foulkes estimate   =    -786.94701842 Ry
     estimated scf accuracy    <       0.00021008 Ry

     iteration # 13     ecut=    70.00 Ry     beta= 0.70
     Davidson diagonalization with overlap
     ethr =  9.91E-08,  avg # of iterations =  3.0

     negative rho (up, down):  2.691E-03 0.000E+00

     total cpu time spent up to now is      782.0 secs

     total energy              =    -786.94704729 Ry
     Harris-Foulkes estimate   =    -786.94707564 Ry
     estimated scf accuracy    <       0.00016290 Ry

     iteration # 14     ecut=    70.00 Ry     beta= 0.70
     Davidson diagonalization with overlap
     ethr =  7.68E-08,  avg # of iterations =  3.0

     negative rho (up, down):  2.696E-03 0.000E+00

     total cpu time spent up to now is      831.3 secs

     total energy              =    -786.94707149 Ry
     Harris-Foulkes estimate   =    -786.94706696 Ry
     estimated scf accuracy    <       0.00005360 Ry

     iteration # 15     ecut=    70.00 Ry     beta= 0.70
     Davidson diagonalization with overlap
     ethr =  2.53E-08,  avg # of iterations =  2.0

     negative rho (up, down):  2.698E-03 0.000E+00

     total cpu time spent up to now is      880.6 secs

     total energy              =    -786.94708644 Ry
     Harris-Foulkes estimate   =    -786.94707813 Ry
     estimated scf accuracy    <       0.00001491 Ry

     iteration # 16     ecut=    70.00 Ry     beta= 0.70
     Davidson diagonalization with overlap
     ethr =  7.03E-09,  avg # of iterations =  3.0

     negative rho (up, down):  2.697E-03 0.000E+00

     total cpu time spent up to now is      936.0 secs

     total energy              =    -786.94710099 Ry
     Harris-Foulkes estimate   =    -786.94709790 Ry
     estimated scf accuracy    <       0.00003925 Ry

     iteration # 17     ecut=    70.00 Ry     beta= 0.70
     Davidson diagonalization with overlap
     ethr =  7.03E-09,  avg # of iterations =  3.0

     negative rho (up, down):  2.698E-03 0.000E+00

     total cpu time spent up to now is      989.3 secs

     total energy              =    -786.94710902 Ry
     Harris-Foulkes estimate   =    -786.94710777 Ry
     estimated scf accuracy    <       0.00001122 Ry

     iteration # 18     ecut=    70.00 Ry     beta= 0.70
     Davidson diagonalization with overlap
     ethr =  5.29E-09,  avg # of iterations =  3.0

     negative rho (up, down):  2.701E-03 0.000E+00

     total cpu time spent up to now is     1043.3 secs

     total energy              =    -786.94711562 Ry
     Harris-Foulkes estimate   =    -786.94711809 Ry
     estimated scf accuracy    <       0.00000439 Ry

     iteration # 19     ecut=    70.00 Ry     beta= 0.70
     Davidson diagonalization with overlap
     ethr =  2.07E-09,  avg # of iterations =  4.0

     negative rho (up, down):  2.704E-03 0.000E+00

     total cpu time spent up to now is     1099.7 secs

     total energy              =    -786.94711902 Ry
     Harris-Foulkes estimate   =    -786.94712560 Ry
     estimated scf accuracy    <       0.00000429 Ry

     iteration # 20     ecut=    70.00 Ry     beta= 0.70
     Davidson diagonalization with overlap
     ethr =  2.02E-09,  avg # of iterations =  4.0

     negative rho (up, down):  2.712E-03 0.000E+00

     total cpu time spent up to now is     1156.1 secs

     End of self-consistent calculation

          k = 0.0000 0.0000 0.0000 ( 87777 PWs)   bands (ev):

   -71.8435 -44.1398 -44.1377 -43.0255 -19.6360 -18.7977 -18.7967 -18.7050
   -18.7046 -18.7039 -18.3330 -16.9504 -16.9497 -16.9448 -16.8394 -16.8386
   -16.5377 -16.0968 -16.0966 -15.9967 -15.9156 -15.9152 -15.2019 -13.9595
   -13.9593 -13.9166 -13.8663 -13.8661 -13.2031 -12.9412 -12.9407 -12.9116
   -12.5866 -12.5862 -12.1482 -11.7013 -11.7011 -11.5368 -11.2303 -11.2301
   -10.2642  -9.4810  -9.4810  -9.3222  -9.1886  -9.1883  -9.0958  -9.0644
    -9.0643  -9.0530  -8.5376  -8.5374  -7.9938  -7.9937  -7.8954  -7.7943
    -7.7062  -7.2859  -7.2856  -7.0814  -7.0324  -6.9791  -6.8308  -6.7040
    -6.7039  -6.6894  -6.6832  -6.6565  -6.5977  -6.4341  -6.4339  -6.4058
    -6.4009  -6.4006  -6.3525  -6.3513  -5.3949  -5.3927  -5.3249  -5.3246
    -5.0606  -5.0604  -4.8586  -4.7645  -4.6096  -4.5865  -4.5860  -4.2680
    -4.2525  -4.0377  -4.0375  -3.7203  -3.7202  -3.6389  -3.5412  -3.5411
    -3.4744  -3.4742  -3.0053  -2.4351  -2.4339  -1.7214  -1.6768  -1.6765
    -0.7187  -0.5404  -0.5404  -0.4901   1.0633   1.0835   1.0858   1.7754
     1.8685   1.8686   2.4332   2.9223   2.9245   2.9841   3.3915   3.4482
     3.5140   3.6402   3.6573   3.7056   3.7872   3.8007   3.8523

     occupation numbers 
     1.0000   1.0000   1.0000   1.0000   1.0000   1.0000   1.0000   1.0000
     1.0000   1.0000   1.0000   1.0000   1.0000   1.0000   1.0000   1.0000
     1.0000   1.0000   1.0000   1.0000   1.0000   1.0000   1.0000   1.0000
     1.0000   1.0000   1.0000   1.0000   1.0000   1.0000   1.0000   1.0000
     1.0000   1.0000   1.0000   1.0000   1.0000   1.0000   1.0000   1.0000
     1.0000   1.0000   1.0000   1.0000   1.0000   1.0000   1.0000   1.0000
     1.0000   1.0000   1.0000   1.0000   1.0000   1.0000   1.0000   1.0000
     1.0000   1.0000   1.0000   1.0000   1.0000   1.0000   1.0000   1.0000
     1.0000   1.0000   1.0000   1.0000   1.0000   1.0000   1.0000   1.0000
     1.0000   1.0000   1.0000   1.0000   1.0000   1.0000   1.0000   1.0000
     1.0000   1.0000   1.0000   1.0000   1.0000   1.0000   1.0000   1.0000
     1.0000   1.0000   1.0000   1.0000   1.0000   1.0000   1.0000   1.0000
     1.0000   1.0000   1.0000   1.0000   1.0000   1.0000   1.0000   1.0000
     1.0000   0.5019   0.4981   0.0000   0.0000   0.0000   0.0000   0.0000
     0.0000   0.0000   0.0000   0.0000   0.0000   0.0000   0.0000   0.0000
     0.0000   0.0000   0.0000   0.0000   0.0000   0.0000   0.0000

     the Fermi energy is    -0.5385 ev

!    total energy              =    -786.94712949 Ry
     Harris-Foulkes estimate   =    -786.94713057 Ry
     estimated scf accuracy    <       0.00000086 Ry

     The total energy is the sum of the following terms:

     one-electron contribution =   -2641.86861914 Ry
     hartree contribution      =    1366.58317007 Ry
     xc contribution           =    -254.33558044 Ry
     ewald contribution        =     742.67455638 Ry
     smearing contrib. (-TS)   =      -0.00065636 Ry

     convergence has been achieved in  20 iterations

     Writing output data file gr-12-sixhollow.save/

     init_run     :     51.33s CPU     52.45s WALL (       1 calls)
     electrons    :   1069.05s CPU   1102.64s WALL (       1 calls)

     Called by init_run:
     wfcinit      :     20.48s CPU     20.61s WALL (       1 calls)
     wfcinit:atom :      0.03s CPU      0.05s WALL (       1 calls)
     wfcinit:wfcr :     20.30s CPU     20.36s WALL (       1 calls)
     potinit      :     13.48s CPU     13.87s WALL (       1 calls)
     hinit0       :     12.78s CPU     12.82s WALL (       1 calls)

     Called by electrons:
     c_bands      :    666.79s CPU    670.77s WALL (      20 calls)
     sum_band     :    198.58s CPU    210.63s WALL (      20 calls)
     v_of_rho     :    125.38s CPU    132.71s WALL (      21 calls)
     v_h          :      1.44s CPU      1.47s WALL (      21 calls)
     v_xc         :    123.94s CPU    131.25s WALL (      21 calls)
     newd         :     82.15s CPU     93.14s WALL (      21 calls)
     mix_rho      :      3.77s CPU      3.84s WALL (      20 calls)

     Called by c_bands:
     init_us_2    :      1.71s CPU      1.74s WALL (      41 calls)
     cegterg      :    662.36s CPU    666.32s WALL (      20 calls)

     Called by sum_band:
     sum_band:bec :      0.02s CPU      0.02s WALL (      20 calls)
     addusdens    :    118.50s CPU    129.92s WALL (      20 calls)

     Called by *egterg:
     h_psi        :    346.98s CPU    349.76s WALL (      99 calls)
     s_psi        :    117.58s CPU    117.66s WALL (      99 calls)
     g_psi        :      0.39s CPU      0.39s WALL (      78 calls)
     cdiaghg      :      7.48s CPU      7.48s WALL (      98 calls)
     cegterg:over :     84.52s CPU     84.55s WALL (      78 calls)
     cegterg:upda :     55.03s CPU     55.34s WALL (      78 calls)
     cegterg:last :     33.96s CPU     33.97s WALL (      20 calls)

     Called by h_psi:
     h_psi:pot    :    346.51s CPU    348.89s WALL (      99 calls)
     h_psi:calbec :    117.65s CPU    117.70s WALL (      99 calls)
     vloc_psi     :    111.25s CPU    113.52s WALL (      99 calls)
     add_vuspsi   :    117.61s CPU    117.67s WALL (      99 calls)

     General routines
     calbec       :    164.60s CPU    164.67s WALL (     119 calls)
     fft          :     70.01s CPU     72.63s WALL (    1321 calls)
     ffts         :      0.72s CPU      0.75s WALL (      41 calls)
     fftw         :    116.40s CPU    118.89s WALL (   15284 calls)
     interpolate  :      1.75s CPU      1.79s WALL (      21 calls)

     Parallel routines
     fft_scatt_xy :     30.96s CPU     31.40s WALL (   16646 calls)
     fft_scatt_yz :     66.03s CPU     69.75s WALL (   16646 calls)

     PWSCF        :  18m41.55s CPU  19m16.51s WALL


   This run was terminated on:  10:32:19  20Jul2022            

=------------------------------------------------------------------------------=
   JOB DONE.
=------------------------------------------------------------------------------=
