
     Program PWSCF v.6.4.1 starts on 20Jul2022 at  9:28:18 

     This program is part of the open-source Quantum ESPRESSO suite
     for quantum simulation of materials; please cite
         "P. Giannozzi et al., J. Phys.:Condens. Matter 21 395502 (2009);
         "P. Giannozzi et al., J. Phys.:Condens. Matter 29 465901 (2017);
          URL http://www.quantum-espresso.org", 
     in publications or presentations arising from this work. More details at
     http://www.quantum-espresso.org/quote

     Parallel version (MPI), running on     6 processors

     MPI processes distributed on     1 nodes
     R & G space division:  proc/nbgrp/npool/nimage =       6
     Reading input from distance-4.0.in

     Current dimensions of program PWSCF are:
     Max number of different atomic species (ntypx) = 10
     Max number of k-points (npk) =  40000
     Max angular momentum in pseudopotentials (lmaxx) =  3

     IMPORTANT: XC functional enforced from input :
     Exchange-correlation      = RVV10 ( 1  4 13  4 3 0)
     Any further DFT definition will be discarded
     Please, verify this is what you really want

               file H.pbe-rrkjus.UPF: wavefunction(s)  1S renormalized
               file Cr.pbe-spn-rrkjus_psl.1.0.0.UPF: wavefunction(s)  3P renormalized

     Subspace diagonalization in iterative solution of the eigenvalue problem:
     a serial algorithm will be used


     Parallelization info
     --------------------
     sticks:   dense  smooth     PW     G-vecs:    dense   smooth      PW
     Min        3051    1746    432               270999   117096   14629
     Max        3053    1747    437               271001   117099   14630
     Sum       18313   10477   2611              1626001   702581   87777



     bravais-lattice index     =            4
     lattice parameter (alat)  =      23.2937  a.u.
     unit-cell volume          =    8879.8548 (a.u.)^3
     number of atoms/cell      =           52
     number of atomic types    =            3
     number of electrons       =       212.00
     number of Kohn-Sham states=          127
     kinetic-energy cutoff     =      70.0000  Ry
     charge density cutoff     =     490.0000  Ry
     convergence threshold     =      1.0E-06
     mixing beta               =       0.7000
     number of iterations used =            8  plain     mixing
     Exchange-correlation      = RVV10 ( 1  4 13  4 3 0)

     celldm(1)=  23.293684  celldm(2)=   0.000000  celldm(3)=   0.811261
     celldm(4)=   0.000000  celldm(5)=   0.000000  celldm(6)=   0.000000

     crystal axes: (cart. coord. in units of alat)
               a(1) = (   1.000000   0.000000   0.000000 )  
               a(2) = (  -0.500000   0.866025   0.000000 )  
               a(3) = (   0.000000   0.000000   0.811261 )  

     reciprocal axes: (cart. coord. in units 2 pi/alat)
               b(1) = (  1.000000  0.577350 -0.000000 )  
               b(2) = (  0.000000  1.154701  0.000000 )  
               b(3) = (  0.000000 -0.000000  1.232649 )  


     PseudoPot. # 1 for H  read from file:
     /home/cristian/Escritorio/Proyecto_Grafeno/pseudopotenciales/H.pbe-rrkjus.UPF
     MD5 check sum: 7cc9d459525c9a0585f487a71c3c9563
     Pseudo is Ultrasoft, Zval =  1.0
     Generated by new atomic code, or converted to UPF format
     Using radial grid of 1061 points,  2 beta functions with: 
                l(1) =   0
                l(2) =   0
     Q(r) pseudized with 0 coefficients 


     PseudoPot. # 2 for C  read from file:
     /home/cristian/Escritorio/Proyecto_Grafeno/pseudopotenciales/C.pbe-n-rrkjus_psl.1.0.0.UPF
     MD5 check sum: 1fdd950c42eb37d8afe3dd2f8d12311e
     Pseudo is Ultrasoft + core correction, Zval =  4.0
     Generated using "atomic" code by A. Dal Corso v.6.3MaX
     Using radial grid of 1073 points,  4 beta functions with: 
                l(1) =   0
                l(2) =   0
                l(3) =   1
                l(4) =   1
     Q(r) pseudized with 0 coefficients 


     PseudoPot. # 3 for Cr read from file:
     /home/cristian/Escritorio/Proyecto_Grafeno/pseudopotenciales/Cr.pbe-spn-rrkjus_psl.1.0.0.UPF
     MD5 check sum: 793d051e4f89dd1e3290b85340a92c0a
     Pseudo is Ultrasoft + core correction, Zval = 14.0
     Generated using "atomic" code by A. Dal Corso v.6.2.2
     Using radial grid of 1183 points,  6 beta functions with: 
                l(1) =   0
                l(2) =   0
                l(3) =   1
                l(4) =   1
                l(5) =   2
                l(6) =   2
     Q(r) pseudized with 0 coefficients 


     vdW kernel table read from file rVV10_kernel_table
     MD5 check sum: b8e2538accc0c0b3206b45ba4daaba6c

     atomic species   valence    mass     pseudopotential
        H              1.00     1.00794     H ( 1.00)
        C              4.00    12.01070     C ( 1.00)
        Cr            14.00    51.99610     Cr( 1.00)

      2 Sym. Ops. (no inversion) found


                                    s                        frac. trans.

      isym =  1     identity                                     

 cryst.   s( 1) = (     1          0          0      )
                  (     0          1          0      )
                  (     0          0          1      )

 cart.    s( 1) = (  1.0000000  0.0000000  0.0000000 )
                  (  0.0000000  1.0000000  0.0000000 )
                  (  0.0000000  0.0000000  1.0000000 )


      isym =  2     inv. 180 deg rotation - cryst. axis [1,1,0]  

 cryst.   s( 2) = (     0         -1          0      )
                  (    -1          0          0      )
                  (     0          0          1      )

 cart.    s( 2) = (  0.5000000 -0.8660254  0.0000000 )
                  ( -0.8660254 -0.5000000  0.0000000 )
                  (  0.0000000  0.0000000  1.0000000 )


     point group C_s (m)    
     there are  2 classes
     the character table:

       E     s    
A'     1.00  1.00
A''    1.00 -1.00

     the symmetry operations in each class and the name of the first element:

     E        1
          identity                                               
     s        2
          inv. 180 deg rotation - cryst. axis [1,1,0]            

   Cartesian axes

     site n.     atom                  positions (alat units)
         1           H   tau(   1) = (   0.3000000   0.4041452   0.3245045  )
         2           H   tau(   2) = (   0.3000000   0.4041452   0.3855171  )
         3           C   tau(   3) = (   0.0000000   0.0000000   0.0000000  )
         4           C   tau(   4) = (   0.0000000   0.1154701   0.0000000  )
         5           C   tau(   5) = (  -0.1000000   0.1732051   0.0000000  )
         6           C   tau(   6) = (  -0.1000000   0.2886751   0.0000000  )
         7           C   tau(   7) = (  -0.2000000   0.3464102   0.0000000  )
         8           C   tau(   8) = (  -0.2000000   0.4618802   0.0000000  )
         9           C   tau(   9) = (  -0.3000000   0.5196152   0.0000000  )
        10           C   tau(  10) = (  -0.3000000   0.6350853   0.0000000  )
        11           C   tau(  11) = (  -0.4000000   0.6928203   0.0000000  )
        12           C   tau(  12) = (  -0.4000000   0.8082904   0.0000000  )
        13           C   tau(  13) = (   0.2000000   0.0000000   0.0000000  )
        14           C   tau(  14) = (   0.2000000   0.1154701   0.0000000  )
        15           C   tau(  15) = (   0.1000000   0.1732051   0.0000000  )
        16           C   tau(  16) = (   0.1000000   0.2886751   0.0000000  )
        17           C   tau(  17) = (   0.0000000   0.3464102   0.0000000  )
        18           C   tau(  18) = (   0.0000000   0.4618802   0.0000000  )
        19           C   tau(  19) = (  -0.1000000   0.5196152   0.0000000  )
        20           C   tau(  20) = (  -0.1000000   0.6350853   0.0000000  )
        21           C   tau(  21) = (  -0.2000000   0.6928203   0.0000000  )
        22           C   tau(  22) = (  -0.2000000   0.8082904   0.0000000  )
        23           C   tau(  23) = (   0.4000000   0.0000000   0.0000000  )
        24           C   tau(  24) = (   0.4000000   0.1154701   0.0000000  )
        25           C   tau(  25) = (   0.3000000   0.1732051   0.0000000  )
        26           C   tau(  26) = (   0.3000000   0.2886751   0.0000000  )
        27           C   tau(  27) = (   0.2000000   0.3464102   0.0000000  )
        28           Cr  tau(  28) = (   0.2000000   0.4618802   0.0000000  )
        29           C   tau(  29) = (   0.1000000   0.5196152   0.0000000  )
        30           C   tau(  30) = (   0.1000000   0.6350853   0.0000000  )
        31           C   tau(  31) = (   0.0000000   0.6928203   0.0000000  )
        32           C   tau(  32) = (   0.0000000   0.8082904   0.0000000  )
        33           C   tau(  33) = (   0.6000000   0.0000000   0.0000000  )
        34           C   tau(  34) = (   0.6000000   0.1154701   0.0000000  )
        35           C   tau(  35) = (   0.5000000   0.1732051   0.0000000  )
        36           C   tau(  36) = (   0.5000000   0.2886751   0.0000000  )
        37           C   tau(  37) = (   0.4000000   0.3464102   0.0000000  )
        38           C   tau(  38) = (   0.4000000   0.4618802   0.0000000  )
        39           C   tau(  39) = (   0.3000000   0.5196152   0.0000000  )
        40           C   tau(  40) = (   0.3000000   0.6350853   0.0000000  )
        41           C   tau(  41) = (   0.2000000   0.6928203   0.0000000  )
        42           C   tau(  42) = (   0.2000000   0.8082904   0.0000000  )
        43           C   tau(  43) = (   0.8000000   0.0000000   0.0000000  )
        44           C   tau(  44) = (   0.8000000   0.1154701   0.0000000  )
        45           C   tau(  45) = (   0.7000000   0.1732051   0.0000000  )
        46           C   tau(  46) = (   0.7000000   0.2886751   0.0000000  )
        47           C   tau(  47) = (   0.6000000   0.3464102   0.0000000  )
        48           C   tau(  48) = (   0.6000000   0.4618802   0.0000000  )
        49           C   tau(  49) = (   0.5000000   0.5196152   0.0000000  )
        50           C   tau(  50) = (   0.5000000   0.6350853   0.0000000  )
        51           C   tau(  51) = (   0.4000000   0.6928203   0.0000000  )
        52           C   tau(  52) = (   0.4000000   0.8082904   0.0000000  )

   Crystallographic axes

     site n.     atom                  positions (cryst. coord.)
         1           H   tau(   1) = (  0.5333333  0.4666667  0.4000000  )
         2           H   tau(   2) = (  0.5333333  0.4666667  0.4752072  )
         3           C   tau(   3) = (  0.0000000  0.0000000  0.0000000  )
         4           C   tau(   4) = (  0.0666667  0.1333333  0.0000000  )
         5           C   tau(   5) = (  0.0000000  0.2000000  0.0000000  )
         6           C   tau(   6) = (  0.0666667  0.3333333  0.0000000  )
         7           C   tau(   7) = (  0.0000000  0.4000000  0.0000000  )
         8           C   tau(   8) = (  0.0666667  0.5333333  0.0000000  )
         9           C   tau(   9) = (  0.0000000  0.6000000  0.0000000  )
        10           C   tau(  10) = (  0.0666667  0.7333333  0.0000000  )
        11           C   tau(  11) = (  0.0000000  0.8000000  0.0000000  )
        12           C   tau(  12) = (  0.0666667  0.9333333  0.0000000  )
        13           C   tau(  13) = (  0.2000000  0.0000000  0.0000000  )
        14           C   tau(  14) = (  0.2666667  0.1333333  0.0000000  )
        15           C   tau(  15) = (  0.2000000  0.2000000  0.0000000  )
        16           C   tau(  16) = (  0.2666667  0.3333333  0.0000000  )
        17           C   tau(  17) = (  0.2000000  0.4000000  0.0000000  )
        18           C   tau(  18) = (  0.2666667  0.5333333  0.0000000  )
        19           C   tau(  19) = (  0.2000000  0.6000000  0.0000000  )
        20           C   tau(  20) = (  0.2666667  0.7333333  0.0000000  )
        21           C   tau(  21) = (  0.2000000  0.8000000  0.0000000  )
        22           C   tau(  22) = (  0.2666667  0.9333333  0.0000000  )
        23           C   tau(  23) = (  0.4000000  0.0000000  0.0000000  )
        24           C   tau(  24) = (  0.4666667  0.1333333  0.0000000  )
        25           C   tau(  25) = (  0.4000000  0.2000000  0.0000000  )
        26           C   tau(  26) = (  0.4666667  0.3333333  0.0000000  )
        27           C   tau(  27) = (  0.4000000  0.4000000  0.0000000  )
        28           Cr  tau(  28) = (  0.4666667  0.5333333  0.0000000  )
        29           C   tau(  29) = (  0.4000000  0.6000000  0.0000000  )
        30           C   tau(  30) = (  0.4666667  0.7333333  0.0000000  )
        31           C   tau(  31) = (  0.4000000  0.8000000  0.0000000  )
        32           C   tau(  32) = (  0.4666667  0.9333333  0.0000000  )
        33           C   tau(  33) = (  0.6000000  0.0000000  0.0000000  )
        34           C   tau(  34) = (  0.6666667  0.1333333  0.0000000  )
        35           C   tau(  35) = (  0.6000000  0.2000000  0.0000000  )
        36           C   tau(  36) = (  0.6666667  0.3333333  0.0000000  )
        37           C   tau(  37) = (  0.6000000  0.4000000  0.0000000  )
        38           C   tau(  38) = (  0.6666667  0.5333333  0.0000000  )
        39           C   tau(  39) = (  0.6000000  0.6000000  0.0000000  )
        40           C   tau(  40) = (  0.6666667  0.7333333  0.0000000  )
        41           C   tau(  41) = (  0.6000000  0.8000000  0.0000000  )
        42           C   tau(  42) = (  0.6666667  0.9333333  0.0000000  )
        43           C   tau(  43) = (  0.8000000  0.0000000  0.0000000  )
        44           C   tau(  44) = (  0.8666667  0.1333333  0.0000000  )
        45           C   tau(  45) = (  0.8000000  0.2000000  0.0000000  )
        46           C   tau(  46) = (  0.8666667  0.3333333  0.0000000  )
        47           C   tau(  47) = (  0.8000000  0.4000000  0.0000000  )
        48           C   tau(  48) = (  0.8666667  0.5333333  0.0000000  )
        49           C   tau(  49) = (  0.8000000  0.6000000  0.0000000  )
        50           C   tau(  50) = (  0.8666667  0.7333333  0.0000000  )
        51           C   tau(  51) = (  0.8000000  0.8000000  0.0000000  )
        52           C   tau(  52) = (  0.8666667  0.9333333  0.0000000  )

     number of k points=     1  Marzari-Vanderbilt smearing, width (Ry)=  0.0010
                       cart. coord. in units 2pi/alat
        k(    1) = (   0.0000000   0.0000000   0.0000000), wk =   2.0000000

                       cryst. coord.
        k(    1) = (   0.0000000   0.0000000   0.0000000), wk =   2.0000000

     Dense  grid:  1626001 G-vectors     FFT dimensions: ( 180, 180, 135)

     Smooth grid:   702581 G-vectors     FFT dimensions: ( 125, 125, 108)

     Dynamical RAM for                 wfc:      28.36 MB

     Dynamical RAM for     wfc (w. buffer):      28.36 MB

     Dynamical RAM for           str. fact:      12.41 MB

     Dynamical RAM for           local pot:       0.00 MB

     Dynamical RAM for          nlocal pot:      92.46 MB

     Dynamical RAM for                qrad:      19.73 MB

     Dynamical RAM for          rho,v,vnew:      29.46 MB

     Dynamical RAM for               rhoin:       9.82 MB

     Dynamical RAM for            rho*nmix:      66.16 MB

     Dynamical RAM for           G-vectors:      16.40 MB

     Dynamical RAM for          h,s,v(r/c):      11.81 MB

     Dynamical RAM for          <psi|beta>:       0.80 MB

     Dynamical RAM for                 psi:     113.46 MB

     Dynamical RAM for                hpsi:     113.46 MB

     Dynamical RAM for                spsi:     113.46 MB

     Dynamical RAM for      wfcinit/wfcrot:      93.90 MB

     Dynamical RAM for           addusdens:     971.75 MB

     Estimated static dynamical RAM per process >     319.78 MB

     Estimated max dynamical RAM per process >       1.26 GB

     Estimated total dynamical RAM >       7.57 GB

     Check: negative core charge=   -0.000002

     Initial potential from superposition of free atoms

     starting charge  211.80478, renormalised to  212.00000

     negative rho (up, down):  4.431E-04 0.000E+00


---------------------------------------------------------------------------------
Carrying out rVV10 run using the following parameters:
Nqs =      20    Nr_points =    1024   r_max =   100.000
b_value =  6.30000    beta =  0.00901
     q_mesh =  0.00010000  0.00030000  0.00058939  0.00100810
               0.00161396  0.00249058  0.00375900  0.00559430
               0.00824984  0.01209221  0.01765183  0.02569619
               0.03733578  0.05417739  0.07854596  0.11380545
               0.16482331  0.23864234  0.34545298  0.50000000

Gradients computed in Reciprocal space

---------------------------------------------------------------------------------


     Starting wfcs are  208 randomized atomic wfcs

     total cpu time spent up to now is       53.6 secs

     Self-consistent Calculation

     iteration #  1     ecut=    70.00 Ry     beta= 0.70
     Davidson diagonalization with overlap
     ethr =  1.00E-02,  avg # of iterations =  2.0

     negative rho (up, down):  7.251E-04 0.000E+00

     total cpu time spent up to now is      118.3 secs

     total energy              =    -785.44507616 Ry
     Harris-Foulkes estimate   =    -789.92714745 Ry
     estimated scf accuracy    <       7.09334196 Ry

     iteration #  2     ecut=    70.00 Ry     beta= 0.70
     Davidson diagonalization with overlap
     ethr =  3.35E-03,  avg # of iterations =  7.0

     negative rho (up, down):  8.462E-04 0.000E+00

     total cpu time spent up to now is      184.7 secs

     total energy              =    -779.69005505 Ry
     Harris-Foulkes estimate   =    -788.39307080 Ry
     estimated scf accuracy    <      25.70623639 Ry

     iteration #  3     ecut=    70.00 Ry     beta= 0.70
     Davidson diagonalization with overlap
     ethr =  3.35E-03,  avg # of iterations =  4.0

     negative rho (up, down):  1.119E-03 0.000E+00

     total cpu time spent up to now is      262.2 secs

     total energy              =    -784.20211190 Ry
     Harris-Foulkes estimate   =    -790.64812509 Ry
     estimated scf accuracy    <      38.93480413 Ry

     iteration #  4     ecut=    70.00 Ry     beta= 0.70
     Davidson diagonalization with overlap
     ethr =  3.35E-03,  avg # of iterations =  4.0

     negative rho (up, down):  1.083E-03 0.000E+00

     total cpu time spent up to now is      314.2 secs

     total energy              =    -786.70185197 Ry
     Harris-Foulkes estimate   =    -787.34909853 Ry
     estimated scf accuracy    <       1.93424718 Ry

     iteration #  5     ecut=    70.00 Ry     beta= 0.70
     Davidson diagonalization with overlap
     ethr =  9.12E-04,  avg # of iterations =  3.0

     negative rho (up, down):  1.170E-03 0.000E+00

     total cpu time spent up to now is      366.2 secs

     total energy              =    -786.92608770 Ry
     Harris-Foulkes estimate   =    -787.02724612 Ry
     estimated scf accuracy    <       1.13125829 Ry

     iteration #  6     ecut=    70.00 Ry     beta= 0.70
     Davidson diagonalization with overlap
     ethr =  5.34E-04,  avg # of iterations =  1.0

     negative rho (up, down):  1.267E-03 0.000E+00

     total cpu time spent up to now is      414.2 secs

     total energy              =    -786.94389012 Ry
     Harris-Foulkes estimate   =    -786.97406455 Ry
     estimated scf accuracy    <       0.10635296 Ry

     iteration #  7     ecut=    70.00 Ry     beta= 0.70
     Davidson diagonalization with overlap
     ethr =  5.02E-05,  avg # of iterations =  9.0

     negative rho (up, down):  1.510E-03 0.000E+00

     total cpu time spent up to now is      469.2 secs

     total energy              =    -786.93509136 Ry
     Harris-Foulkes estimate   =    -786.96243510 Ry
     estimated scf accuracy    <       0.23679111 Ry

     iteration #  8     ecut=    70.00 Ry     beta= 0.70
     Davidson diagonalization with overlap
     ethr =  5.02E-05,  avg # of iterations =  3.0

     negative rho (up, down):  1.809E-03 0.000E+00

     total cpu time spent up to now is      518.2 secs

     total energy              =    -786.94244595 Ry
     Harris-Foulkes estimate   =    -786.95641960 Ry
     estimated scf accuracy    <       0.08947345 Ry

     iteration #  9     ecut=    70.00 Ry     beta= 0.70
     Davidson diagonalization with overlap
     ethr =  4.22E-05,  avg # of iterations =  1.0

     negative rho (up, down):  2.280E-03 0.000E+00

     total cpu time spent up to now is      566.2 secs

     total energy              =    -786.93888780 Ry
     Harris-Foulkes estimate   =    -786.94970704 Ry
     estimated scf accuracy    <       0.06529933 Ry

     iteration # 10     ecut=    70.00 Ry     beta= 0.70
     Davidson diagonalization with overlap
     ethr =  3.08E-05,  avg # of iterations =  4.0

     negative rho (up, down):  2.504E-03 0.000E+00

     total cpu time spent up to now is      614.9 secs

     total energy              =    -786.94545401 Ry
     Harris-Foulkes estimate   =    -786.94913077 Ry
     estimated scf accuracy    <       0.06331358 Ry

     iteration # 11     ecut=    70.00 Ry     beta= 0.70
     Davidson diagonalization with overlap
     ethr =  2.99E-05,  avg # of iterations =  1.0

     negative rho (up, down):  2.539E-03 0.000E+00

     total cpu time spent up to now is      662.9 secs

     total energy              =    -786.94401991 Ry
     Harris-Foulkes estimate   =    -786.94634731 Ry
     estimated scf accuracy    <       0.05345203 Ry

     iteration # 12     ecut=    70.00 Ry     beta= 0.70
     Davidson diagonalization with overlap
     ethr =  2.52E-05,  avg # of iterations =  1.0

     negative rho (up, down):  2.534E-03 0.000E+00

     total cpu time spent up to now is      710.9 secs

     total energy              =    -786.94470251 Ry
     Harris-Foulkes estimate   =    -786.94486443 Ry
     estimated scf accuracy    <       0.00348821 Ry

     iteration # 13     ecut=    70.00 Ry     beta= 0.70
     Davidson diagonalization with overlap
     ethr =  1.65E-06,  avg # of iterations =  9.0

     negative rho (up, down):  2.519E-03 0.000E+00

     total cpu time spent up to now is      761.7 secs

     total energy              =    -786.94465711 Ry
     Harris-Foulkes estimate   =    -786.94477983 Ry
     estimated scf accuracy    <       0.00318111 Ry

     iteration # 14     ecut=    70.00 Ry     beta= 0.70
     Davidson diagonalization with overlap
     ethr =  1.50E-06,  avg # of iterations =  1.0

     negative rho (up, down):  2.520E-03 0.000E+00

     total cpu time spent up to now is      809.8 secs

     total energy              =    -786.94464849 Ry
     Harris-Foulkes estimate   =    -786.94469438 Ry
     estimated scf accuracy    <       0.00197753 Ry

     iteration # 15     ecut=    70.00 Ry     beta= 0.70
     Davidson diagonalization with overlap
     ethr =  9.33E-07,  avg # of iterations =  1.0

     negative rho (up, down):  2.469E-03 0.000E+00

     total cpu time spent up to now is      857.9 secs

     total energy              =    -786.94421888 Ry
     Harris-Foulkes estimate   =    -786.94474887 Ry
     estimated scf accuracy    <       0.00547771 Ry

     iteration # 16     ecut=    70.00 Ry     beta= 0.70
     Davidson diagonalization with overlap
     ethr =  9.33E-07,  avg # of iterations = 17.0

     negative rho (up, down):  2.501E-03 0.000E+00

     total cpu time spent up to now is      911.5 secs

     total energy              =    -786.94435059 Ry
     Harris-Foulkes estimate   =    -786.94451549 Ry
     estimated scf accuracy    <       0.00185695 Ry

     iteration # 17     ecut=    70.00 Ry     beta= 0.70
     Davidson diagonalization with overlap
     ethr =  8.76E-07,  avg # of iterations =  3.0

     negative rho (up, down):  2.518E-03 0.000E+00

     total cpu time spent up to now is      960.9 secs

     total energy              =    -786.94433855 Ry
     Harris-Foulkes estimate   =    -786.94449945 Ry
     estimated scf accuracy    <       0.00235810 Ry

     iteration # 18     ecut=    70.00 Ry     beta= 0.70
     Davidson diagonalization with overlap
     ethr =  8.76E-07,  avg # of iterations =  1.0

     negative rho (up, down):  2.519E-03 0.000E+00

     total cpu time spent up to now is     1008.9 secs

     total energy              =    -786.94441352 Ry
     Harris-Foulkes estimate   =    -786.94442817 Ry
     estimated scf accuracy    <       0.00024584 Ry

     iteration # 19     ecut=    70.00 Ry     beta= 0.70
     Davidson diagonalization with overlap
     ethr =  1.16E-07,  avg # of iterations =  3.0

     negative rho (up, down):  2.520E-03 0.000E+00

     total cpu time spent up to now is     1057.9 secs

     total energy              =    -786.94442477 Ry
     Harris-Foulkes estimate   =    -786.94443237 Ry
     estimated scf accuracy    <       0.00011466 Ry

     iteration # 20     ecut=    70.00 Ry     beta= 0.70
     Davidson diagonalization with overlap
     ethr =  5.41E-08,  avg # of iterations =  2.0

     negative rho (up, down):  2.522E-03 0.000E+00

     total cpu time spent up to now is     1106.1 secs

     total energy              =    -786.94443079 Ry
     Harris-Foulkes estimate   =    -786.94443075 Ry
     estimated scf accuracy    <       0.00000641 Ry

     iteration # 21     ecut=    70.00 Ry     beta= 0.70
     Davidson diagonalization with overlap
     ethr =  3.02E-09,  avg # of iterations =  4.0

     negative rho (up, down):  2.523E-03 0.000E+00

     total cpu time spent up to now is     1157.7 secs

     total energy              =    -786.94443249 Ry
     Harris-Foulkes estimate   =    -786.94443182 Ry
     estimated scf accuracy    <       0.00000909 Ry

     iteration # 22     ecut=    70.00 Ry     beta= 0.70
     Davidson diagonalization with overlap
     ethr =  3.02E-09,  avg # of iterations =  2.0

     negative rho (up, down):  2.523E-03 0.000E+00

     total cpu time spent up to now is     1207.3 secs

     total energy              =    -786.94443416 Ry
     Harris-Foulkes estimate   =    -786.94443302 Ry
     estimated scf accuracy    <       0.00000192 Ry

     iteration # 23     ecut=    70.00 Ry     beta= 0.70
     Davidson diagonalization with overlap
     ethr =  9.08E-10,  avg # of iterations =  4.0

     negative rho (up, down):  2.525E-03 0.000E+00

     total cpu time spent up to now is     1262.1 secs

     total energy              =    -786.94443675 Ry
     Harris-Foulkes estimate   =    -786.94443605 Ry
     estimated scf accuracy    <       0.00000441 Ry

     iteration # 24     ecut=    70.00 Ry     beta= 0.70
     Davidson diagonalization with overlap
     ethr =  9.08E-10,  avg # of iterations =  3.0

     negative rho (up, down):  2.526E-03 0.000E+00

     total cpu time spent up to now is     1315.7 secs

     total energy              =    -786.94443616 Ry
     Harris-Foulkes estimate   =    -786.94443798 Ry
     estimated scf accuracy    <       0.00000104 Ry

     iteration # 25     ecut=    70.00 Ry     beta= 0.70
     Davidson diagonalization with overlap
     ethr =  4.92E-10,  avg # of iterations =  4.0

     negative rho (up, down):  2.528E-03 0.000E+00

     total cpu time spent up to now is     1375.5 secs

     total energy              =    -786.94443431 Ry
     Harris-Foulkes estimate   =    -786.94444145 Ry
     estimated scf accuracy    <       0.00000116 Ry

     iteration # 26     ecut=    70.00 Ry     beta= 0.70
     Davidson diagonalization with overlap
     ethr =  4.92E-10,  avg # of iterations =  4.0

     negative rho (up, down):  2.533E-03 0.000E+00

     total cpu time spent up to now is     1436.2 secs

     End of self-consistent calculation

          k = 0.0000 0.0000 0.0000 ( 87777 PWs)   bands (ev):

   -71.8523 -44.1458 -44.1445 -43.0351 -19.6381 -18.7999 -18.7995 -18.7068
   -18.7065 -18.7054 -18.3355 -16.9524 -16.9520 -16.9470 -16.8414 -16.8410
   -16.5394 -16.0990 -16.0989 -15.9985 -15.9177 -15.9175 -15.2043 -13.9622
   -13.9621 -13.9190 -13.8681 -13.8679 -13.2048 -12.9431 -12.9430 -12.9137
   -12.5886 -12.5884 -12.1505 -11.7035 -11.7034 -11.5388 -11.2326 -11.2326
   -10.2664  -9.4836  -9.4835  -9.3250  -9.1909  -9.1907  -9.0977  -9.0661
    -9.0661  -9.0547  -8.5398  -8.5398  -7.9959  -7.9959  -7.8977  -7.7911
    -7.7084  -7.2877  -7.2877  -7.0374  -7.0357  -6.9809  -6.7063  -6.7061
    -6.7024  -6.6913  -6.6867  -6.6660  -6.6002  -6.4362  -6.4361  -6.4075
    -6.4027  -6.4025  -6.3883  -6.3541  -5.3980  -5.3979  -5.3271  -5.3270
    -5.0628  -5.0626  -4.8609  -4.7664  -4.6118  -4.5890  -4.5882  -4.2730
    -4.2556  -4.0395  -4.0393  -3.7227  -3.7223  -3.6407  -3.5440  -3.5440
    -3.4798  -3.4798  -3.0078  -2.4373  -2.4367  -1.7235  -1.6786  -1.6782
    -0.7187  -0.5434  -0.5433  -0.5025   1.0615   1.0831   1.0839   1.7744
     1.8665   1.8666   2.4517   2.9217   2.9225   2.9833   3.4036   3.4206
     3.4561   3.6428   3.6595   3.7063   3.7921   3.7989   3.8341

     occupation numbers 
     1.0000   1.0000   1.0000   1.0000   1.0000   1.0000   1.0000   1.0000
     1.0000   1.0000   1.0000   1.0000   1.0000   1.0000   1.0000   1.0000
     1.0000   1.0000   1.0000   1.0000   1.0000   1.0000   1.0000   1.0000
     1.0000   1.0000   1.0000   1.0000   1.0000   1.0000   1.0000   1.0000
     1.0000   1.0000   1.0000   1.0000   1.0000   1.0000   1.0000   1.0000
     1.0000   1.0000   1.0000   1.0000   1.0000   1.0000   1.0000   1.0000
     1.0000   1.0000   1.0000   1.0000   1.0000   1.0000   1.0000   1.0000
     1.0000   1.0000   1.0000   1.0000   1.0000   1.0000   1.0000   1.0000
     1.0000   1.0000   1.0000   1.0000   1.0000   1.0000   1.0000   1.0000
     1.0000   1.0000   1.0000   1.0000   1.0000   1.0000   1.0000   1.0000
     1.0000   1.0000   1.0000   1.0000   1.0000   1.0000   1.0000   1.0000
     1.0000   1.0000   1.0000   1.0000   1.0000   1.0000   1.0000   1.0000
     1.0000   1.0000   1.0000   1.0000   1.0000   1.0000   1.0000   1.0000
     1.0000   0.5016   0.4984   0.0000   0.0000   0.0000   0.0000   0.0000
     0.0000   0.0000   0.0000   0.0000   0.0000   0.0000   0.0000   0.0000
     0.0000   0.0000   0.0000   0.0000   0.0000   0.0000   0.0000

     the Fermi energy is    -0.5415 ev

!    total energy              =    -786.94444428 Ry
     Harris-Foulkes estimate   =    -786.94444469 Ry
     estimated scf accuracy    <       0.00000022 Ry

     The total energy is the sum of the following terms:

     one-electron contribution =   -2631.34337692 Ry
     hartree contribution      =    1361.31473355 Ry
     xc contribution           =    -254.33457310 Ry
     ewald contribution        =     737.41942855 Ry
     smearing contrib. (-TS)   =      -0.00065637 Ry

     convergence has been achieved in  26 iterations

     Writing output data file gr-12-sixhollow.save/

     init_run     :     51.26s CPU     52.49s WALL (       1 calls)
     electrons    :   1341.20s CPU   1382.77s WALL (       1 calls)

     Called by init_run:
     wfcinit      :     20.46s CPU     20.61s WALL (       1 calls)
     wfcinit:atom :      0.03s CPU      0.05s WALL (       1 calls)
     wfcinit:wfcr :     20.27s CPU     20.36s WALL (       1 calls)
     potinit      :     13.51s CPU     13.99s WALL (       1 calls)
     hinit0       :     12.70s CPU     12.75s WALL (       1 calls)

     Called by electrons:
     c_bands      :    813.93s CPU    819.05s WALL (      26 calls)
     sum_band     :    259.38s CPU    273.62s WALL (      26 calls)
     v_of_rho     :    162.97s CPU    172.57s WALL (      27 calls)
     v_h          :      1.82s CPU      1.91s WALL (      27 calls)
     v_xc         :    161.14s CPU    170.67s WALL (      27 calls)
     newd         :    106.74s CPU    120.11s WALL (      27 calls)
     mix_rho      :      5.14s CPU      5.23s WALL (      26 calls)

     Called by c_bands:
     init_us_2    :      2.23s CPU      2.29s WALL (      53 calls)
     cegterg      :    807.77s CPU    812.86s WALL (      26 calls)

     Called by sum_band:
     sum_band:bec :      0.02s CPU      0.02s WALL (      26 calls)
     addusdens    :    159.39s CPU    172.77s WALL (      26 calls)

     Called by *egterg:
     h_psi        :    426.51s CPU    429.85s WALL (     125 calls)
     s_psi        :    143.59s CPU    143.74s WALL (     125 calls)
     g_psi        :      0.45s CPU      0.45s WALL (      98 calls)
     cdiaghg      :      8.50s CPU      8.50s WALL (     124 calls)
     cegterg:over :     99.70s CPU     99.80s WALL (      98 calls)
     cegterg:upda :     60.83s CPU     61.27s WALL (      98 calls)
     cegterg:last :     41.65s CPU     41.69s WALL (      26 calls)

     Called by h_psi:
     h_psi:pot    :    425.99s CPU    428.81s WALL (     125 calls)
     h_psi:calbec :    144.15s CPU    144.31s WALL (     125 calls)
     vloc_psi     :    138.24s CPU    140.76s WALL (     125 calls)
     add_vuspsi   :    143.60s CPU    143.74s WALL (     125 calls)

     General routines
     calbec       :    205.32s CPU    205.56s WALL (     151 calls)
     fft          :     89.76s CPU     93.31s WALL (    1699 calls)
     ffts         :      0.90s CPU      0.92s WALL (      53 calls)
     fftw         :    146.36s CPU    149.17s WALL (   18892 calls)
     interpolate  :      2.22s CPU      2.28s WALL (      27 calls)

     Parallel routines
     fft_scatt_xy :     41.27s CPU     41.84s WALL (   20644 calls)
     fft_scatt_yz :     79.78s CPU     84.25s WALL (   20644 calls)

     PWSCF        :  23m13.66s CPU  23m56.72s WALL


   This run was terminated on:   9:52:14  20Jul2022            

=------------------------------------------------------------------------------=
   JOB DONE.
=------------------------------------------------------------------------------=
