
     Program PWSCF v.6.4.1 starts on 20Jul2022 at 11:13: 1 

     This program is part of the open-source Quantum ESPRESSO suite
     for quantum simulation of materials; please cite
         "P. Giannozzi et al., J. Phys.:Condens. Matter 21 395502 (2009);
         "P. Giannozzi et al., J. Phys.:Condens. Matter 29 465901 (2017);
          URL http://www.quantum-espresso.org", 
     in publications or presentations arising from this work. More details at
     http://www.quantum-espresso.org/quote

     Parallel version (MPI), running on     6 processors

     MPI processes distributed on     1 nodes
     R & G space division:  proc/nbgrp/npool/nimage =       6
     Reading input from distance-2.4.in

     Current dimensions of program PWSCF are:
     Max number of different atomic species (ntypx) = 10
     Max number of k-points (npk) =  40000
     Max angular momentum in pseudopotentials (lmaxx) =  3

     IMPORTANT: XC functional enforced from input :
     Exchange-correlation      = RVV10 ( 1  4 13  4 3 0)
     Any further DFT definition will be discarded
     Please, verify this is what you really want

               file H.pbe-rrkjus.UPF: wavefunction(s)  1S renormalized
               file Cr.pbe-spn-rrkjus_psl.1.0.0.UPF: wavefunction(s)  3P renormalized

     Subspace diagonalization in iterative solution of the eigenvalue problem:
     a serial algorithm will be used


     Parallelization info
     --------------------
     sticks:   dense  smooth     PW     G-vecs:    dense   smooth      PW
     Min        3051    1746    432               270999   117096   14629
     Max        3053    1747    437               271001   117099   14630
     Sum       18313   10477   2611              1626001   702581   87777



     bravais-lattice index     =            4
     lattice parameter (alat)  =      23.2937  a.u.
     unit-cell volume          =    8879.8548 (a.u.)^3
     number of atoms/cell      =           52
     number of atomic types    =            3
     number of electrons       =       212.00
     number of Kohn-Sham states=          127
     kinetic-energy cutoff     =      70.0000  Ry
     charge density cutoff     =     490.0000  Ry
     convergence threshold     =      1.0E-06
     mixing beta               =       0.7000
     number of iterations used =            8  plain     mixing
     Exchange-correlation      = RVV10 ( 1  4 13  4 3 0)

     celldm(1)=  23.293684  celldm(2)=   0.000000  celldm(3)=   0.811261
     celldm(4)=   0.000000  celldm(5)=   0.000000  celldm(6)=   0.000000

     crystal axes: (cart. coord. in units of alat)
               a(1) = (   1.000000   0.000000   0.000000 )  
               a(2) = (  -0.500000   0.866025   0.000000 )  
               a(3) = (   0.000000   0.000000   0.811261 )  

     reciprocal axes: (cart. coord. in units 2 pi/alat)
               b(1) = (  1.000000  0.577350 -0.000000 )  
               b(2) = (  0.000000  1.154701  0.000000 )  
               b(3) = (  0.000000 -0.000000  1.232649 )  


     PseudoPot. # 1 for H  read from file:
     /home/cristian/Escritorio/Proyecto_Grafeno/pseudopotenciales/H.pbe-rrkjus.UPF
     MD5 check sum: 7cc9d459525c9a0585f487a71c3c9563
     Pseudo is Ultrasoft, Zval =  1.0
     Generated by new atomic code, or converted to UPF format
     Using radial grid of 1061 points,  2 beta functions with: 
                l(1) =   0
                l(2) =   0
     Q(r) pseudized with 0 coefficients 


     PseudoPot. # 2 for C  read from file:
     /home/cristian/Escritorio/Proyecto_Grafeno/pseudopotenciales/C.pbe-n-rrkjus_psl.1.0.0.UPF
     MD5 check sum: 1fdd950c42eb37d8afe3dd2f8d12311e
     Pseudo is Ultrasoft + core correction, Zval =  4.0
     Generated using "atomic" code by A. Dal Corso v.6.3MaX
     Using radial grid of 1073 points,  4 beta functions with: 
                l(1) =   0
                l(2) =   0
                l(3) =   1
                l(4) =   1
     Q(r) pseudized with 0 coefficients 


     PseudoPot. # 3 for Cr read from file:
     /home/cristian/Escritorio/Proyecto_Grafeno/pseudopotenciales/Cr.pbe-spn-rrkjus_psl.1.0.0.UPF
     MD5 check sum: 793d051e4f89dd1e3290b85340a92c0a
     Pseudo is Ultrasoft + core correction, Zval = 14.0
     Generated using "atomic" code by A. Dal Corso v.6.2.2
     Using radial grid of 1183 points,  6 beta functions with: 
                l(1) =   0
                l(2) =   0
                l(3) =   1
                l(4) =   1
                l(5) =   2
                l(6) =   2
     Q(r) pseudized with 0 coefficients 


     vdW kernel table read from file rVV10_kernel_table
     MD5 check sum: b8e2538accc0c0b3206b45ba4daaba6c

     atomic species   valence    mass     pseudopotential
        H              1.00     1.00794     H ( 1.00)
        C              4.00    12.01070     C ( 1.00)
        Cr            14.00    51.99610     Cr( 1.00)

      2 Sym. Ops. (no inversion) found


                                    s                        frac. trans.

      isym =  1     identity                                     

 cryst.   s( 1) = (     1          0          0      )
                  (     0          1          0      )
                  (     0          0          1      )

 cart.    s( 1) = (  1.0000000  0.0000000  0.0000000 )
                  (  0.0000000  1.0000000  0.0000000 )
                  (  0.0000000  0.0000000  1.0000000 )


      isym =  2     inv. 180 deg rotation - cryst. axis [1,1,0]  

 cryst.   s( 2) = (     0         -1          0      )
                  (    -1          0          0      )
                  (     0          0          1      )

 cart.    s( 2) = (  0.5000000 -0.8660254  0.0000000 )
                  ( -0.8660254 -0.5000000  0.0000000 )
                  (  0.0000000  0.0000000  1.0000000 )


     point group C_s (m)    
     there are  2 classes
     the character table:

       E     s    
A'     1.00  1.00
A''    1.00 -1.00

     the symmetry operations in each class and the name of the first element:

     E        1
          identity                                               
     s        2
          inv. 180 deg rotation - cryst. axis [1,1,0]            

   Cartesian axes

     site n.     atom                  positions (alat units)
         1           H   tau(   1) = (   0.3000000   0.4041452   0.1947027  )
         2           H   tau(   2) = (   0.3000000   0.4041452   0.2557154  )
         3           C   tau(   3) = (   0.0000000   0.0000000   0.0000000  )
         4           C   tau(   4) = (   0.0000000   0.1154701   0.0000000  )
         5           C   tau(   5) = (  -0.1000000   0.1732051   0.0000000  )
         6           C   tau(   6) = (  -0.1000000   0.2886751   0.0000000  )
         7           C   tau(   7) = (  -0.2000000   0.3464102   0.0000000  )
         8           C   tau(   8) = (  -0.2000000   0.4618802   0.0000000  )
         9           C   tau(   9) = (  -0.3000000   0.5196152   0.0000000  )
        10           C   tau(  10) = (  -0.3000000   0.6350853   0.0000000  )
        11           C   tau(  11) = (  -0.4000000   0.6928203   0.0000000  )
        12           C   tau(  12) = (  -0.4000000   0.8082904   0.0000000  )
        13           C   tau(  13) = (   0.2000000   0.0000000   0.0000000  )
        14           C   tau(  14) = (   0.2000000   0.1154701   0.0000000  )
        15           C   tau(  15) = (   0.1000000   0.1732051   0.0000000  )
        16           C   tau(  16) = (   0.1000000   0.2886751   0.0000000  )
        17           C   tau(  17) = (   0.0000000   0.3464102   0.0000000  )
        18           C   tau(  18) = (   0.0000000   0.4618802   0.0000000  )
        19           C   tau(  19) = (  -0.1000000   0.5196152   0.0000000  )
        20           C   tau(  20) = (  -0.1000000   0.6350853   0.0000000  )
        21           C   tau(  21) = (  -0.2000000   0.6928203   0.0000000  )
        22           C   tau(  22) = (  -0.2000000   0.8082904   0.0000000  )
        23           C   tau(  23) = (   0.4000000   0.0000000   0.0000000  )
        24           C   tau(  24) = (   0.4000000   0.1154701   0.0000000  )
        25           C   tau(  25) = (   0.3000000   0.1732051   0.0000000  )
        26           C   tau(  26) = (   0.3000000   0.2886751   0.0000000  )
        27           C   tau(  27) = (   0.2000000   0.3464102   0.0000000  )
        28           Cr  tau(  28) = (   0.2000000   0.4618802   0.0000000  )
        29           C   tau(  29) = (   0.1000000   0.5196152   0.0000000  )
        30           C   tau(  30) = (   0.1000000   0.6350853   0.0000000  )
        31           C   tau(  31) = (   0.0000000   0.6928203   0.0000000  )
        32           C   tau(  32) = (   0.0000000   0.8082904   0.0000000  )
        33           C   tau(  33) = (   0.6000000   0.0000000   0.0000000  )
        34           C   tau(  34) = (   0.6000000   0.1154701   0.0000000  )
        35           C   tau(  35) = (   0.5000000   0.1732051   0.0000000  )
        36           C   tau(  36) = (   0.5000000   0.2886751   0.0000000  )
        37           C   tau(  37) = (   0.4000000   0.3464102   0.0000000  )
        38           C   tau(  38) = (   0.4000000   0.4618802   0.0000000  )
        39           C   tau(  39) = (   0.3000000   0.5196152   0.0000000  )
        40           C   tau(  40) = (   0.3000000   0.6350853   0.0000000  )
        41           C   tau(  41) = (   0.2000000   0.6928203   0.0000000  )
        42           C   tau(  42) = (   0.2000000   0.8082904   0.0000000  )
        43           C   tau(  43) = (   0.8000000   0.0000000   0.0000000  )
        44           C   tau(  44) = (   0.8000000   0.1154701   0.0000000  )
        45           C   tau(  45) = (   0.7000000   0.1732051   0.0000000  )
        46           C   tau(  46) = (   0.7000000   0.2886751   0.0000000  )
        47           C   tau(  47) = (   0.6000000   0.3464102   0.0000000  )
        48           C   tau(  48) = (   0.6000000   0.4618802   0.0000000  )
        49           C   tau(  49) = (   0.5000000   0.5196152   0.0000000  )
        50           C   tau(  50) = (   0.5000000   0.6350853   0.0000000  )
        51           C   tau(  51) = (   0.4000000   0.6928203   0.0000000  )
        52           C   tau(  52) = (   0.4000000   0.8082904   0.0000000  )

   Crystallographic axes

     site n.     atom                  positions (cryst. coord.)
         1           H   tau(   1) = (  0.5333333  0.4666667  0.2400000  )
         2           H   tau(   2) = (  0.5333333  0.4666667  0.3152072  )
         3           C   tau(   3) = (  0.0000000  0.0000000  0.0000000  )
         4           C   tau(   4) = (  0.0666667  0.1333333  0.0000000  )
         5           C   tau(   5) = (  0.0000000  0.2000000  0.0000000  )
         6           C   tau(   6) = (  0.0666667  0.3333333  0.0000000  )
         7           C   tau(   7) = (  0.0000000  0.4000000  0.0000000  )
         8           C   tau(   8) = (  0.0666667  0.5333333  0.0000000  )
         9           C   tau(   9) = (  0.0000000  0.6000000  0.0000000  )
        10           C   tau(  10) = (  0.0666667  0.7333333  0.0000000  )
        11           C   tau(  11) = (  0.0000000  0.8000000  0.0000000  )
        12           C   tau(  12) = (  0.0666667  0.9333333  0.0000000  )
        13           C   tau(  13) = (  0.2000000  0.0000000  0.0000000  )
        14           C   tau(  14) = (  0.2666667  0.1333333  0.0000000  )
        15           C   tau(  15) = (  0.2000000  0.2000000  0.0000000  )
        16           C   tau(  16) = (  0.2666667  0.3333333  0.0000000  )
        17           C   tau(  17) = (  0.2000000  0.4000000  0.0000000  )
        18           C   tau(  18) = (  0.2666667  0.5333333  0.0000000  )
        19           C   tau(  19) = (  0.2000000  0.6000000  0.0000000  )
        20           C   tau(  20) = (  0.2666667  0.7333333  0.0000000  )
        21           C   tau(  21) = (  0.2000000  0.8000000  0.0000000  )
        22           C   tau(  22) = (  0.2666667  0.9333333  0.0000000  )
        23           C   tau(  23) = (  0.4000000  0.0000000  0.0000000  )
        24           C   tau(  24) = (  0.4666667  0.1333333  0.0000000  )
        25           C   tau(  25) = (  0.4000000  0.2000000  0.0000000  )
        26           C   tau(  26) = (  0.4666667  0.3333333  0.0000000  )
        27           C   tau(  27) = (  0.4000000  0.4000000  0.0000000  )
        28           Cr  tau(  28) = (  0.4666667  0.5333333  0.0000000  )
        29           C   tau(  29) = (  0.4000000  0.6000000  0.0000000  )
        30           C   tau(  30) = (  0.4666667  0.7333333  0.0000000  )
        31           C   tau(  31) = (  0.4000000  0.8000000  0.0000000  )
        32           C   tau(  32) = (  0.4666667  0.9333333  0.0000000  )
        33           C   tau(  33) = (  0.6000000  0.0000000  0.0000000  )
        34           C   tau(  34) = (  0.6666667  0.1333333  0.0000000  )
        35           C   tau(  35) = (  0.6000000  0.2000000  0.0000000  )
        36           C   tau(  36) = (  0.6666667  0.3333333  0.0000000  )
        37           C   tau(  37) = (  0.6000000  0.4000000  0.0000000  )
        38           C   tau(  38) = (  0.6666667  0.5333333  0.0000000  )
        39           C   tau(  39) = (  0.6000000  0.6000000  0.0000000  )
        40           C   tau(  40) = (  0.6666667  0.7333333  0.0000000  )
        41           C   tau(  41) = (  0.6000000  0.8000000  0.0000000  )
        42           C   tau(  42) = (  0.6666667  0.9333333  0.0000000  )
        43           C   tau(  43) = (  0.8000000  0.0000000  0.0000000  )
        44           C   tau(  44) = (  0.8666667  0.1333333  0.0000000  )
        45           C   tau(  45) = (  0.8000000  0.2000000  0.0000000  )
        46           C   tau(  46) = (  0.8666667  0.3333333  0.0000000  )
        47           C   tau(  47) = (  0.8000000  0.4000000  0.0000000  )
        48           C   tau(  48) = (  0.8666667  0.5333333  0.0000000  )
        49           C   tau(  49) = (  0.8000000  0.6000000  0.0000000  )
        50           C   tau(  50) = (  0.8666667  0.7333333  0.0000000  )
        51           C   tau(  51) = (  0.8000000  0.8000000  0.0000000  )
        52           C   tau(  52) = (  0.8666667  0.9333333  0.0000000  )

     number of k points=     1  Marzari-Vanderbilt smearing, width (Ry)=  0.0010
                       cart. coord. in units 2pi/alat
        k(    1) = (   0.0000000   0.0000000   0.0000000), wk =   2.0000000

                       cryst. coord.
        k(    1) = (   0.0000000   0.0000000   0.0000000), wk =   2.0000000

     Dense  grid:  1626001 G-vectors     FFT dimensions: ( 180, 180, 135)

     Smooth grid:   702581 G-vectors     FFT dimensions: ( 125, 125, 108)

     Dynamical RAM for                 wfc:      28.36 MB

     Dynamical RAM for     wfc (w. buffer):      28.36 MB

     Dynamical RAM for           str. fact:      12.41 MB

     Dynamical RAM for           local pot:       0.00 MB

     Dynamical RAM for          nlocal pot:      92.46 MB

     Dynamical RAM for                qrad:      19.73 MB

     Dynamical RAM for          rho,v,vnew:      29.46 MB

     Dynamical RAM for               rhoin:       9.82 MB

     Dynamical RAM for            rho*nmix:      66.16 MB

     Dynamical RAM for           G-vectors:      16.40 MB

     Dynamical RAM for          h,s,v(r/c):      11.81 MB

     Dynamical RAM for          <psi|beta>:       0.80 MB

     Dynamical RAM for                 psi:     113.46 MB

     Dynamical RAM for                hpsi:     113.46 MB

     Dynamical RAM for                spsi:     113.46 MB

     Dynamical RAM for      wfcinit/wfcrot:      93.90 MB

     Dynamical RAM for           addusdens:     971.75 MB

     Estimated static dynamical RAM per process >     319.78 MB

     Estimated max dynamical RAM per process >       1.26 GB

     Estimated total dynamical RAM >       7.57 GB

     Check: negative core charge=   -0.000002

     Initial potential from superposition of free atoms

     starting charge  211.80478, renormalised to  212.00000

     negative rho (up, down):  5.423E-04 0.000E+00


---------------------------------------------------------------------------------
Carrying out rVV10 run using the following parameters:
Nqs =      20    Nr_points =    1024   r_max =   100.000
b_value =  6.30000    beta =  0.00901
     q_mesh =  0.00010000  0.00030000  0.00058939  0.00100810
               0.00161396  0.00249058  0.00375900  0.00559430
               0.00824984  0.01209221  0.01765183  0.02569619
               0.03733578  0.05417739  0.07854596  0.11380545
               0.16482331  0.23864234  0.34545298  0.50000000

Gradients computed in Reciprocal space

---------------------------------------------------------------------------------


     Starting wfcs are  208 randomized atomic wfcs

     total cpu time spent up to now is       53.4 secs

     Self-consistent Calculation

     iteration #  1     ecut=    70.00 Ry     beta= 0.70
     Davidson diagonalization with overlap
     ethr =  1.00E-02,  avg # of iterations =  2.0

     negative rho (up, down):  9.384E-04 0.000E+00

     total cpu time spent up to now is      118.1 secs

     total energy              =    -783.51742767 Ry
     Harris-Foulkes estimate   =    -790.00045664 Ry
     estimated scf accuracy    <       9.32010886 Ry

     iteration #  2     ecut=    70.00 Ry     beta= 0.70
     Davidson diagonalization with overlap
     ethr =  4.40E-03,  avg # of iterations =  8.0

     negative rho (up, down):  1.033E-03 0.000E+00

     total cpu time spent up to now is      184.0 secs

     total energy              =    -777.05180052 Ry
     Harris-Foulkes estimate   =    -797.64437559 Ry
     estimated scf accuracy    <      76.97132965 Ry

     iteration #  3     ecut=    70.00 Ry     beta= 0.70
     Davidson diagonalization with overlap
     ethr =  4.40E-03,  avg # of iterations =  5.0

     negative rho (up, down):  1.189E-03 0.000E+00

     total cpu time spent up to now is      277.5 secs

     total energy              =    -785.65156905 Ry
     Harris-Foulkes estimate   =    -787.83565637 Ry
     estimated scf accuracy    <       9.18257180 Ry

     iteration #  4     ecut=    70.00 Ry     beta= 0.70
     Davidson diagonalization with overlap
     ethr =  4.33E-03,  avg # of iterations =  4.0

     negative rho (up, down):  1.660E-03 0.000E+00

     total cpu time spent up to now is      327.7 secs

     total energy              =    -786.70115944 Ry
     Harris-Foulkes estimate   =    -787.43983755 Ry
     estimated scf accuracy    <       2.44964715 Ry

     iteration #  5     ecut=    70.00 Ry     beta= 0.70
     Davidson diagonalization with overlap
     ethr =  1.16E-03,  avg # of iterations =  3.0

     negative rho (up, down):  1.977E-03 0.000E+00

     total cpu time spent up to now is      377.5 secs

     total energy              =    -786.91314981 Ry
     Harris-Foulkes estimate   =    -787.02557538 Ry
     estimated scf accuracy    <       0.42856698 Ry

     iteration #  6     ecut=    70.00 Ry     beta= 0.70
     Davidson diagonalization with overlap
     ethr =  2.02E-04,  avg # of iterations = 10.0

     negative rho (up, down):  2.032E-03 0.000E+00

     total cpu time spent up to now is      432.5 secs

     total energy              =    -786.93760051 Ry
     Harris-Foulkes estimate   =    -786.98375618 Ry
     estimated scf accuracy    <       0.22428593 Ry

     iteration #  7     ecut=    70.00 Ry     beta= 0.70
     Davidson diagonalization with overlap
     ethr =  1.06E-04,  avg # of iterations =  3.0

     negative rho (up, down):  2.232E-03 0.000E+00

     total cpu time spent up to now is      481.0 secs

     total energy              =    -786.93706449 Ry
     Harris-Foulkes estimate   =    -786.96216197 Ry
     estimated scf accuracy    <       0.11274703 Ry

     iteration #  8     ecut=    70.00 Ry     beta= 0.70
     Davidson diagonalization with overlap
     ethr =  5.32E-05,  avg # of iterations =  2.0

     negative rho (up, down):  2.514E-03 0.000E+00

     total cpu time spent up to now is      529.3 secs

     total energy              =    -786.94141697 Ry
     Harris-Foulkes estimate   =    -786.95324394 Ry
     estimated scf accuracy    <       0.06777487 Ry

     iteration #  9     ecut=    70.00 Ry     beta= 0.70
     Davidson diagonalization with overlap
     ethr =  3.20E-05,  avg # of iterations =  3.0

     negative rho (up, down):  2.855E-03 0.000E+00

     total cpu time spent up to now is      578.0 secs

     total energy              =    -786.94391833 Ry
     Harris-Foulkes estimate   =    -786.95022884 Ry
     estimated scf accuracy    <       0.05244342 Ry

     iteration # 10     ecut=    70.00 Ry     beta= 0.70
     Davidson diagonalization with overlap
     ethr =  2.47E-05,  avg # of iterations =  3.0

     negative rho (up, down):  2.886E-03 0.000E+00

     total cpu time spent up to now is      626.5 secs

     total energy              =    -786.94676409 Ry
     Harris-Foulkes estimate   =    -786.94832360 Ry
     estimated scf accuracy    <       0.02444661 Ry

     iteration # 11     ecut=    70.00 Ry     beta= 0.70
     Davidson diagonalization with overlap
     ethr =  1.15E-05,  avg # of iterations =  1.0

     negative rho (up, down):  2.798E-03 0.000E+00

     total cpu time spent up to now is      674.6 secs

     total energy              =    -786.94749428 Ry
     Harris-Foulkes estimate   =    -786.94798134 Ry
     estimated scf accuracy    <       0.00824704 Ry

     iteration # 12     ecut=    70.00 Ry     beta= 0.70
     Davidson diagonalization with overlap
     ethr =  3.89E-06,  avg # of iterations =  6.0

     negative rho (up, down):  2.835E-03 0.000E+00

     total cpu time spent up to now is      724.5 secs

     total energy              =    -786.94776692 Ry
     Harris-Foulkes estimate   =    -786.94779120 Ry
     estimated scf accuracy    <       0.00063178 Ry

     iteration # 13     ecut=    70.00 Ry     beta= 0.70
     Davidson diagonalization with overlap
     ethr =  2.98E-07,  avg # of iterations =  3.0

     negative rho (up, down):  2.834E-03 0.000E+00

     total cpu time spent up to now is      773.4 secs

     total energy              =    -786.94780192 Ry
     Harris-Foulkes estimate   =    -786.94780136 Ry
     estimated scf accuracy    <       0.00002618 Ry

     iteration # 14     ecut=    70.00 Ry     beta= 0.70
     Davidson diagonalization with overlap
     ethr =  1.24E-08,  avg # of iterations =  4.0

     negative rho (up, down):  2.844E-03 0.000E+00

     total cpu time spent up to now is      833.5 secs

     total energy              =    -786.94781706 Ry
     Harris-Foulkes estimate   =    -786.94781489 Ry
     estimated scf accuracy    <       0.00002524 Ry

     iteration # 15     ecut=    70.00 Ry     beta= 0.70
     Davidson diagonalization with overlap
     ethr =  1.19E-08,  avg # of iterations =  4.0

     negative rho (up, down):  2.852E-03 0.000E+00

     total cpu time spent up to now is      887.1 secs

     total energy              =    -786.94782608 Ry
     Harris-Foulkes estimate   =    -786.94782417 Ry
     estimated scf accuracy    <       0.00001850 Ry

     iteration # 16     ecut=    70.00 Ry     beta= 0.70
     Davidson diagonalization with overlap
     ethr =  8.73E-09,  avg # of iterations =  4.0

     negative rho (up, down):  2.853E-03 0.000E+00

     total cpu time spent up to now is      939.3 secs

     total energy              =    -786.94783446 Ry
     Harris-Foulkes estimate   =    -786.94783016 Ry
     estimated scf accuracy    <       0.00002054 Ry

     iteration # 17     ecut=    70.00 Ry     beta= 0.70
     Davidson diagonalization with overlap
     ethr =  8.73E-09,  avg # of iterations =  3.0

     negative rho (up, down):  2.855E-03 0.000E+00

     total cpu time spent up to now is      992.8 secs

     total energy              =    -786.94784195 Ry
     Harris-Foulkes estimate   =    -786.94784187 Ry
     estimated scf accuracy    <       0.00001454 Ry

     iteration # 18     ecut=    70.00 Ry     beta= 0.70
     Davidson diagonalization with overlap
     ethr =  6.86E-09,  avg # of iterations =  3.0

     negative rho (up, down):  2.859E-03 0.000E+00

     total cpu time spent up to now is     1046.6 secs

     total energy              =    -786.94785034 Ry
     Harris-Foulkes estimate   =    -786.94785225 Ry
     estimated scf accuracy    <       0.00000367 Ry

     iteration # 19     ecut=    70.00 Ry     beta= 0.70
     Davidson diagonalization with overlap
     ethr =  1.73E-09,  avg # of iterations =  4.0

     negative rho (up, down):  2.860E-03 0.000E+00

     total cpu time spent up to now is     1103.6 secs

     total energy              =    -786.94784950 Ry
     Harris-Foulkes estimate   =    -786.94785818 Ry
     estimated scf accuracy    <       0.00000375 Ry

     iteration # 20     ecut=    70.00 Ry     beta= 0.70
     Davidson diagonalization with overlap
     ethr =  1.73E-09,  avg # of iterations =  4.0

     negative rho (up, down):  2.868E-03 0.000E+00

     total cpu time spent up to now is     1161.0 secs

     End of self-consistent calculation

          k = 0.0000 0.0000 0.0000 ( 87777 PWs)   bands (ev):

   -71.8369 -44.1346 -44.1303 -43.0183 -19.6336 -18.7953 -18.7935 -18.7037
   -18.7018 -18.7015 -18.3303 -16.9483 -16.9467 -16.9422 -16.8376 -16.8353
   -16.5355 -16.0939 -16.0939 -15.9943 -15.9136 -15.9121 -15.1993 -13.9562
   -13.9560 -13.9136 -13.8641 -13.8636 -13.2005 -12.9393 -12.9378 -12.9091
   -12.5847 -12.5831 -12.1457 -11.6985 -11.6982 -11.5344 -11.2282 -11.2270
   -10.2620  -9.4780  -9.4776  -9.3189  -9.1862  -9.1855  -9.0934  -9.0621
    -9.0620  -9.0508  -8.5356  -8.5347  -7.9910  -7.9908  -7.8951  -7.8245
    -7.7031  -7.3311  -7.2830  -7.2730  -7.0295  -6.9767  -6.8694  -6.7011
    -6.7009  -6.6873  -6.6779  -6.6411  -6.5943  -6.4316  -6.4311  -6.4034
    -6.3988  -6.3980  -6.3502  -6.2519  -5.3922  -5.3758  -5.3221  -5.3218
    -5.0581  -5.0573  -4.8558  -4.7620  -4.6075  -4.5836  -4.5793  -4.2619
    -4.2431  -4.0355  -4.0354  -3.7183  -3.7147  -3.6362  -3.5383  -3.5381
    -3.4697  -3.4692  -2.9955  -2.4338  -2.4306  -1.7197  -1.6749  -1.6742
    -0.7167  -0.5386  -0.5384  -0.4399   1.0644   1.0824   1.0882   1.7786
     1.8704   1.8707   2.4112   2.9216   2.9266   2.9842   3.3897   3.4554
     3.5529   3.6404   3.6564   3.7064   3.7759   3.8032   3.8601

     occupation numbers 
     1.0000   1.0000   1.0000   1.0000   1.0000   1.0000   1.0000   1.0000
     1.0000   1.0000   1.0000   1.0000   1.0000   1.0000   1.0000   1.0000
     1.0000   1.0000   1.0000   1.0000   1.0000   1.0000   1.0000   1.0000
     1.0000   1.0000   1.0000   1.0000   1.0000   1.0000   1.0000   1.0000
     1.0000   1.0000   1.0000   1.0000   1.0000   1.0000   1.0000   1.0000
     1.0000   1.0000   1.0000   1.0000   1.0000   1.0000   1.0000   1.0000
     1.0000   1.0000   1.0000   1.0000   1.0000   1.0000   1.0000   1.0000
     1.0000   1.0000   1.0000   1.0000   1.0000   1.0000   1.0000   1.0000
     1.0000   1.0000   1.0000   1.0000   1.0000   1.0000   1.0000   1.0000
     1.0000   1.0000   1.0000   1.0000   1.0000   1.0000   1.0000   1.0000
     1.0000   1.0000   1.0000   1.0000   1.0000   1.0000   1.0000   1.0000
     1.0000   1.0000   1.0000   1.0000   1.0000   1.0000   1.0000   1.0000
     1.0000   1.0000   1.0000   1.0000   1.0000   1.0000   1.0000   1.0000
     1.0000   0.5037   0.4963   0.0000   0.0000   0.0000   0.0000   0.0000
     0.0000   0.0000   0.0000   0.0000   0.0000   0.0000   0.0000   0.0000
     0.0000   0.0000   0.0000   0.0000   0.0000   0.0000   0.0000

     the Fermi energy is    -0.5366 ev

!    total energy              =    -786.94786260 Ry
     Harris-Foulkes estimate   =    -786.94786342 Ry
     estimated scf accuracy    <       0.00000042 Ry

     The total energy is the sum of the following terms:

     one-electron contribution =   -2652.84650030 Ry
     hartree contribution      =    1372.09216559 Ry
     xc contribution           =    -254.34837530 Ry
     ewald contribution        =     748.15550374 Ry
     smearing contrib. (-TS)   =      -0.00065633 Ry

     convergence has been achieved in  20 iterations

     Writing output data file gr-12-sixhollow.save/

     init_run     :     51.15s CPU     52.33s WALL (       1 calls)
     electrons    :   1075.41s CPU   1107.71s WALL (       1 calls)

     Called by init_run:
     wfcinit      :     20.49s CPU     20.61s WALL (       1 calls)
     wfcinit:atom :      0.02s CPU      0.04s WALL (       1 calls)
     wfcinit:wfcr :     20.30s CPU     20.37s WALL (       1 calls)
     potinit      :     13.47s CPU     13.89s WALL (       1 calls)
     hinit0       :     12.59s CPU     12.60s WALL (       1 calls)

     Called by electrons:
     c_bands      :    670.33s CPU    674.57s WALL (      20 calls)
     sum_band     :    199.38s CPU    210.38s WALL (      20 calls)
     v_of_rho     :    126.62s CPU    134.02s WALL (      21 calls)
     v_h          :      1.44s CPU      1.48s WALL (      21 calls)
     v_xc         :    125.18s CPU    132.54s WALL (      21 calls)
     newd         :     82.90s CPU     93.41s WALL (      21 calls)
     mix_rho      :      3.82s CPU      3.87s WALL (      20 calls)

     Called by c_bands:
     init_us_2    :      1.70s CPU      1.73s WALL (      41 calls)
     cegterg      :    665.64s CPU    669.85s WALL (      20 calls)

     Called by sum_band:
     sum_band:bec :      0.02s CPU      0.02s WALL (      20 calls)
     addusdens    :    121.98s CPU    132.28s WALL (      20 calls)

     Called by *egterg:
     h_psi        :    345.41s CPU    348.28s WALL (     100 calls)
     s_psi        :    116.35s CPU    116.47s WALL (     100 calls)
     g_psi        :      0.38s CPU      0.38s WALL (      79 calls)
     cdiaghg      :      7.11s CPU      7.12s WALL (      99 calls)
     cegterg:over :     84.50s CPU     84.62s WALL (      79 calls)
     cegterg:upda :     53.96s CPU     54.27s WALL (      79 calls)
     cegterg:last :     39.85s CPU     39.87s WALL (      21 calls)

     Called by h_psi:
     h_psi:pot    :    344.99s CPU    347.41s WALL (     100 calls)
     h_psi:calbec :    117.01s CPU    117.14s WALL (     100 calls)
     vloc_psi     :    111.43s CPU    113.63s WALL (     100 calls)
     add_vuspsi   :    116.55s CPU    116.64s WALL (     100 calls)

     General routines
     calbec       :    164.09s CPU    164.26s WALL (     120 calls)
     fft          :     70.76s CPU     73.39s WALL (    1321 calls)
     ffts         :      0.71s CPU      0.74s WALL (      41 calls)
     fftw         :    116.95s CPU    119.38s WALL (   15194 calls)
     interpolate  :      1.78s CPU      1.82s WALL (      21 calls)

     Parallel routines
     fft_scatt_xy :     31.79s CPU     32.27s WALL (   16556 calls)
     fft_scatt_yz :     66.10s CPU     69.67s WALL (   16556 calls)

     PWSCF        :  18m47.81s CPU  19m21.50s WALL


   This run was terminated on:  11:32:23  20Jul2022            

=------------------------------------------------------------------------------=
   JOB DONE.
=------------------------------------------------------------------------------=
