
     Program PWSCF v.6.4.1 starts on 20Jul2022 at  8:46:36 

     This program is part of the open-source Quantum ESPRESSO suite
     for quantum simulation of materials; please cite
         "P. Giannozzi et al., J. Phys.:Condens. Matter 21 395502 (2009);
         "P. Giannozzi et al., J. Phys.:Condens. Matter 29 465901 (2017);
          URL http://www.quantum-espresso.org", 
     in publications or presentations arising from this work. More details at
     http://www.quantum-espresso.org/quote

     Parallel version (MPI), running on     6 processors

     MPI processes distributed on     1 nodes
     R & G space division:  proc/nbgrp/npool/nimage =       6
     Reading input from distance-5.0.in

     Current dimensions of program PWSCF are:
     Max number of different atomic species (ntypx) = 10
     Max number of k-points (npk) =  40000
     Max angular momentum in pseudopotentials (lmaxx) =  3

     IMPORTANT: XC functional enforced from input :
     Exchange-correlation      = RVV10 ( 1  4 13  4 3 0)
     Any further DFT definition will be discarded
     Please, verify this is what you really want

               file H.pbe-rrkjus.UPF: wavefunction(s)  1S renormalized
               file Cr.pbe-spn-rrkjus_psl.1.0.0.UPF: wavefunction(s)  3P renormalized

     Subspace diagonalization in iterative solution of the eigenvalue problem:
     a serial algorithm will be used


     Parallelization info
     --------------------
     sticks:   dense  smooth     PW     G-vecs:    dense   smooth      PW
     Min        3051    1746    432               270999   117096   14629
     Max        3053    1747    437               271001   117099   14630
     Sum       18313   10477   2611              1626001   702581   87777



     bravais-lattice index     =            4
     lattice parameter (alat)  =      23.2937  a.u.
     unit-cell volume          =    8879.8548 (a.u.)^3
     number of atoms/cell      =           52
     number of atomic types    =            3
     number of electrons       =       212.00
     number of Kohn-Sham states=          127
     kinetic-energy cutoff     =      70.0000  Ry
     charge density cutoff     =     490.0000  Ry
     convergence threshold     =      1.0E-06
     mixing beta               =       0.7000
     number of iterations used =            8  plain     mixing
     Exchange-correlation      = RVV10 ( 1  4 13  4 3 0)

     celldm(1)=  23.293684  celldm(2)=   0.000000  celldm(3)=   0.811261
     celldm(4)=   0.000000  celldm(5)=   0.000000  celldm(6)=   0.000000

     crystal axes: (cart. coord. in units of alat)
               a(1) = (   1.000000   0.000000   0.000000 )  
               a(2) = (  -0.500000   0.866025   0.000000 )  
               a(3) = (   0.000000   0.000000   0.811261 )  

     reciprocal axes: (cart. coord. in units 2 pi/alat)
               b(1) = (  1.000000  0.577350 -0.000000 )  
               b(2) = (  0.000000  1.154701  0.000000 )  
               b(3) = (  0.000000 -0.000000  1.232649 )  


     PseudoPot. # 1 for H  read from file:
     /home/cristian/Escritorio/Proyecto_Grafeno/pseudopotenciales/H.pbe-rrkjus.UPF
     MD5 check sum: 7cc9d459525c9a0585f487a71c3c9563
     Pseudo is Ultrasoft, Zval =  1.0
     Generated by new atomic code, or converted to UPF format
     Using radial grid of 1061 points,  2 beta functions with: 
                l(1) =   0
                l(2) =   0
     Q(r) pseudized with 0 coefficients 


     PseudoPot. # 2 for C  read from file:
     /home/cristian/Escritorio/Proyecto_Grafeno/pseudopotenciales/C.pbe-n-rrkjus_psl.1.0.0.UPF
     MD5 check sum: 1fdd950c42eb37d8afe3dd2f8d12311e
     Pseudo is Ultrasoft + core correction, Zval =  4.0
     Generated using "atomic" code by A. Dal Corso v.6.3MaX
     Using radial grid of 1073 points,  4 beta functions with: 
                l(1) =   0
                l(2) =   0
                l(3) =   1
                l(4) =   1
     Q(r) pseudized with 0 coefficients 


     PseudoPot. # 3 for Cr read from file:
     /home/cristian/Escritorio/Proyecto_Grafeno/pseudopotenciales/Cr.pbe-spn-rrkjus_psl.1.0.0.UPF
     MD5 check sum: 793d051e4f89dd1e3290b85340a92c0a
     Pseudo is Ultrasoft + core correction, Zval = 14.0
     Generated using "atomic" code by A. Dal Corso v.6.2.2
     Using radial grid of 1183 points,  6 beta functions with: 
                l(1) =   0
                l(2) =   0
                l(3) =   1
                l(4) =   1
                l(5) =   2
                l(6) =   2
     Q(r) pseudized with 0 coefficients 


     vdW kernel table read from file rVV10_kernel_table
     MD5 check sum: b8e2538accc0c0b3206b45ba4daaba6c

     atomic species   valence    mass     pseudopotential
        H              1.00     1.00794     H ( 1.00)
        C              4.00    12.01070     C ( 1.00)
        Cr            14.00    51.99610     Cr( 1.00)

      2 Sym. Ops. (no inversion) found


                                    s                        frac. trans.

      isym =  1     identity                                     

 cryst.   s( 1) = (     1          0          0      )
                  (     0          1          0      )
                  (     0          0          1      )

 cart.    s( 1) = (  1.0000000  0.0000000  0.0000000 )
                  (  0.0000000  1.0000000  0.0000000 )
                  (  0.0000000  0.0000000  1.0000000 )


      isym =  2     inv. 180 deg rotation - cryst. axis [1,1,0]  

 cryst.   s( 2) = (     0         -1          0      )
                  (    -1          0          0      )
                  (     0          0          1      )

 cart.    s( 2) = (  0.5000000 -0.8660254  0.0000000 )
                  ( -0.8660254 -0.5000000  0.0000000 )
                  (  0.0000000  0.0000000  1.0000000 )


     point group C_s (m)    
     there are  2 classes
     the character table:

       E     s    
A'     1.00  1.00
A''    1.00 -1.00

     the symmetry operations in each class and the name of the first element:

     E        1
          identity                                               
     s        2
          inv. 180 deg rotation - cryst. axis [1,1,0]            

   Cartesian axes

     site n.     atom                  positions (alat units)
         1           H   tau(   1) = (   0.3000000   0.4041452   0.4056306  )
         2           H   tau(   2) = (   0.3000000   0.4041452   0.4666433  )
         3           C   tau(   3) = (   0.0000000   0.0000000   0.0000000  )
         4           C   tau(   4) = (   0.0000000   0.1154701   0.0000000  )
         5           C   tau(   5) = (  -0.1000000   0.1732051   0.0000000  )
         6           C   tau(   6) = (  -0.1000000   0.2886751   0.0000000  )
         7           C   tau(   7) = (  -0.2000000   0.3464102   0.0000000  )
         8           C   tau(   8) = (  -0.2000000   0.4618802   0.0000000  )
         9           C   tau(   9) = (  -0.3000000   0.5196152   0.0000000  )
        10           C   tau(  10) = (  -0.3000000   0.6350853   0.0000000  )
        11           C   tau(  11) = (  -0.4000000   0.6928203   0.0000000  )
        12           C   tau(  12) = (  -0.4000000   0.8082904   0.0000000  )
        13           C   tau(  13) = (   0.2000000   0.0000000   0.0000000  )
        14           C   tau(  14) = (   0.2000000   0.1154701   0.0000000  )
        15           C   tau(  15) = (   0.1000000   0.1732051   0.0000000  )
        16           C   tau(  16) = (   0.1000000   0.2886751   0.0000000  )
        17           C   tau(  17) = (   0.0000000   0.3464102   0.0000000  )
        18           C   tau(  18) = (   0.0000000   0.4618802   0.0000000  )
        19           C   tau(  19) = (  -0.1000000   0.5196152   0.0000000  )
        20           C   tau(  20) = (  -0.1000000   0.6350853   0.0000000  )
        21           C   tau(  21) = (  -0.2000000   0.6928203   0.0000000  )
        22           C   tau(  22) = (  -0.2000000   0.8082904   0.0000000  )
        23           C   tau(  23) = (   0.4000000   0.0000000   0.0000000  )
        24           C   tau(  24) = (   0.4000000   0.1154701   0.0000000  )
        25           C   tau(  25) = (   0.3000000   0.1732051   0.0000000  )
        26           C   tau(  26) = (   0.3000000   0.2886751   0.0000000  )
        27           C   tau(  27) = (   0.2000000   0.3464102   0.0000000  )
        28           Cr  tau(  28) = (   0.2000000   0.4618802   0.0000000  )
        29           C   tau(  29) = (   0.1000000   0.5196152   0.0000000  )
        30           C   tau(  30) = (   0.1000000   0.6350853   0.0000000  )
        31           C   tau(  31) = (   0.0000000   0.6928203   0.0000000  )
        32           C   tau(  32) = (   0.0000000   0.8082904   0.0000000  )
        33           C   tau(  33) = (   0.6000000   0.0000000   0.0000000  )
        34           C   tau(  34) = (   0.6000000   0.1154701   0.0000000  )
        35           C   tau(  35) = (   0.5000000   0.1732051   0.0000000  )
        36           C   tau(  36) = (   0.5000000   0.2886751   0.0000000  )
        37           C   tau(  37) = (   0.4000000   0.3464102   0.0000000  )
        38           C   tau(  38) = (   0.4000000   0.4618802   0.0000000  )
        39           C   tau(  39) = (   0.3000000   0.5196152   0.0000000  )
        40           C   tau(  40) = (   0.3000000   0.6350853   0.0000000  )
        41           C   tau(  41) = (   0.2000000   0.6928203   0.0000000  )
        42           C   tau(  42) = (   0.2000000   0.8082904   0.0000000  )
        43           C   tau(  43) = (   0.8000000   0.0000000   0.0000000  )
        44           C   tau(  44) = (   0.8000000   0.1154701   0.0000000  )
        45           C   tau(  45) = (   0.7000000   0.1732051   0.0000000  )
        46           C   tau(  46) = (   0.7000000   0.2886751   0.0000000  )
        47           C   tau(  47) = (   0.6000000   0.3464102   0.0000000  )
        48           C   tau(  48) = (   0.6000000   0.4618802   0.0000000  )
        49           C   tau(  49) = (   0.5000000   0.5196152   0.0000000  )
        50           C   tau(  50) = (   0.5000000   0.6350853   0.0000000  )
        51           C   tau(  51) = (   0.4000000   0.6928203   0.0000000  )
        52           C   tau(  52) = (   0.4000000   0.8082904   0.0000000  )

   Crystallographic axes

     site n.     atom                  positions (cryst. coord.)
         1           H   tau(   1) = (  0.5333333  0.4666667  0.5000000  )
         2           H   tau(   2) = (  0.5333333  0.4666667  0.5752072  )
         3           C   tau(   3) = (  0.0000000  0.0000000  0.0000000  )
         4           C   tau(   4) = (  0.0666667  0.1333333  0.0000000  )
         5           C   tau(   5) = (  0.0000000  0.2000000  0.0000000  )
         6           C   tau(   6) = (  0.0666667  0.3333333  0.0000000  )
         7           C   tau(   7) = (  0.0000000  0.4000000  0.0000000  )
         8           C   tau(   8) = (  0.0666667  0.5333333  0.0000000  )
         9           C   tau(   9) = (  0.0000000  0.6000000  0.0000000  )
        10           C   tau(  10) = (  0.0666667  0.7333333  0.0000000  )
        11           C   tau(  11) = (  0.0000000  0.8000000  0.0000000  )
        12           C   tau(  12) = (  0.0666667  0.9333333  0.0000000  )
        13           C   tau(  13) = (  0.2000000  0.0000000  0.0000000  )
        14           C   tau(  14) = (  0.2666667  0.1333333  0.0000000  )
        15           C   tau(  15) = (  0.2000000  0.2000000  0.0000000  )
        16           C   tau(  16) = (  0.2666667  0.3333333  0.0000000  )
        17           C   tau(  17) = (  0.2000000  0.4000000  0.0000000  )
        18           C   tau(  18) = (  0.2666667  0.5333333  0.0000000  )
        19           C   tau(  19) = (  0.2000000  0.6000000  0.0000000  )
        20           C   tau(  20) = (  0.2666667  0.7333333  0.0000000  )
        21           C   tau(  21) = (  0.2000000  0.8000000  0.0000000  )
        22           C   tau(  22) = (  0.2666667  0.9333333  0.0000000  )
        23           C   tau(  23) = (  0.4000000  0.0000000  0.0000000  )
        24           C   tau(  24) = (  0.4666667  0.1333333  0.0000000  )
        25           C   tau(  25) = (  0.4000000  0.2000000  0.0000000  )
        26           C   tau(  26) = (  0.4666667  0.3333333  0.0000000  )
        27           C   tau(  27) = (  0.4000000  0.4000000  0.0000000  )
        28           Cr  tau(  28) = (  0.4666667  0.5333333  0.0000000  )
        29           C   tau(  29) = (  0.4000000  0.6000000  0.0000000  )
        30           C   tau(  30) = (  0.4666667  0.7333333  0.0000000  )
        31           C   tau(  31) = (  0.4000000  0.8000000  0.0000000  )
        32           C   tau(  32) = (  0.4666667  0.9333333  0.0000000  )
        33           C   tau(  33) = (  0.6000000  0.0000000  0.0000000  )
        34           C   tau(  34) = (  0.6666667  0.1333333  0.0000000  )
        35           C   tau(  35) = (  0.6000000  0.2000000  0.0000000  )
        36           C   tau(  36) = (  0.6666667  0.3333333  0.0000000  )
        37           C   tau(  37) = (  0.6000000  0.4000000  0.0000000  )
        38           C   tau(  38) = (  0.6666667  0.5333333  0.0000000  )
        39           C   tau(  39) = (  0.6000000  0.6000000  0.0000000  )
        40           C   tau(  40) = (  0.6666667  0.7333333  0.0000000  )
        41           C   tau(  41) = (  0.6000000  0.8000000  0.0000000  )
        42           C   tau(  42) = (  0.6666667  0.9333333  0.0000000  )
        43           C   tau(  43) = (  0.8000000  0.0000000  0.0000000  )
        44           C   tau(  44) = (  0.8666667  0.1333333  0.0000000  )
        45           C   tau(  45) = (  0.8000000  0.2000000  0.0000000  )
        46           C   tau(  46) = (  0.8666667  0.3333333  0.0000000  )
        47           C   tau(  47) = (  0.8000000  0.4000000  0.0000000  )
        48           C   tau(  48) = (  0.8666667  0.5333333  0.0000000  )
        49           C   tau(  49) = (  0.8000000  0.6000000  0.0000000  )
        50           C   tau(  50) = (  0.8666667  0.7333333  0.0000000  )
        51           C   tau(  51) = (  0.8000000  0.8000000  0.0000000  )
        52           C   tau(  52) = (  0.8666667  0.9333333  0.0000000  )

     number of k points=     1  Marzari-Vanderbilt smearing, width (Ry)=  0.0010
                       cart. coord. in units 2pi/alat
        k(    1) = (   0.0000000   0.0000000   0.0000000), wk =   2.0000000

                       cryst. coord.
        k(    1) = (   0.0000000   0.0000000   0.0000000), wk =   2.0000000

     Dense  grid:  1626001 G-vectors     FFT dimensions: ( 180, 180, 135)

     Smooth grid:   702581 G-vectors     FFT dimensions: ( 125, 125, 108)

     Dynamical RAM for                 wfc:      28.36 MB

     Dynamical RAM for     wfc (w. buffer):      28.36 MB

     Dynamical RAM for           str. fact:      12.41 MB

     Dynamical RAM for           local pot:       0.00 MB

     Dynamical RAM for          nlocal pot:      92.46 MB

     Dynamical RAM for                qrad:      19.73 MB

     Dynamical RAM for          rho,v,vnew:      29.46 MB

     Dynamical RAM for               rhoin:       9.82 MB

     Dynamical RAM for            rho*nmix:      66.16 MB

     Dynamical RAM for           G-vectors:      16.40 MB

     Dynamical RAM for          h,s,v(r/c):      11.81 MB

     Dynamical RAM for          <psi|beta>:       0.80 MB

     Dynamical RAM for                 psi:     113.46 MB

     Dynamical RAM for                hpsi:     113.46 MB

     Dynamical RAM for                spsi:     113.46 MB

     Dynamical RAM for      wfcinit/wfcrot:      93.90 MB

     Dynamical RAM for           addusdens:     971.75 MB

     Estimated static dynamical RAM per process >     319.78 MB

     Estimated max dynamical RAM per process >       1.26 GB

     Estimated total dynamical RAM >       7.57 GB

     Check: negative core charge=   -0.000002

     Initial potential from superposition of free atoms

     starting charge  211.80478, renormalised to  212.00000

     negative rho (up, down):  4.403E-04 0.000E+00


---------------------------------------------------------------------------------
Carrying out rVV10 run using the following parameters:
Nqs =      20    Nr_points =    1024   r_max =   100.000
b_value =  6.30000    beta =  0.00901
     q_mesh =  0.00010000  0.00030000  0.00058939  0.00100810
               0.00161396  0.00249058  0.00375900  0.00559430
               0.00824984  0.01209221  0.01765183  0.02569619
               0.03733578  0.05417739  0.07854596  0.11380545
               0.16482331  0.23864234  0.34545298  0.50000000

Gradients computed in Reciprocal space

---------------------------------------------------------------------------------


     Starting wfcs are  208 randomized atomic wfcs

     total cpu time spent up to now is       54.0 secs

     Self-consistent Calculation

     iteration #  1     ecut=    70.00 Ry     beta= 0.70
     Davidson diagonalization with overlap
     ethr =  1.00E-02,  avg # of iterations =  2.0

     negative rho (up, down):  7.176E-04 0.000E+00

     total cpu time spent up to now is      118.7 secs

     total energy              =    -785.45583553 Ry
     Harris-Foulkes estimate   =    -789.92920255 Ry
     estimated scf accuracy    <       7.08457150 Ry

     iteration #  2     ecut=    70.00 Ry     beta= 0.70
     Davidson diagonalization with overlap
     ethr =  3.34E-03,  avg # of iterations =  7.0

     negative rho (up, down):  8.362E-04 0.000E+00

     total cpu time spent up to now is      184.7 secs

     total energy              =    -779.73435287 Ry
     Harris-Foulkes estimate   =    -788.32532368 Ry
     estimated scf accuracy    <      25.19338405 Ry

     iteration #  3     ecut=    70.00 Ry     beta= 0.70
     Davidson diagonalization with overlap
     ethr =  3.34E-03,  avg # of iterations =  4.0

     negative rho (up, down):  1.103E-03 0.000E+00

     total cpu time spent up to now is      263.5 secs

     total energy              =    -784.18664563 Ry
     Harris-Foulkes estimate   =    -790.70728077 Ry
     estimated scf accuracy    <      39.44531787 Ry

     iteration #  4     ecut=    70.00 Ry     beta= 0.70
     Davidson diagonalization with overlap
     ethr =  3.34E-03,  avg # of iterations =  4.0

     negative rho (up, down):  1.064E-03 0.000E+00

     total cpu time spent up to now is      319.9 secs

     total energy              =    -786.70587778 Ry
     Harris-Foulkes estimate   =    -787.34131484 Ry
     estimated scf accuracy    <       1.89839108 Ry

     iteration #  5     ecut=    70.00 Ry     beta= 0.70
     Davidson diagonalization with overlap
     ethr =  8.95E-04,  avg # of iterations =  3.0

     negative rho (up, down):  1.157E-03 0.000E+00

     total cpu time spent up to now is      372.0 secs

     total energy              =    -786.92716410 Ry
     Harris-Foulkes estimate   =    -787.02908027 Ry
     estimated scf accuracy    <       1.15836838 Ry

     iteration #  6     ecut=    70.00 Ry     beta= 0.70
     Davidson diagonalization with overlap
     ethr =  5.46E-04,  avg # of iterations =  1.0

     negative rho (up, down):  1.241E-03 0.000E+00

     total cpu time spent up to now is      420.2 secs

     total energy              =    -786.94328072 Ry
     Harris-Foulkes estimate   =    -786.97417108 Ry
     estimated scf accuracy    <       0.11169346 Ry

     iteration #  7     ecut=    70.00 Ry     beta= 0.70
     Davidson diagonalization with overlap
     ethr =  5.27E-05,  avg # of iterations =  8.0

     negative rho (up, down):  1.478E-03 0.000E+00

     total cpu time spent up to now is      473.2 secs

     total energy              =    -786.93613796 Ry
     Harris-Foulkes estimate   =    -786.96364160 Ry
     estimated scf accuracy    <       0.23997617 Ry

     iteration #  8     ecut=    70.00 Ry     beta= 0.70
     Davidson diagonalization with overlap
     ethr =  5.27E-05,  avg # of iterations =  3.0

     negative rho (up, down):  1.802E-03 0.000E+00

     total cpu time spent up to now is      522.0 secs

     total energy              =    -786.94142597 Ry
     Harris-Foulkes estimate   =    -786.95568335 Ry
     estimated scf accuracy    <       0.08743597 Ry

     iteration #  9     ecut=    70.00 Ry     beta= 0.70
     Davidson diagonalization with overlap
     ethr =  4.12E-05,  avg # of iterations =  1.0

     negative rho (up, down):  2.245E-03 0.000E+00

     total cpu time spent up to now is      570.1 secs

     total energy              =    -786.93872813 Ry
     Harris-Foulkes estimate   =    -786.94979333 Ry
     estimated scf accuracy    <       0.06946770 Ry

     iteration # 10     ecut=    70.00 Ry     beta= 0.70
     Davidson diagonalization with overlap
     ethr =  3.28E-05,  avg # of iterations =  2.0

     negative rho (up, down):  2.482E-03 0.000E+00

     total cpu time spent up to now is      618.3 secs

     total energy              =    -786.94474624 Ry
     Harris-Foulkes estimate   =    -786.94843308 Ry
     estimated scf accuracy    <       0.06114521 Ry

     iteration # 11     ecut=    70.00 Ry     beta= 0.70
     Davidson diagonalization with overlap
     ethr =  2.88E-05,  avg # of iterations =  1.0

     negative rho (up, down):  2.520E-03 0.000E+00

     total cpu time spent up to now is      666.2 secs

     total energy              =    -786.94351844 Ry
     Harris-Foulkes estimate   =    -786.94566476 Ry
     estimated scf accuracy    <       0.04742468 Ry

     iteration # 12     ecut=    70.00 Ry     beta= 0.70
     Davidson diagonalization with overlap
     ethr =  2.24E-05,  avg # of iterations =  1.0

     negative rho (up, down):  2.517E-03 0.000E+00

     total cpu time spent up to now is      714.2 secs

     total energy              =    -786.94443629 Ry
     Harris-Foulkes estimate   =    -786.94456155 Ry
     estimated scf accuracy    <       0.00358386 Ry

     iteration # 13     ecut=    70.00 Ry     beta= 0.70
     Davidson diagonalization with overlap
     ethr =  1.69E-06,  avg # of iterations = 15.0

     negative rho (up, down):  2.497E-03 0.000E+00

     total cpu time spent up to now is      769.2 secs

     total energy              =    -786.94435574 Ry
     Harris-Foulkes estimate   =    -786.94448470 Ry
     estimated scf accuracy    <       0.00287942 Ry

     iteration # 14     ecut=    70.00 Ry     beta= 0.70
     Davidson diagonalization with overlap
     ethr =  1.36E-06,  avg # of iterations =  1.0

     negative rho (up, down):  2.495E-03 0.000E+00

     total cpu time spent up to now is      817.2 secs

     total energy              =    -786.94433233 Ry
     Harris-Foulkes estimate   =    -786.94439252 Ry
     estimated scf accuracy    <       0.00166306 Ry

     iteration # 15     ecut=    70.00 Ry     beta= 0.70
     Davidson diagonalization with overlap
     ethr =  7.84E-07,  avg # of iterations =  1.0

     negative rho (up, down):  2.451E-03 0.000E+00

     total cpu time spent up to now is      865.4 secs

     total energy              =    -786.94400061 Ry
     Harris-Foulkes estimate   =    -786.94446044 Ry
     estimated scf accuracy    <       0.00675949 Ry

     iteration # 16     ecut=    70.00 Ry     beta= 0.70
     Davidson diagonalization with overlap
     ethr =  7.84E-07,  avg # of iterations =  3.0

     negative rho (up, down):  2.485E-03 0.000E+00

     total cpu time spent up to now is      914.6 secs

     total energy              =    -786.94409529 Ry
     Harris-Foulkes estimate   =    -786.94421406 Ry
     estimated scf accuracy    <       0.00040474 Ry

     iteration # 17     ecut=    70.00 Ry     beta= 0.70
     Davidson diagonalization with overlap
     ethr =  1.91E-07,  avg # of iterations =  4.0

     negative rho (up, down):  2.496E-03 0.000E+00

     total cpu time spent up to now is      967.2 secs

     total energy              =    -786.94414876 Ry
     Harris-Foulkes estimate   =    -786.94419884 Ry
     estimated scf accuracy    <       0.00034140 Ry

     iteration # 18     ecut=    70.00 Ry     beta= 0.70
     Davidson diagonalization with overlap
     ethr =  1.61E-07,  avg # of iterations =  3.0

     negative rho (up, down):  2.501E-03 0.000E+00

     total cpu time spent up to now is     1016.0 secs

     total energy              =    -786.94417039 Ry
     Harris-Foulkes estimate   =    -786.94417274 Ry
     estimated scf accuracy    <       0.00001831 Ry

     iteration # 19     ecut=    70.00 Ry     beta= 0.70
     Davidson diagonalization with overlap
     ethr =  8.64E-09,  avg # of iterations =  4.0

     negative rho (up, down):  2.502E-03 0.000E+00

     total cpu time spent up to now is     1071.9 secs

     total energy              =    -786.94417405 Ry
     Harris-Foulkes estimate   =    -786.94417483 Ry
     estimated scf accuracy    <       0.00002233 Ry

     iteration # 20     ecut=    70.00 Ry     beta= 0.70
     Davidson diagonalization with overlap
     ethr =  8.64E-09,  avg # of iterations =  2.0

     negative rho (up, down):  2.503E-03 0.000E+00

     total cpu time spent up to now is     1120.8 secs

     total energy              =    -786.94417642 Ry
     Harris-Foulkes estimate   =    -786.94417542 Ry
     estimated scf accuracy    <       0.00000351 Ry

     iteration # 21     ecut=    70.00 Ry     beta= 0.70
     Davidson diagonalization with overlap
     ethr =  1.65E-09,  avg # of iterations =  3.0

     negative rho (up, down):  2.503E-03 0.000E+00

     total cpu time spent up to now is     1173.1 secs

     total energy              =    -786.94417760 Ry
     Harris-Foulkes estimate   =    -786.94417734 Ry
     estimated scf accuracy    <       0.00000379 Ry

     iteration # 22     ecut=    70.00 Ry     beta= 0.70
     Davidson diagonalization with overlap
     ethr =  1.65E-09,  avg # of iterations =  2.0

     negative rho (up, down):  2.503E-03 0.000E+00

     total cpu time spent up to now is     1223.5 secs

     total energy              =    -786.94417889 Ry
     Harris-Foulkes estimate   =    -786.94417797 Ry
     estimated scf accuracy    <       0.00000363 Ry

     iteration # 23     ecut=    70.00 Ry     beta= 0.70
     Davidson diagonalization with overlap
     ethr =  1.65E-09,  avg # of iterations =  3.0

     negative rho (up, down):  2.504E-03 0.000E+00

     total cpu time spent up to now is     1275.6 secs

     total energy              =    -786.94417997 Ry
     Harris-Foulkes estimate   =    -786.94417961 Ry
     estimated scf accuracy    <       0.00000134 Ry

     iteration # 24     ecut=    70.00 Ry     beta= 0.70
     Davidson diagonalization with overlap
     ethr =  6.31E-10,  avg # of iterations =  4.0

     negative rho (up, down):  2.506E-03 0.000E+00

     total cpu time spent up to now is     1331.2 secs

     End of self-consistent calculation

          k = 0.0000 0.0000 0.0000 ( 87777 PWs)   bands (ev):

   -71.8482 -44.1438 -44.1427 -43.0300 -19.6383 -18.7999 -18.7997 -18.7071
   -18.7065 -18.7058 -18.3356 -16.9525 -16.9522 -16.9470 -16.8415 -16.8412
   -16.5398 -16.0991 -16.0990 -15.9987 -15.9177 -15.9176 -15.2045 -13.9622
   -13.9622 -13.9190 -13.8683 -13.8681 -13.2051 -12.9433 -12.9431 -12.9138
   -12.5886 -12.5884 -12.1506 -11.7037 -11.7035 -11.5390 -11.2324 -11.2324
   -10.2665  -9.4836  -9.4836  -9.3251  -9.1909  -9.1908  -9.0979  -9.0665
    -9.0663  -9.0550  -8.5396  -8.5396  -7.9960  -7.9960  -7.8978  -7.7913
    -7.7086  -7.2878  -7.2877  -7.0365  -7.0358  -6.9810  -6.7063  -6.7062
    -6.6935  -6.6916  -6.6819  -6.6674  -6.6003  -6.4363  -6.4363  -6.4078
    -6.4029  -6.4026  -6.3905  -6.3544  -5.3980  -5.3980  -5.3269  -5.3267
    -5.0629  -5.0626  -4.8610  -4.7666  -4.6119  -4.5892  -4.5884  -4.2722
    -4.2562  -4.0397  -4.0396  -3.7229  -3.7224  -3.6410  -3.5432  -3.5431
    -3.4776  -3.4775  -3.0092  -2.4373  -2.4368  -1.7235  -1.6789  -1.6785
    -0.7205  -0.5432  -0.5431  -0.5032   1.0614   1.0830   1.0836   1.7733
     1.8664   1.8665   2.4532   2.9215   2.9224   2.9831   3.4072   3.4089
     3.4564   3.6435   3.6600   3.7062   3.7922   3.7989   3.8293

     occupation numbers 
     1.0000   1.0000   1.0000   1.0000   1.0000   1.0000   1.0000   1.0000
     1.0000   1.0000   1.0000   1.0000   1.0000   1.0000   1.0000   1.0000
     1.0000   1.0000   1.0000   1.0000   1.0000   1.0000   1.0000   1.0000
     1.0000   1.0000   1.0000   1.0000   1.0000   1.0000   1.0000   1.0000
     1.0000   1.0000   1.0000   1.0000   1.0000   1.0000   1.0000   1.0000
     1.0000   1.0000   1.0000   1.0000   1.0000   1.0000   1.0000   1.0000
     1.0000   1.0000   1.0000   1.0000   1.0000   1.0000   1.0000   1.0000
     1.0000   1.0000   1.0000   1.0000   1.0000   1.0000   1.0000   1.0000
     1.0000   1.0000   1.0000   1.0000   1.0000   1.0000   1.0000   1.0000
     1.0000   1.0000   1.0000   1.0000   1.0000   1.0000   1.0000   1.0000
     1.0000   1.0000   1.0000   1.0000   1.0000   1.0000   1.0000   1.0000
     1.0000   1.0000   1.0000   1.0000   1.0000   1.0000   1.0000   1.0000
     1.0000   1.0000   1.0000   1.0000   1.0000   1.0000   1.0000   1.0000
     1.0000   0.5018   0.4982   0.0000   0.0000   0.0000   0.0000   0.0000
     0.0000   0.0000   0.0000   0.0000   0.0000   0.0000   0.0000   0.0000
     0.0000   0.0000   0.0000   0.0000   0.0000   0.0000   0.0000

     the Fermi energy is    -0.5412 ev

!    total energy              =    -786.94418292 Ry
     Harris-Foulkes estimate   =    -786.94418273 Ry
     estimated scf accuracy    <       0.00000054 Ry

     The total energy is the sum of the following terms:

     one-electron contribution =   -2630.19112750 Ry
     hartree contribution      =    1360.73653795 Ry
     xc contribution           =    -254.33356635 Ry
     ewald contribution        =     736.84462935 Ry
     smearing contrib. (-TS)   =      -0.00065637 Ry

     convergence has been achieved in  24 iterations

     Writing output data file gr-12-sixhollow.save/

     init_run     :     51.70s CPU     52.96s WALL (       1 calls)
     electrons    :   1238.06s CPU   1277.30s WALL (       1 calls)

     Called by init_run:
     wfcinit      :     20.43s CPU     20.58s WALL (       1 calls)
     wfcinit:atom :      0.04s CPU      0.04s WALL (       1 calls)
     wfcinit:wfcr :     20.25s CPU     20.36s WALL (       1 calls)
     potinit      :     13.86s CPU     14.32s WALL (       1 calls)
     hinit0       :     12.79s CPU     12.82s WALL (       1 calls)

     Called by electrons:
     c_bands      :    749.20s CPU    753.86s WALL (      24 calls)
     sum_band     :    240.61s CPU    253.83s WALL (      24 calls)
     v_of_rho     :    150.71s CPU    159.85s WALL (      25 calls)
     v_h          :      1.76s CPU      1.83s WALL (      25 calls)
     v_xc         :    148.95s CPU    158.02s WALL (      25 calls)
     newd         :    100.04s CPU    113.07s WALL (      25 calls)
     mix_rho      :      4.71s CPU      4.78s WALL (      24 calls)

     Called by c_bands:
     init_us_2    :      2.09s CPU      2.14s WALL (      49 calls)
     cegterg      :    743.81s CPU    748.43s WALL (      24 calls)

     Called by sum_band:
     sum_band:bec :      0.02s CPU      0.02s WALL (      24 calls)
     addusdens    :    148.77s CPU    161.13s WALL (      24 calls)

     Called by *egterg:
     h_psi        :    394.25s CPU    397.42s WALL (     107 calls)
     s_psi        :    133.15s CPU    133.30s WALL (     107 calls)
     g_psi        :      0.42s CPU      0.42s WALL (      82 calls)
     cdiaghg      :      7.26s CPU      7.27s WALL (     106 calls)
     cegterg:over :     91.48s CPU     91.60s WALL (      82 calls)
     cegterg:upda :     55.21s CPU     55.58s WALL (      82 calls)
     cegterg:last :     38.80s CPU     38.83s WALL (      24 calls)

     Called by h_psi:
     h_psi:pot    :    393.81s CPU    396.47s WALL (     107 calls)
     h_psi:calbec :    133.05s CPU    133.20s WALL (     107 calls)
     vloc_psi     :    127.43s CPU    129.80s WALL (     107 calls)
     add_vuspsi   :    133.33s CPU    133.47s WALL (     107 calls)

     General routines
     calbec       :    189.77s CPU    190.01s WALL (     131 calls)
     fft          :     82.47s CPU     85.64s WALL (    1573 calls)
     ffts         :      0.84s CPU      0.87s WALL (      49 calls)
     fftw         :    135.04s CPU    137.67s WALL (   17406 calls)
     interpolate  :      2.00s CPU      2.07s WALL (      25 calls)

     Parallel routines
     fft_scatt_xy :     38.22s CPU     38.79s WALL (   19028 calls)
     fft_scatt_yz :     72.54s CPU     76.58s WALL (   19028 calls)

     PWSCF        :  21m30.95s CPU  22m11.68s WALL


   This run was terminated on:   9: 8:48  20Jul2022            

=------------------------------------------------------------------------------=
   JOB DONE.
=------------------------------------------------------------------------------=
