
     Program PWSCF v.6.4.1 starts on 17Mar2022 at 20:17:29 

     This program is part of the open-source Quantum ESPRESSO suite
     for quantum simulation of materials; please cite
         "P. Giannozzi et al., J. Phys.:Condens. Matter 21 395502 (2009);
         "P. Giannozzi et al., J. Phys.:Condens. Matter 29 465901 (2017);
          URL http://www.quantum-espresso.org", 
     in publications or presentations arising from this work. More details at
     http://www.quantum-espresso.org/quote

     Parallel version (MPI), running on     6 processors

     MPI processes distributed on     1 nodes
     R & G space division:  proc/nbgrp/npool/nimage =       6
     Reading input from cu-3.67.in
Warning: card CU1   63.546    CU.PBE-DN-RRKJUS_PSL.1.0.0.UPF ignored
Warning: card CU2   63.546    CU.PBE-DN-RRKJUS_PSL.1.0.0.UPF ignored

     Current dimensions of program PWSCF are:
     Max number of different atomic species (ntypx) = 10
     Max number of k-points (npk) =  40000
     Max angular momentum in pseudopotentials (lmaxx) =  3
               file Cu.pbe-dn-rrkjus_psl.1.0.0.UPF: wavefunction(s)  3D renormalized
               file Cu.pbe-dn-rrkjus_psl.1.0.0.UPF: wavefunction(s)  3D renormalized

     Subspace diagonalization in iterative solution of the eigenvalue problem:
     a serial algorithm will be used

     Found symmetry operation: I + (  0.0000 -0.5000 -0.5000)
     This is a supercell, fractional translations are disabled
     Message from routine setup:
     DEPRECATED: symmetry with ibrav=0, use correct ibrav instead

     Parallelization info
     --------------------
     sticks:   dense  smooth     PW     G-vecs:    dense   smooth      PW
     Min         357     204     59                12441     5371     839
     Max         358     205     60                12444     5372     843
     Sum        2145    1225    357                74653    32231    5041



     bravais-lattice index     =            0
     lattice parameter (alat)  =       6.9353  a.u.
     unit-cell volume          =     333.5760 (a.u.)^3
     number of atoms/cell      =            4
     number of atomic types    =            2
     number of electrons       =        44.00
     number of Kohn-Sham states=           26
     kinetic-energy cutoff     =      80.0000  Ry
     charge density cutoff     =     560.0000  Ry
     convergence threshold     =      1.0E-06
     mixing beta               =       0.7000
     number of iterations used =            8  plain     mixing
     Exchange-correlation      = PBE ( 1  4  3  4 0 0)

     celldm(1)=   6.935295  celldm(2)=   0.000000  celldm(3)=   0.000000
     celldm(4)=   0.000000  celldm(5)=   0.000000  celldm(6)=   0.000000

     crystal axes: (cart. coord. in units of alat)
               a(1) = (   1.000000   0.000000   0.000000 )  
               a(2) = (   0.000000   1.000000   0.000000 )  
               a(3) = (   0.000000   0.000000   1.000000 )  

     reciprocal axes: (cart. coord. in units 2 pi/alat)
               b(1) = (  1.000000  0.000000  0.000000 )  
               b(2) = (  0.000000  1.000000  0.000000 )  
               b(3) = (  0.000000  0.000000  1.000000 )  


     PseudoPot. # 1 for Cu read from file:
     /home/cristian/Escritorio/Proyecto_Grafeno/pseudopotenciales/Cu.pbe-dn-rrkjus_psl.1.0.0.UPF
     MD5 check sum: ba3d6c84e19846e79d48cdc68ff7152b
     Pseudo is Ultrasoft + core correction, Zval = 11.0
     Generated using "atomic" code by A. Dal Corso v.6.3
     Using radial grid of 1199 points,  6 beta functions with: 
                l(1) =   0
                l(2) =   0
                l(3) =   1
                l(4) =   1
                l(5) =   2
                l(6) =   2
     Q(r) pseudized with 0 coefficients 


     PseudoPot. # 2 for Cu read from file:
     /home/cristian/Escritorio/Proyecto_Grafeno/pseudopotenciales/Cu.pbe-dn-rrkjus_psl.1.0.0.UPF
     MD5 check sum: ba3d6c84e19846e79d48cdc68ff7152b
     Pseudo is Ultrasoft + core correction, Zval = 11.0
     Generated using "atomic" code by A. Dal Corso v.6.3
     Using radial grid of 1199 points,  6 beta functions with: 
                l(1) =   0
                l(2) =   0
                l(3) =   1
                l(4) =   1
                l(5) =   2
                l(6) =   2
     Q(r) pseudized with 0 coefficients 


     atomic species   valence    mass     pseudopotential
        Cu1           11.00    63.54600     Cu( 1.00)
        Cu2           11.00    63.54600     Cu( 1.00)

     Starting magnetic structure 
     atomic species   magnetization
        Cu1          0.100
        Cu2         -0.100

     16 Sym. Ops., with inversion, found



   Cartesian axes

     site n.     atom                  positions (alat units)
         1           Cu1 tau(   1) = (   0.0000000   0.0000000   0.0000000  )
         2           Cu2 tau(   2) = (   0.5000000   0.5000000   0.0000000  )
         3           Cu1 tau(   3) = (   0.0000000   0.5000000   0.5000000  )
         4           Cu2 tau(   4) = (   0.5000000   0.0000000   0.5000000  )

     number of k points=    40  Methfessel-Paxton smearing, width (Ry)=  0.0300
                       cart. coord. in units 2pi/alat
        k(    1) = (   0.0625000   0.0625000   0.0625000), wk =   0.0156250
        k(    2) = (   0.0625000   0.0625000   0.1875000), wk =   0.0312500
        k(    3) = (   0.0625000   0.0625000   0.3125000), wk =   0.0312500
        k(    4) = (   0.0625000   0.0625000   0.4375000), wk =   0.0312500
        k(    5) = (   0.0625000   0.1875000   0.1875000), wk =   0.0156250
        k(    6) = (   0.0625000   0.1875000   0.3125000), wk =   0.0312500
        k(    7) = (   0.0625000   0.1875000   0.4375000), wk =   0.0312500
        k(    8) = (   0.0625000   0.3125000   0.3125000), wk =   0.0156250
        k(    9) = (   0.0625000   0.3125000   0.4375000), wk =   0.0312500
        k(   10) = (   0.0625000   0.4375000   0.4375000), wk =   0.0156250
        k(   11) = (   0.1875000   0.1875000   0.1875000), wk =   0.0156250
        k(   12) = (   0.1875000   0.1875000   0.3125000), wk =   0.0312500
        k(   13) = (   0.1875000   0.1875000   0.4375000), wk =   0.0312500
        k(   14) = (   0.1875000   0.3125000   0.3125000), wk =   0.0156250
        k(   15) = (   0.1875000   0.3125000   0.4375000), wk =   0.0312500
        k(   16) = (   0.1875000   0.4375000   0.4375000), wk =   0.0156250
        k(   17) = (   0.3125000   0.3125000   0.3125000), wk =   0.0156250
        k(   18) = (   0.3125000   0.3125000   0.4375000), wk =   0.0312500
        k(   19) = (   0.3125000   0.4375000   0.4375000), wk =   0.0156250
        k(   20) = (   0.4375000   0.4375000   0.4375000), wk =   0.0156250
        k(   21) = (   0.1875000   0.0625000   0.0625000), wk =   0.0156250
        k(   22) = (   0.3125000   0.0625000   0.0625000), wk =   0.0156250
        k(   23) = (   0.4375000   0.0625000   0.0625000), wk =   0.0156250
        k(   24) = (   0.1875000   0.1875000   0.0625000), wk =   0.0312500
        k(   25) = (   0.1875000   0.3125000   0.0625000), wk =   0.0312500
        k(   26) = (   0.3125000   0.0625000   0.1875000), wk =   0.0312500
        k(   27) = (   0.1875000   0.4375000   0.0625000), wk =   0.0312500
        k(   28) = (   0.4375000   0.0625000   0.1875000), wk =   0.0312500
        k(   29) = (   0.3125000   0.3125000   0.0625000), wk =   0.0312500
        k(   30) = (   0.3125000   0.4375000   0.0625000), wk =   0.0312500
        k(   31) = (   0.4375000   0.0625000   0.3125000), wk =   0.0312500
        k(   32) = (   0.4375000   0.4375000   0.0625000), wk =   0.0312500
        k(   33) = (   0.3125000   0.1875000   0.1875000), wk =   0.0156250
        k(   34) = (   0.4375000   0.1875000   0.1875000), wk =   0.0156250
        k(   35) = (   0.3125000   0.3125000   0.1875000), wk =   0.0312500
        k(   36) = (   0.3125000   0.4375000   0.1875000), wk =   0.0312500
        k(   37) = (   0.4375000   0.1875000   0.3125000), wk =   0.0312500
        k(   38) = (   0.4375000   0.4375000   0.1875000), wk =   0.0312500
        k(   39) = (   0.4375000   0.3125000   0.3125000), wk =   0.0156250
        k(   40) = (   0.4375000   0.4375000   0.3125000), wk =   0.0312500

     Dense  grid:    74653 G-vectors     FFT dimensions: (  54,  54,  54)

     Smooth grid:    32231 G-vectors     FFT dimensions: (  40,  40,  40)

     Estimated max dynamical RAM per process >      74.47 MB

     Estimated total dynamical RAM >     446.83 MB
     Generating pointlists ...
     new r_m :   0.2917 (alat units)  2.0229 (a.u.) for type    1
     new r_m :   0.2917 (alat units)  2.0229 (a.u.) for type    2

     Initial potential from superposition of free atoms

     starting charge   43.99908, renormalised to   44.00000
     Starting wfcs are   36 randomized atomic wfcs

     total cpu time spent up to now is        4.6 secs

     Self-consistent Calculation

     iteration #  1     ecut=    80.00 Ry     beta= 0.70
     Davidson diagonalization with overlap
     ethr =  1.00E-02,  avg # of iterations =  2.5

     Threshold (ethr) on eigenvalues was too large:
     Diagonalizing with lowered threshold

     Davidson diagonalization with overlap
     ethr =  5.85E-04,  avg # of iterations =  2.3

     total cpu time spent up to now is       16.2 secs

     total energy              =    -490.84591314 Ry
     Harris-Foulkes estimate   =    -490.97816230 Ry
     estimated scf accuracy    <       0.30541466 Ry

     total magnetization       =    -0.00 Bohr mag/cell
     absolute magnetization    =     0.75 Bohr mag/cell

     iteration #  2     ecut=    80.00 Ry     beta= 0.70
     Davidson diagonalization with overlap
     ethr =  6.94E-04,  avg # of iterations =  2.5

     total cpu time spent up to now is       23.7 secs

     total energy              =    -490.83720323 Ry
     Harris-Foulkes estimate   =    -491.15634207 Ry
     estimated scf accuracy    <       0.83564330 Ry

     total magnetization       =     0.00 Bohr mag/cell
     absolute magnetization    =     0.17 Bohr mag/cell

     iteration #  3     ecut=    80.00 Ry     beta= 0.70
     Davidson diagonalization with overlap
     ethr =  6.94E-04,  avg # of iterations =  2.0

     total cpu time spent up to now is       31.2 secs

     total energy              =    -490.98538907 Ry
     Harris-Foulkes estimate   =    -490.98144140 Ry
     estimated scf accuracy    <       0.01525670 Ry

     total magnetization       =    -0.00 Bohr mag/cell
     absolute magnetization    =     0.24 Bohr mag/cell

     iteration #  4     ecut=    80.00 Ry     beta= 0.70
     Davidson diagonalization with overlap
     ethr =  3.47E-05,  avg # of iterations =  2.0

     total cpu time spent up to now is       36.8 secs

     total energy              =    -490.98737983 Ry
     Harris-Foulkes estimate   =    -490.98736487 Ry
     estimated scf accuracy    <       0.00004718 Ry

     total magnetization       =     0.00 Bohr mag/cell
     absolute magnetization    =     0.02 Bohr mag/cell

     iteration #  5     ecut=    80.00 Ry     beta= 0.70
     Davidson diagonalization with overlap
     ethr =  1.07E-07,  avg # of iterations =  3.5

     total cpu time spent up to now is       46.0 secs

     total energy              =    -490.98741143 Ry
     Harris-Foulkes estimate   =    -490.98746710 Ry
     estimated scf accuracy    <       0.00022315 Ry

     total magnetization       =    -0.00 Bohr mag/cell
     absolute magnetization    =     0.01 Bohr mag/cell

     iteration #  6     ecut=    80.00 Ry     beta= 0.70
     Davidson diagonalization with overlap
     ethr =  1.07E-07,  avg # of iterations =  2.1

     total cpu time spent up to now is       53.1 secs

     total energy              =    -490.98744256 Ry
     Harris-Foulkes estimate   =    -490.98744175 Ry
     estimated scf accuracy    <       0.00000709 Ry

     total magnetization       =     0.00 Bohr mag/cell
     absolute magnetization    =     0.01 Bohr mag/cell

     iteration #  7     ecut=    80.00 Ry     beta= 0.70
     Davidson diagonalization with overlap
     ethr =  1.61E-08,  avg # of iterations =  2.1

     Magnetic moment per site:
     atom:    1    charge:    9.8572    magn:    0.0000    constr:    0.0000
     atom:    2    charge:    9.8572    magn:   -0.0000    constr:    0.0000
     atom:    3    charge:    9.8573    magn:    0.0000    constr:    0.0000
     atom:    4    charge:    9.8572    magn:   -0.0000    constr:    0.0000

     total cpu time spent up to now is       58.9 secs

     End of self-consistent calculation

 ------ SPIN UP ------------


          k = 0.0625 0.0625 0.0625 (  3983 PWs)   bands (ev):

     2.9785   7.3206   7.3209   7.3212   7.7584   7.7584   7.7584   9.0065
     9.0601   9.0601   9.7944   9.7944  10.2812  10.2813  10.2814  10.3107
    10.3109  10.3110  10.4544  10.4546  10.4548  13.3250  13.3251  13.3251
    19.1285  19.1288

          k = 0.0625 0.0625 0.1875 (  4012 PWs)   bands (ev):

     3.3416   7.2833   7.4812   7.4813   7.8499   7.8560   7.8560   8.9136
     9.1339   9.1366   9.7078   9.8380   9.8458   9.8459  10.1169  10.1725
    10.1727  10.1921  10.3705  10.4461  10.4463  11.7876  14.0884  14.0884
    19.3092  19.3092

          k = 0.0625 0.0625 0.3125 (  4028 PWs)   bands (ev):

     4.0483   6.9990   7.7454   7.7455   8.0209   8.0525   8.0525   8.7321
     9.2719   9.2742   9.2742   9.2858   9.5794   9.6868   9.9190   9.9760
     9.9761   9.9993  10.2599  10.4430  10.4432  10.5101  15.2446  15.2446
    19.6666  19.6667

          k = 0.0625 0.0625 0.4375 (  4037 PWs)   bands (ev):

     5.0426   6.1626   7.9795   7.9796   8.2476   8.3460   8.3461   8.4974
     8.7629   8.7629   9.3021   9.3133   9.4968   9.6362   9.7477   9.7947
     9.7948   9.9472  10.0255  10.1434  10.4421  10.4423  16.6107  16.6107
    18.1718  18.1718

          k = 0.0625 0.1875 0.1875 (  4023 PWs)   bands (ev):

     3.6974   7.4614   7.4621   7.6231   7.9366   7.9397   7.9397   8.8662
     9.1702   9.1715   9.5991   9.6033   9.6035   9.6959   9.8499  10.0535
    10.1112  10.1113  10.3594  10.3595  10.3815  12.4943  12.4947  14.7190
    19.3966  19.6732

          k = 0.0625 0.1875 0.3125 (  4034 PWs)   bands (ev):

     4.3878   7.2139   7.7607   7.8607   8.0880   8.0965   8.1188   8.7268
     9.0664   9.1827   9.2142   9.2467   9.2921   9.6301   9.8910   9.9273
     9.9541   9.9662  10.2251  10.3297  10.3360  11.1265  13.4604  15.7446
    17.6360  19.9600

          k = 0.0625 0.1875 0.4375 (  4037 PWs)   bands (ev):

     5.3528   6.4272   8.0551   8.1103   8.2463   8.3024   8.3476   8.5249
     8.6468   8.7734   9.0831   9.1588   9.4688   9.6886   9.7289   9.7501
     9.7791   9.9998  10.1438  10.3169  10.3178  10.4294  14.5969  15.9084
    17.1541  18.6131

          k = 0.0625 0.3125 0.3125 (  4034 PWs)   bands (ev):

     5.0405   7.5749   7.5755   8.0072   8.1925   8.2481   8.2481   8.6771
     8.8492   8.8493   8.9944   9.1618   9.3445   9.6018   9.7538   9.8262
     9.8263  10.1506  10.1508  10.1553  10.2171  11.8954  11.8960  15.5554
    16.8081  20.4562

          k = 0.0625 0.3125 0.4375 (  4043 PWs)   bands (ev):

     5.9344   6.8946   7.9292   8.0753   8.3371   8.4092   8.4302   8.5630
     8.5978   8.7582   8.8770   9.0467   9.4453   9.6205   9.6439   9.6841
     9.6882   9.9192  10.1201  10.1415  10.4524  10.9404  12.8344  14.0383
    17.9748  19.4225

          k = 0.0625 0.4375 0.4375 (  4031 PWs)   bands (ev):

     6.6865   7.4199   7.4203   7.8246   8.5533   8.5533   8.5682   8.5812
     8.6914   8.7349   8.7352   8.9349   9.4212   9.5206   9.5207   9.5217
     9.7306   9.9023   9.9025   9.9848  10.8997  11.6154  11.6161  12.6011
    19.1278  20.5508

          k = 0.1875 0.1875 0.1875 (  4013 PWs)   bands (ev):

     4.0432   7.6032   7.6035   7.6038   8.0197   8.0198   8.0198   8.8422
     9.1797   9.1797   9.3935   9.3937   9.3937   9.7933   9.7934   9.9004
     9.9004   9.9006  10.3985  10.3986  10.3988  13.0058  13.0060  13.0062
    19.9900  19.9901

          k = 0.1875 0.1875 0.3125 (  4033 PWs)   bands (ev):

     4.7108   7.3637   7.8249   7.8249   8.1718   8.1718   8.1824   8.7474
     9.0521   9.0522   9.1081   9.1957   9.2263   9.6943   9.7626   9.7627
     9.7689   9.9469  10.3531  10.3533  10.3622  11.4706  13.8223  13.8223
    18.0913  18.0913

          k = 0.1875 0.1875 0.4375 (  4038 PWs)   bands (ev):

     5.6328   6.6371   8.0393   8.0394   8.2764   8.2766   8.3865   8.5852
     8.8194   8.8196   9.0153   9.1156   9.3309   9.4929   9.6477   9.6479
     9.9705  10.1144  10.2619  10.3072  10.3073  10.4949  14.7507  14.7507
    16.6258  16.6258

          k = 0.1875 0.3125 0.3125 (  4032 PWs)   bands (ev):

     5.3240   7.5755   7.5757   7.8583   8.3201   8.3600   8.3603   8.7563
     8.9183   8.9184   9.0072   9.1564   9.2073   9.5716   9.5717   9.5798
     9.8157  10.0923  10.3123  10.3232  10.3234  12.0999  12.1006  14.3139
    16.3884  18.8790

          k = 0.1875 0.3125 0.4375 (  4034 PWs)   bands (ev):

     6.1404   6.9766   7.7436   7.8332   8.4643   8.5030   8.5740   8.7087
     8.8738   8.9221   8.9573   9.0543   9.2547   9.3856   9.4730   9.4840
     9.9558  10.1941  10.2499  10.2517  10.3712  10.9385  12.9455  13.9474
    16.2026  17.3096

          k = 0.1875 0.4375 0.4375 (  4043 PWs)   bands (ev):

     6.7551   7.3169   7.3169   7.5943   8.6723   8.7672   8.7677   8.8490
     8.9058   8.9058   8.9739   9.0110   9.2270   9.3197   9.3197   9.3382
     9.9594  10.1126  10.1127  10.1496  10.8122  11.5969  11.5977  12.5935
    17.0713  18.3597

          k = 0.3125 0.3125 0.3125 (  4029 PWs)   bands (ev):

     5.8421   7.5507   7.5507   7.5508   8.5543   8.5545   8.5547   8.9138
     9.0366   9.0368   9.0370   9.1303   9.1303   9.3813   9.3813   9.3815
    10.0353  10.0353  10.3652  10.3653  10.3655  12.4940  12.4944  12.4949
    17.0463  17.0465

          k = 0.3125 0.3125 0.4375 (  4034 PWs)   bands (ev):

     6.4820   7.0863   7.5246   7.5246   8.6776   8.6778   8.8263   9.0285
     9.0651   9.0704   9.1351   9.1840   9.1842   9.2231   9.2879   9.2880
    10.2179  10.2481  10.3187  10.3188  10.3341  11.0743  12.9272  12.9273
    15.8625  15.8625

          k = 0.3125 0.4375 0.4375 (  4045 PWs)   bands (ev):

     6.8546   7.2003   7.2005   7.3404   8.8277   8.8857   8.8860   9.0161
     9.0823   9.1406   9.1406   9.1604   9.4072   9.4078   9.4370   9.4445
    10.1651  10.2856  10.2857  10.2891  10.6240  11.5406  11.5417  12.3194
    15.7214  16.6119

          k = 0.4375 0.4375 0.4375 (  4026 PWs)   bands (ev):

     6.9731   7.1299   7.1301   7.1303   8.9562   8.9562   8.9563   9.0191
     9.0191   9.0467   9.0468   9.0469   9.9063   9.9066   9.9069  10.3018
    10.3018  10.3451  10.3452  10.3454  10.3645  11.4447  11.4455  11.4463
    15.5909  15.5913

          k = 0.1875 0.0625 0.0625 (  4012 PWs)   bands (ev):

     3.3416   7.2833   7.4809   7.4815   7.8499   7.8560   7.8560   8.9136
     9.1339   9.1366   9.7078   9.8380   9.8458   9.8459  10.1169  10.1725
    10.1727  10.1921  10.3705  10.4459  10.4465  11.7876  14.0884  14.0884
    19.3089  19.3095

          k = 0.3125 0.0625 0.0625 (  4028 PWs)   bands (ev):

     4.0483   6.9990   7.7452   7.7457   8.0209   8.0525   8.0525   8.7321
     9.2719   9.2742   9.2742   9.2858   9.5794   9.6868   9.9190   9.9759
     9.9762   9.9993  10.2599  10.4428  10.4434  10.5101  15.2445  15.2446
    19.6664  19.6669

          k = 0.4375 0.0625 0.0625 (  4037 PWs)   bands (ev):

     5.0426   6.1626   7.9794   7.9798   8.2476   8.3460   8.3461   8.4974
     8.7629   8.7630   9.3021   9.3133   9.4968   9.6362   9.7476   9.7946
     9.7949   9.9472  10.0255  10.1434  10.4419  10.4425  16.6105  16.6108
    18.1717  18.1719

          k = 0.1875 0.1875 0.0625 (  4023 PWs)   bands (ev):

     3.6974   7.4617   7.4618   7.6231   7.9366   7.9397   7.9398   8.8662
     9.1702   9.1715   9.5991   9.6033   9.6035   9.6959   9.8500  10.0535
    10.1112  10.1113  10.3594  10.3594  10.3815  12.4945  12.4945  14.7190
    19.3966  19.6732

          k = 0.1875 0.3125 0.0625 (  4034 PWs)   bands (ev):

     4.3878   7.2139   7.7607   7.8607   8.0880   8.0965   8.1189   8.7268
     9.0664   9.1827   9.2142   9.2467   9.2921   9.6301   9.8910   9.9273
     9.9542   9.9662  10.2251  10.3297  10.3360  11.1265  13.4604  15.7446
    17.6360  19.9600

          k = 0.3125 0.0625 0.1875 (  4034 PWs)   bands (ev):

     4.3878   7.2139   7.7607   7.8607   8.0880   8.0965   8.1188   8.7268
     9.0664   9.1827   9.2142   9.2467   9.2921   9.6301   9.8910   9.9273
     9.9541   9.9662  10.2251  10.3297  10.3361  11.1265  13.4604  15.7446
    17.6360  19.9600

          k = 0.1875 0.4375 0.0625 (  4037 PWs)   bands (ev):

     5.3528   6.4272   8.0551   8.1103   8.2463   8.3024   8.3476   8.5249
     8.6468   8.7734   9.0831   9.1588   9.4688   9.6886   9.7289   9.7501
     9.7791   9.9998  10.1438  10.3169  10.3178  10.4294  14.5969  15.9084
    17.1541  18.6131

          k = 0.4375 0.0625 0.1875 (  4037 PWs)   bands (ev):

     5.3528   6.4272   8.0551   8.1103   8.2463   8.3024   8.3476   8.5249
     8.6468   8.7734   9.0831   9.1587   9.4688   9.6886   9.7289   9.7501
     9.7791   9.9998  10.1438  10.3168  10.3179  10.4294  14.5969  15.9084
    17.1541  18.6131

          k = 0.3125 0.3125 0.0625 (  4034 PWs)   bands (ev):

     5.0405   7.5752   7.5752   8.0072   8.1925   8.2480   8.2481   8.6771
     8.8492   8.8493   8.9944   9.1618   9.3445   9.6018   9.7538   9.8262
     9.8263  10.1506  10.1507  10.1553  10.2171  11.8957  11.8958  15.5554
    16.8081  20.4562

          k = 0.3125 0.4375 0.0625 (  4043 PWs)   bands (ev):

     5.9344   6.8945   7.9292   8.0753   8.3371   8.4092   8.4302   8.5630
     8.5978   8.7582   8.8770   9.0467   9.4453   9.6205   9.6439   9.6841
     9.6882   9.9192  10.1201  10.1415  10.4524  10.9404  12.8344  14.0383
    17.9748  19.4225

          k = 0.4375 0.0625 0.3125 (  4043 PWs)   bands (ev):

     5.9344   6.8946   7.9292   8.0753   8.3371   8.4092   8.4302   8.5630
     8.5978   8.7582   8.8770   9.0467   9.4453   9.6205   9.6439   9.6840
     9.6882   9.9192  10.1201  10.1415  10.4524  10.9404  12.8344  14.0383
    17.9748  19.4225

          k = 0.4375 0.4375 0.0625 (  4031 PWs)   bands (ev):

     6.6865   7.4201   7.4201   7.8246   8.5532   8.5534   8.5682   8.5812
     8.6914   8.7350   8.7351   8.9349   9.4211   9.5206   9.5207   9.5217
     9.7306   9.9023   9.9025   9.9848  10.8997  11.6157  11.6158  12.6011
    19.1278  20.5508

          k = 0.3125 0.1875 0.1875 (  4033 PWs)   bands (ev):

     4.7108   7.3637   7.8248   7.8250   8.1717   8.1719   8.1824   8.7474
     9.0521   9.0523   9.1081   9.1957   9.2263   9.6943   9.7625   9.7628
     9.7689   9.9469  10.3530  10.3534  10.3622  11.4706  13.8220  13.8226
    18.0912  18.0914

          k = 0.4375 0.1875 0.1875 (  4038 PWs)   bands (ev):

     5.6328   6.6371   8.0393   8.0395   8.2763   8.2766   8.3865   8.5853
     8.8193   8.8196   9.0153   9.1156   9.3309   9.4929   9.6476   9.6479
     9.9705  10.1144  10.2619  10.3070  10.3075  10.4949  14.7501  14.7513
    16.6254  16.6262

          k = 0.3125 0.3125 0.1875 (  4032 PWs)   bands (ev):

     5.3240   7.5756   7.5756   7.8583   8.3201   8.3601   8.3601   8.7564
     8.9183   8.9184   9.0072   9.1564   9.2073   9.5716   9.5717   9.5798
     9.8157  10.0923  10.3123  10.3232  10.3233  12.1002  12.1003  14.3139
    16.3884  18.8790

          k = 0.3125 0.4375 0.1875 (  4034 PWs)   bands (ev):

     6.1404   6.9766   7.7436   7.8332   8.4643   8.5030   8.5740   8.7087
     8.8738   8.9221   8.9573   9.0543   9.2547   9.3856   9.4730   9.4840
     9.9558  10.1941  10.2499  10.2517  10.3712  10.9385  12.9455  13.9474
    16.2026  17.3096

          k = 0.4375 0.1875 0.3125 (  4034 PWs)   bands (ev):

     6.1404   6.9766   7.7435   7.8332   8.4643   8.5030   8.5740   8.7087
     8.8738   8.9221   8.9573   9.0543   9.2547   9.3856   9.4730   9.4840
     9.9558  10.1941  10.2499  10.2517  10.3712  10.9385  12.9455  13.9474
    16.2026  17.3096

          k = 0.4375 0.4375 0.1875 (  4043 PWs)   bands (ev):

     6.7551   7.3169   7.3169   7.5943   8.6723   8.7674   8.7675   8.8490
     8.9058   8.9058   8.9739   9.0110   9.2270   9.3197   9.3197   9.3382
     9.9594  10.1126  10.1127  10.1496  10.8122  11.5972  11.5973  12.5935
    17.0713  18.3596

          k = 0.4375 0.3125 0.3125 (  4034 PWs)   bands (ev):

     6.4820   7.0863   7.5245   7.5248   8.6776   8.6778   8.8263   9.0285
     9.0651   9.0705   9.1351   9.1838   9.1844   9.2231   9.2878   9.2881
    10.2179  10.2481  10.3186  10.3189  10.3341  11.0743  12.9265  12.9279
    15.8620  15.8629

          k = 0.4375 0.4375 0.3125 (  4045 PWs)   bands (ev):

     6.8546   7.2004   7.2004   7.3404   8.8277   8.8858   8.8859   9.0161
     9.0823   9.1406   9.1406   9.1604   9.4075   9.4075   9.4371   9.4445
    10.1651  10.2856  10.2857  10.2891  10.6240  11.5411  11.5412  12.3194
    15.7214  16.6117

 ------ SPIN DOWN ----------


          k = 0.0625 0.0625 0.0625 (  3983 PWs)   bands (ev):

     2.9785   7.3205   7.3209   7.3213   7.7584   7.7584   7.7584   9.0065
     9.0601   9.0601   9.7944   9.7944  10.2813  10.2813  10.2814  10.3108
    10.3109  10.3109  10.4545  10.4546  10.4547  13.3250  13.3251  13.3251
    19.1285  19.1288

          k = 0.0625 0.0625 0.1875 (  4012 PWs)   bands (ev):

     3.3416   7.2833   7.4812   7.4813   7.8499   7.8560   7.8560   8.9136
     9.1339   9.1366   9.7078   9.8380   9.8458   9.8459  10.1169  10.1725
    10.1727  10.1921  10.3705  10.4461  10.4463  11.7876  14.0884  14.0884
    19.3092  19.3092

          k = 0.0625 0.0625 0.3125 (  4028 PWs)   bands (ev):

     4.0483   6.9990   7.7454   7.7455   8.0209   8.0525   8.0525   8.7321
     9.2719   9.2742   9.2742   9.2858   9.5794   9.6868   9.9190   9.9760
     9.9761   9.9993  10.2599  10.4430  10.4432  10.5101  15.2446  15.2446
    19.6666  19.6667

          k = 0.0625 0.0625 0.4375 (  4037 PWs)   bands (ev):

     5.0426   6.1626   7.9795   7.9796   8.2476   8.3460   8.3461   8.4974
     8.7629   8.7629   9.3021   9.3133   9.4968   9.6362   9.7477   9.7947
     9.7948   9.9472  10.0255  10.1434  10.4421  10.4423  16.6107  16.6107
    18.1718  18.1718

          k = 0.0625 0.1875 0.1875 (  4023 PWs)   bands (ev):

     3.6974   7.4613   7.4622   7.6231   7.9366   7.9397   7.9398   8.8662
     9.1702   9.1715   9.5991   9.6033   9.6036   9.6959   9.8500  10.0535
    10.1112  10.1112  10.3594  10.3594  10.3815  12.4944  12.4946  14.7190
    19.3966  19.6732

          k = 0.0625 0.1875 0.3125 (  4034 PWs)   bands (ev):

     4.3878   7.2139   7.7607   7.8607   8.0880   8.0965   8.1189   8.7268
     9.0664   9.1827   9.2142   9.2467   9.2921   9.6301   9.8910   9.9273
     9.9541   9.9662  10.2251  10.3297  10.3360  11.1265  13.4604  15.7446
    17.6360  19.9600

          k = 0.0625 0.1875 0.4375 (  4037 PWs)   bands (ev):

     5.3528   6.4271   8.0551   8.1103   8.2463   8.3024   8.3476   8.5249
     8.6468   8.7734   9.0831   9.1588   9.4688   9.6886   9.7289   9.7501
     9.7791   9.9998  10.1438  10.3169  10.3178  10.4294  14.5969  15.9084
    17.1541  18.6131

          k = 0.0625 0.3125 0.3125 (  4034 PWs)   bands (ev):

     5.0405   7.5749   7.5755   8.0072   8.1925   8.2480   8.2482   8.6771
     8.8490   8.8495   8.9944   9.1618   9.3445   9.6018   9.7538   9.8262
     9.8263  10.1507  10.1507  10.1553  10.2171  11.8955  11.8959  15.5554
    16.8081  20.4562

          k = 0.0625 0.3125 0.4375 (  4043 PWs)   bands (ev):

     5.9344   6.8945   7.9292   8.0753   8.3371   8.4092   8.4302   8.5630
     8.5978   8.7582   8.8770   9.0467   9.4453   9.6205   9.6439   9.6841
     9.6882   9.9192  10.1201  10.1415  10.4524  10.9404  12.8344  14.0383
    17.9748  19.4225

          k = 0.0625 0.4375 0.4375 (  4031 PWs)   bands (ev):

     6.6865   7.4200   7.4202   7.8246   8.5531   8.5535   8.5682   8.5812
     8.6914   8.7350   8.7351   8.9349   9.4212   9.5206   9.5208   9.5217
     9.7306   9.9023   9.9024   9.9848  10.8997  11.6156  11.6159  12.6011
    19.1278  20.5508

          k = 0.1875 0.1875 0.1875 (  4013 PWs)   bands (ev):

     4.0432   7.6031   7.6035   7.6039   8.0197   8.0198   8.0198   8.8422
     9.1797   9.1797   9.3935   9.3937   9.3938   9.7933   9.7934   9.9004
     9.9004   9.9006  10.3985  10.3986  10.3987  13.0058  13.0060  13.0062
    19.9900  19.9901

          k = 0.1875 0.1875 0.3125 (  4033 PWs)   bands (ev):

     4.7108   7.3637   7.8249   7.8250   8.1718   8.1718   8.1824   8.7474
     9.0521   9.0522   9.1081   9.1957   9.2263   9.6943   9.7626   9.7627
     9.7689   9.9469  10.3531  10.3533  10.3622  11.4706  13.8223  13.8223
    18.0913  18.0913

          k = 0.1875 0.1875 0.4375 (  4038 PWs)   bands (ev):

     5.6328   6.6371   8.0393   8.0395   8.2764   8.2766   8.3865   8.5853
     8.8194   8.8196   9.0153   9.1156   9.3309   9.4929   9.6477   9.6479
     9.9705  10.1144  10.2619  10.3072  10.3073  10.4949  14.7507  14.7507
    16.6258  16.6258

          k = 0.1875 0.3125 0.3125 (  4032 PWs)   bands (ev):

     5.3240   7.5755   7.5758   7.8583   8.3201   8.3599   8.3603   8.7564
     8.9182   8.9185   9.0072   9.1564   9.2073   9.5716   9.5717   9.5798
     9.8158  10.0923  10.3123  10.3233  10.3233  12.1000  12.1005  14.3139
    16.3884  18.8790

          k = 0.1875 0.3125 0.4375 (  4034 PWs)   bands (ev):

     6.1404   6.9766   7.7436   7.8332   8.4643   8.5030   8.5740   8.7087
     8.8738   8.9221   8.9573   9.0543   9.2547   9.3856   9.4730   9.4840
     9.9558  10.1941  10.2499  10.2517  10.3712  10.9385  12.9455  13.9474
    16.2026  17.3096

          k = 0.1875 0.4375 0.4375 (  4043 PWs)   bands (ev):

     6.7551   7.3169   7.3170   7.5943   8.6723   8.7673   8.7676   8.8490
     8.9057   8.9059   8.9739   9.0110   9.2270   9.3196   9.3198   9.3382
     9.9594  10.1126  10.1127  10.1496  10.8122  11.5970  11.5975  12.5935
    17.0713  18.3597

          k = 0.3125 0.3125 0.3125 (  4029 PWs)   bands (ev):

     5.8421   7.5507   7.5508   7.5508   8.5542   8.5545   8.5548   8.9138
     9.0367   9.0368   9.0369   9.1303   9.1303   9.3813   9.3814   9.3815
    10.0353  10.0353  10.3653  10.3654  10.3654  12.4940  12.4944  12.4949
    17.0463  17.0465

          k = 0.3125 0.3125 0.4375 (  4034 PWs)   bands (ev):

     6.4820   7.0863   7.5246   7.5246   8.6776   8.6778   8.8263   9.0285
     9.0651   9.0704   9.1351   9.1840   9.1842   9.2231   9.2879   9.2880
    10.2179  10.2481  10.3187  10.3188  10.3341  11.0743  12.9272  12.9273
    15.8625  15.8625

          k = 0.3125 0.4375 0.4375 (  4045 PWs)   bands (ev):

     6.8546   7.2003   7.2005   7.3404   8.8277   8.8858   8.8858   9.0161
     9.0823   9.1405   9.1406   9.1604   9.4072   9.4078   9.4370   9.4445
    10.1651  10.2857  10.2857  10.2891  10.6240  11.5407  11.5416  12.3194
    15.7214  16.6119

          k = 0.4375 0.4375 0.4375 (  4026 PWs)   bands (ev):

     6.9731   7.1300   7.1301   7.1303   8.9562   8.9562   8.9563   9.0191
     9.0191   9.0467   9.0467   9.0469   9.9063   9.9066   9.9069  10.3018
    10.3018  10.3452  10.3452  10.3453  10.3645  11.4447  11.4455  11.4463
    15.5909  15.5913

          k = 0.1875 0.0625 0.0625 (  4012 PWs)   bands (ev):

     3.3416   7.2833   7.4808   7.4816   7.8499   7.8560   7.8560   8.9136
     9.1339   9.1366   9.7078   9.8380   9.8458   9.8459  10.1169  10.1726
    10.1726  10.1921  10.3705  10.4462  10.4462  11.7876  14.0884  14.0884
    19.3089  19.3095

          k = 0.3125 0.0625 0.0625 (  4028 PWs)   bands (ev):

     4.0483   6.9990   7.7451   7.7459   8.0209   8.0525   8.0525   8.7321
     9.2719   9.2742   9.2742   9.2858   9.5794   9.6868   9.9190   9.9760
     9.9761   9.9993  10.2599  10.4431  10.4431  10.5101  15.2445  15.2446
    19.6664  19.6669

          k = 0.4375 0.0625 0.0625 (  4037 PWs)   bands (ev):

     5.0426   6.1626   7.9791   7.9800   8.2476   8.3460   8.3461   8.4974
     8.7629   8.7629   9.3021   9.3133   9.4968   9.6362   9.7477   9.7947
     9.7948   9.9472  10.0255  10.1434  10.4421  10.4422  16.6105  16.6108
    18.1717  18.1719

          k = 0.1875 0.1875 0.0625 (  4023 PWs)   bands (ev):

     3.6974   7.4617   7.4618   7.6231   7.9366   7.9397   7.9398   8.8662
     9.1702   9.1715   9.5991   9.6033   9.6035   9.6959   9.8500  10.0535
    10.1112  10.1113  10.3594  10.3595  10.3815  12.4945  12.4945  14.7190
    19.3966  19.6732

          k = 0.1875 0.3125 0.0625 (  4034 PWs)   bands (ev):

     4.3878   7.2139   7.7607   7.8607   8.0880   8.0965   8.1189   8.7268
     9.0664   9.1827   9.2142   9.2467   9.2921   9.6301   9.8910   9.9273
     9.9542   9.9662  10.2251  10.3297  10.3360  11.1265  13.4604  15.7446
    17.6360  19.9600

          k = 0.3125 0.0625 0.1875 (  4034 PWs)   bands (ev):

     4.3878   7.2139   7.7607   7.8607   8.0880   8.0965   8.1189   8.7268
     9.0664   9.1827   9.2142   9.2467   9.2921   9.6301   9.8910   9.9273
     9.9541   9.9662  10.2251  10.3297  10.3360  11.1265  13.4604  15.7446
    17.6360  19.9600

          k = 0.1875 0.4375 0.0625 (  4037 PWs)   bands (ev):

     5.3528   6.4271   8.0551   8.1103   8.2463   8.3024   8.3476   8.5249
     8.6468   8.7734   9.0831   9.1588   9.4688   9.6886   9.7289   9.7501
     9.7791   9.9998  10.1438  10.3169  10.3178  10.4294  14.5969  15.9084
    17.1541  18.6131

          k = 0.4375 0.0625 0.1875 (  4037 PWs)   bands (ev):

     5.3528   6.4271   8.0551   8.1103   8.2463   8.3024   8.3476   8.5249
     8.6468   8.7734   9.0831   9.1587   9.4688   9.6886   9.7289   9.7501
     9.7791   9.9998  10.1438  10.3169  10.3178  10.4294  14.5969  15.9084
    17.1541  18.6131

          k = 0.3125 0.3125 0.0625 (  4034 PWs)   bands (ev):

     5.0405   7.5752   7.5752   8.0072   8.1925   8.2480   8.2481   8.6771
     8.8492   8.8493   8.9944   9.1618   9.3445   9.6018   9.7538   9.8262
     9.8263  10.1506  10.1507  10.1553  10.2171  11.8957  11.8958  15.5554
    16.8081  20.4562

          k = 0.3125 0.4375 0.0625 (  4043 PWs)   bands (ev):

     5.9344   6.8945   7.9292   8.0753   8.3371   8.4092   8.4302   8.5630
     8.5978   8.7582   8.8770   9.0467   9.4453   9.6205   9.6439   9.6841
     9.6882   9.9192  10.1201  10.1415  10.4524  10.9404  12.8344  14.0383
    17.9748  19.4225

          k = 0.4375 0.0625 0.3125 (  4043 PWs)   bands (ev):

     5.9344   6.8945   7.9292   8.0753   8.3371   8.4092   8.4302   8.5630
     8.5978   8.7582   8.8770   9.0467   9.4453   9.6205   9.6439   9.6840
     9.6882   9.9192  10.1201  10.1415  10.4524  10.9404  12.8344  14.0383
    17.9748  19.4225

          k = 0.4375 0.4375 0.0625 (  4031 PWs)   bands (ev):

     6.6865   7.4201   7.4201   7.8246   8.5532   8.5534   8.5682   8.5812
     8.6914   8.7350   8.7351   8.9349   9.4212   9.5206   9.5207   9.5217
     9.7306   9.9023   9.9025   9.9848  10.8997  11.6157  11.6158  12.6011
    19.1278  20.5508

          k = 0.3125 0.1875 0.1875 (  4033 PWs)   bands (ev):

     4.7108   7.3637   7.8247   7.8251   8.1716   8.1720   8.1824   8.7474
     9.0521   9.0522   9.1081   9.1957   9.2263   9.6943   9.7626   9.7627
     9.7689   9.9469  10.3532  10.3532  10.3622  11.4706  13.8220  13.8226
    18.0912  18.0914

          k = 0.4375 0.1875 0.1875 (  4038 PWs)   bands (ev):

     5.6328   6.6371   8.0393   8.0395   8.2761   8.2768   8.3865   8.5853
     8.8194   8.8195   9.0153   9.1156   9.3309   9.4929   9.6477   9.6479
     9.9705  10.1144  10.2619  10.3072  10.3073  10.4949  14.7501  14.7514
    16.6254  16.6262

          k = 0.3125 0.3125 0.1875 (  4032 PWs)   bands (ev):

     5.3240   7.5756   7.5756   7.8583   8.3201   8.3601   8.3601   8.7564
     8.9183   8.9184   9.0072   9.1564   9.2073   9.5716   9.5717   9.5798
     9.8157  10.0924  10.3123  10.3232  10.3233  12.1002  12.1003  14.3139
    16.3884  18.8790

          k = 0.3125 0.4375 0.1875 (  4034 PWs)   bands (ev):

     6.1404   6.9766   7.7436   7.8332   8.4643   8.5030   8.5740   8.7087
     8.8738   8.9221   8.9573   9.0543   9.2547   9.3856   9.4730   9.4840
     9.9558  10.1941  10.2499  10.2517  10.3712  10.9385  12.9455  13.9474
    16.2026  17.3096

          k = 0.4375 0.1875 0.3125 (  4034 PWs)   bands (ev):

     6.1404   6.9766   7.7435   7.8332   8.4643   8.5030   8.5740   8.7087
     8.8738   8.9221   8.9573   9.0543   9.2547   9.3856   9.4730   9.4840
     9.9558  10.1941  10.2499  10.2517  10.3712  10.9385  12.9455  13.9474
    16.2026  17.3096

          k = 0.4375 0.4375 0.1875 (  4043 PWs)   bands (ev):

     6.7551   7.3169   7.3169   7.5943   8.6723   8.7674   8.7675   8.8490
     8.9058   8.9058   8.9739   9.0110   9.2270   9.3197   9.3197   9.3382
     9.9594  10.1126  10.1127  10.1496  10.8122  11.5972  11.5973  12.5935
    17.0713  18.3596

          k = 0.4375 0.3125 0.3125 (  4034 PWs)   bands (ev):

     6.4820   7.0863   7.5245   7.5247   8.6774   8.6780   8.8263   9.0285
     9.0651   9.0705   9.1351   9.1840   9.1842   9.2231   9.2879   9.2880
    10.2179  10.2481  10.3188  10.3188  10.3341  11.0743  12.9265  12.9280
    15.8620  15.8629

          k = 0.4375 0.4375 0.3125 (  4045 PWs)   bands (ev):

     6.8546   7.2004   7.2004   7.3404   8.8277   8.8858   8.8859   9.0161
     9.0823   9.1406   9.1406   9.1604   9.4075   9.4075   9.4371   9.4445
    10.1651  10.2856  10.2857  10.2891  10.6240  11.5411  11.5412  12.3194
    15.7214  16.6117

     the Fermi energy is    11.8614 ev

!    total energy              =    -490.98744383 Ry
     Harris-Foulkes estimate   =    -490.98744372 Ry
     estimated scf accuracy    <       0.00000007 Ry

     The total energy is the sum of the following terms:

     one-electron contribution =    -117.84677683 Ry
     hartree contribution      =     125.25764356 Ry
     xc contribution           =    -178.43017200 Ry
     ewald contribution        =    -319.96811576 Ry
     smearing contrib. (-TS)   =      -0.00002281 Ry

     total magnetization       =     0.00 Bohr mag/cell
     absolute magnetization    =     0.00 Bohr mag/cell

     convergence has been achieved in   7 iterations

     Writing output data file cu-3.67.save/

     init_run     :      3.18s CPU      3.29s WALL (       1 calls)
     electrons    :     52.55s CPU     54.29s WALL (       1 calls)

     Called by init_run:
     wfcinit      :      2.60s CPU      2.67s WALL (       1 calls)
     potinit      :      0.08s CPU      0.08s WALL (       1 calls)
     hinit0       :      0.30s CPU      0.30s WALL (       1 calls)

     Called by electrons:
     c_bands      :     44.91s CPU     46.05s WALL (       8 calls)
     sum_band     :      6.53s CPU      6.94s WALL (       8 calls)
     v_of_rho     :      0.35s CPU      0.36s WALL (       8 calls)
     newd         :      0.82s CPU      1.03s WALL (       8 calls)
     mix_rho      :      0.05s CPU      0.05s WALL (       8 calls)

     Called by c_bands:
     init_us_2    :      0.51s CPU      0.52s WALL (    1360 calls)
     cegterg      :     42.43s CPU     43.56s WALL (     640 calls)

     Called by sum_band:
     sum_band:bec :      0.03s CPU      0.03s WALL (     640 calls)
     addusdens    :      1.02s CPU      1.18s WALL (       8 calls)

     Called by *egterg:
     h_psi        :     26.03s CPU     27.16s WALL (    2240 calls)
     s_psi        :      3.39s CPU      3.40s WALL (    2240 calls)
     g_psi        :      0.15s CPU      0.15s WALL (    1520 calls)
     cdiaghg      :      2.76s CPU      2.77s WALL (    2080 calls)

     Called by h_psi:
     h_psi:pot    :     25.94s CPU     27.07s WALL (    2240 calls)
     h_psi:calbec :      5.07s CPU      5.27s WALL (    2240 calls)
     vloc_psi     :     17.34s CPU     18.24s WALL (    2240 calls)
     add_vuspsi   :      3.53s CPU      3.56s WALL (    2240 calls)

     General routines
     calbec       :      6.84s CPU      7.12s WALL (    2880 calls)
     fft          :      0.20s CPU      0.20s WALL (     196 calls)
     ffts         :      0.01s CPU      0.01s WALL (      32 calls)
     fftw         :     18.80s CPU     19.76s WALL (  107216 calls)
     interpolate  :      0.02s CPU      0.02s WALL (      16 calls)

     Parallel routines
     fft_scatt_xy :      1.49s CPU      1.57s WALL (  107444 calls)
     fft_scatt_yz :      9.52s CPU      9.98s WALL (  107444 calls)

     PWSCF        :     57.21s CPU     59.16s WALL


   This run was terminated on:  20:18:28  17Mar2022            

=------------------------------------------------------------------------------=
   JOB DONE.
=------------------------------------------------------------------------------=
