
     Program PWSCF v.6.4.1 starts on 17Mar2022 at 20:10:52 

     This program is part of the open-source Quantum ESPRESSO suite
     for quantum simulation of materials; please cite
         "P. Giannozzi et al., J. Phys.:Condens. Matter 21 395502 (2009);
         "P. Giannozzi et al., J. Phys.:Condens. Matter 29 465901 (2017);
          URL http://www.quantum-espresso.org", 
     in publications or presentations arising from this work. More details at
     http://www.quantum-espresso.org/quote

     Parallel version (MPI), running on     6 processors

     MPI processes distributed on     1 nodes
     R & G space division:  proc/nbgrp/npool/nimage =       6
     Reading input from cu-3.53.in
Warning: card CU1   63.546    CU.PBE-DN-RRKJUS_PSL.1.0.0.UPF ignored
Warning: card CU2   63.546    CU.PBE-DN-RRKJUS_PSL.1.0.0.UPF ignored

     Current dimensions of program PWSCF are:
     Max number of different atomic species (ntypx) = 10
     Max number of k-points (npk) =  40000
     Max angular momentum in pseudopotentials (lmaxx) =  3
               file Cu.pbe-dn-rrkjus_psl.1.0.0.UPF: wavefunction(s)  3D renormalized
               file Cu.pbe-dn-rrkjus_psl.1.0.0.UPF: wavefunction(s)  3D renormalized

     Subspace diagonalization in iterative solution of the eigenvalue problem:
     a serial algorithm will be used

     Found symmetry operation: I + (  0.0000 -0.5000 -0.5000)
     This is a supercell, fractional translations are disabled
     Message from routine setup:
     DEPRECATED: symmetry with ibrav=0, use correct ibrav instead

     Parallelization info
     --------------------
     sticks:   dense  smooth     PW     G-vecs:    dense   smooth      PW
     Min         332     187     55                11088     4757     757
     Max         333     189     56                11091     4759     760
     Sum        1993    1125    333                66539    28545    4553



     bravais-lattice index     =            0
     lattice parameter (alat)  =       6.6707  a.u.
     unit-cell volume          =     296.8388 (a.u.)^3
     number of atoms/cell      =            4
     number of atomic types    =            2
     number of electrons       =        44.00
     number of Kohn-Sham states=           26
     kinetic-energy cutoff     =      80.0000  Ry
     charge density cutoff     =     560.0000  Ry
     convergence threshold     =      1.0E-06
     mixing beta               =       0.7000
     number of iterations used =            8  plain     mixing
     Exchange-correlation      = PBE ( 1  4  3  4 0 0)

     celldm(1)=   6.670733  celldm(2)=   0.000000  celldm(3)=   0.000000
     celldm(4)=   0.000000  celldm(5)=   0.000000  celldm(6)=   0.000000

     crystal axes: (cart. coord. in units of alat)
               a(1) = (   1.000000   0.000000   0.000000 )  
               a(2) = (   0.000000   1.000000   0.000000 )  
               a(3) = (   0.000000   0.000000   1.000000 )  

     reciprocal axes: (cart. coord. in units 2 pi/alat)
               b(1) = (  1.000000  0.000000  0.000000 )  
               b(2) = (  0.000000  1.000000  0.000000 )  
               b(3) = (  0.000000  0.000000  1.000000 )  


     PseudoPot. # 1 for Cu read from file:
     /home/cristian/Escritorio/Proyecto_Grafeno/pseudopotenciales/Cu.pbe-dn-rrkjus_psl.1.0.0.UPF
     MD5 check sum: ba3d6c84e19846e79d48cdc68ff7152b
     Pseudo is Ultrasoft + core correction, Zval = 11.0
     Generated using "atomic" code by A. Dal Corso v.6.3
     Using radial grid of 1199 points,  6 beta functions with: 
                l(1) =   0
                l(2) =   0
                l(3) =   1
                l(4) =   1
                l(5) =   2
                l(6) =   2
     Q(r) pseudized with 0 coefficients 


     PseudoPot. # 2 for Cu read from file:
     /home/cristian/Escritorio/Proyecto_Grafeno/pseudopotenciales/Cu.pbe-dn-rrkjus_psl.1.0.0.UPF
     MD5 check sum: ba3d6c84e19846e79d48cdc68ff7152b
     Pseudo is Ultrasoft + core correction, Zval = 11.0
     Generated using "atomic" code by A. Dal Corso v.6.3
     Using radial grid of 1199 points,  6 beta functions with: 
                l(1) =   0
                l(2) =   0
                l(3) =   1
                l(4) =   1
                l(5) =   2
                l(6) =   2
     Q(r) pseudized with 0 coefficients 


     atomic species   valence    mass     pseudopotential
        Cu1           11.00    63.54600     Cu( 1.00)
        Cu2           11.00    63.54600     Cu( 1.00)

     Starting magnetic structure 
     atomic species   magnetization
        Cu1          0.100
        Cu2         -0.100

     16 Sym. Ops., with inversion, found



   Cartesian axes

     site n.     atom                  positions (alat units)
         1           Cu1 tau(   1) = (   0.0000000   0.0000000   0.0000000  )
         2           Cu2 tau(   2) = (   0.5000000   0.5000000   0.0000000  )
         3           Cu1 tau(   3) = (   0.0000000   0.5000000   0.5000000  )
         4           Cu2 tau(   4) = (   0.5000000   0.0000000   0.5000000  )

     number of k points=    40  Methfessel-Paxton smearing, width (Ry)=  0.0300
                       cart. coord. in units 2pi/alat
        k(    1) = (   0.0625000   0.0625000   0.0625000), wk =   0.0156250
        k(    2) = (   0.0625000   0.0625000   0.1875000), wk =   0.0312500
        k(    3) = (   0.0625000   0.0625000   0.3125000), wk =   0.0312500
        k(    4) = (   0.0625000   0.0625000   0.4375000), wk =   0.0312500
        k(    5) = (   0.0625000   0.1875000   0.1875000), wk =   0.0156250
        k(    6) = (   0.0625000   0.1875000   0.3125000), wk =   0.0312500
        k(    7) = (   0.0625000   0.1875000   0.4375000), wk =   0.0312500
        k(    8) = (   0.0625000   0.3125000   0.3125000), wk =   0.0156250
        k(    9) = (   0.0625000   0.3125000   0.4375000), wk =   0.0312500
        k(   10) = (   0.0625000   0.4375000   0.4375000), wk =   0.0156250
        k(   11) = (   0.1875000   0.1875000   0.1875000), wk =   0.0156250
        k(   12) = (   0.1875000   0.1875000   0.3125000), wk =   0.0312500
        k(   13) = (   0.1875000   0.1875000   0.4375000), wk =   0.0312500
        k(   14) = (   0.1875000   0.3125000   0.3125000), wk =   0.0156250
        k(   15) = (   0.1875000   0.3125000   0.4375000), wk =   0.0312500
        k(   16) = (   0.1875000   0.4375000   0.4375000), wk =   0.0156250
        k(   17) = (   0.3125000   0.3125000   0.3125000), wk =   0.0156250
        k(   18) = (   0.3125000   0.3125000   0.4375000), wk =   0.0312500
        k(   19) = (   0.3125000   0.4375000   0.4375000), wk =   0.0156250
        k(   20) = (   0.4375000   0.4375000   0.4375000), wk =   0.0156250
        k(   21) = (   0.1875000   0.0625000   0.0625000), wk =   0.0156250
        k(   22) = (   0.3125000   0.0625000   0.0625000), wk =   0.0156250
        k(   23) = (   0.4375000   0.0625000   0.0625000), wk =   0.0156250
        k(   24) = (   0.1875000   0.1875000   0.0625000), wk =   0.0312500
        k(   25) = (   0.1875000   0.3125000   0.0625000), wk =   0.0312500
        k(   26) = (   0.3125000   0.0625000   0.1875000), wk =   0.0312500
        k(   27) = (   0.1875000   0.4375000   0.0625000), wk =   0.0312500
        k(   28) = (   0.4375000   0.0625000   0.1875000), wk =   0.0312500
        k(   29) = (   0.3125000   0.3125000   0.0625000), wk =   0.0312500
        k(   30) = (   0.3125000   0.4375000   0.0625000), wk =   0.0312500
        k(   31) = (   0.4375000   0.0625000   0.3125000), wk =   0.0312500
        k(   32) = (   0.4375000   0.4375000   0.0625000), wk =   0.0312500
        k(   33) = (   0.3125000   0.1875000   0.1875000), wk =   0.0156250
        k(   34) = (   0.4375000   0.1875000   0.1875000), wk =   0.0156250
        k(   35) = (   0.3125000   0.3125000   0.1875000), wk =   0.0312500
        k(   36) = (   0.3125000   0.4375000   0.1875000), wk =   0.0312500
        k(   37) = (   0.4375000   0.1875000   0.3125000), wk =   0.0312500
        k(   38) = (   0.4375000   0.4375000   0.1875000), wk =   0.0312500
        k(   39) = (   0.4375000   0.3125000   0.3125000), wk =   0.0156250
        k(   40) = (   0.4375000   0.4375000   0.3125000), wk =   0.0312500

     Dense  grid:    66539 G-vectors     FFT dimensions: (  54,  54,  54)

     Smooth grid:    28545 G-vectors     FFT dimensions: (  40,  40,  40)

     Estimated max dynamical RAM per process >      66.94 MB

     Estimated total dynamical RAM >     401.66 MB
     Generating pointlists ...
     new r_m :   0.2917 (alat units)  1.9457 (a.u.) for type    1
     new r_m :   0.2917 (alat units)  1.9457 (a.u.) for type    2

     Initial potential from superposition of free atoms

     starting charge   43.99908, renormalised to   44.00000
     Starting wfcs are   36 randomized atomic wfcs

     total cpu time spent up to now is        4.5 secs

     Self-consistent Calculation

     iteration #  1     ecut=    80.00 Ry     beta= 0.70
     Davidson diagonalization with overlap
     ethr =  1.00E-02,  avg # of iterations =  2.6

     Threshold (ethr) on eigenvalues was too large:
     Diagonalizing with lowered threshold

     Davidson diagonalization with overlap
     ethr =  7.20E-04,  avg # of iterations =  2.0

     total cpu time spent up to now is       15.2 secs

     total energy              =    -490.80440606 Ry
     Harris-Foulkes estimate   =    -490.98090394 Ry
     estimated scf accuracy    <       0.36314033 Ry

     total magnetization       =    -0.00 Bohr mag/cell
     absolute magnetization    =     0.72 Bohr mag/cell

     iteration #  2     ecut=    80.00 Ry     beta= 0.70
     Davidson diagonalization with overlap
     ethr =  8.25E-04,  avg # of iterations =  2.5

     total cpu time spent up to now is       22.3 secs

     total energy              =    -490.80891637 Ry
     Harris-Foulkes estimate   =    -491.16763665 Ry
     estimated scf accuracy    <       0.90443703 Ry

     total magnetization       =     0.00 Bohr mag/cell
     absolute magnetization    =     0.17 Bohr mag/cell

     iteration #  3     ecut=    80.00 Ry     beta= 0.70
     Davidson diagonalization with overlap
     ethr =  8.25E-04,  avg # of iterations =  2.0

     total cpu time spent up to now is       29.1 secs

     total energy              =    -490.97316892 Ry
     Harris-Foulkes estimate   =    -490.96929031 Ry
     estimated scf accuracy    <       0.01465370 Ry

     total magnetization       =    -0.00 Bohr mag/cell
     absolute magnetization    =     0.22 Bohr mag/cell

     iteration #  4     ecut=    80.00 Ry     beta= 0.70
     Davidson diagonalization with overlap
     ethr =  3.33E-05,  avg # of iterations =  2.0

     total cpu time spent up to now is       34.3 secs

     total energy              =    -490.97502545 Ry
     Harris-Foulkes estimate   =    -490.97502581 Ry
     estimated scf accuracy    <       0.00006127 Ry

     total magnetization       =    -0.00 Bohr mag/cell
     absolute magnetization    =     0.02 Bohr mag/cell

     iteration #  5     ecut=    80.00 Ry     beta= 0.70
     Davidson diagonalization with overlap
     ethr =  1.39E-07,  avg # of iterations =  3.6

     total cpu time spent up to now is       42.7 secs

     total energy              =    -490.97502781 Ry
     Harris-Foulkes estimate   =    -490.97515490 Ry
     estimated scf accuracy    <       0.00052113 Ry

     total magnetization       =    -0.00 Bohr mag/cell
     absolute magnetization    =     0.01 Bohr mag/cell

     iteration #  6     ecut=    80.00 Ry     beta= 0.70
     Davidson diagonalization with overlap
     ethr =  1.39E-07,  avg # of iterations =  2.5

     total cpu time spent up to now is       49.6 secs

     total energy              =    -490.97509231 Ry
     Harris-Foulkes estimate   =    -490.97509115 Ry
     estimated scf accuracy    <       0.00000459 Ry

     total magnetization       =    -0.00 Bohr mag/cell
     absolute magnetization    =     0.01 Bohr mag/cell

     iteration #  7     ecut=    80.00 Ry     beta= 0.70
     Davidson diagonalization with overlap
     ethr =  1.04E-08,  avg # of iterations =  2.3

     Magnetic moment per site:
     atom:    1    charge:    9.7754    magn:    0.0000    constr:    0.0000
     atom:    2    charge:    9.7751    magn:   -0.0000    constr:    0.0000
     atom:    3    charge:    9.7749    magn:    0.0000    constr:    0.0000
     atom:    4    charge:    9.7751    magn:   -0.0000    constr:    0.0000

     total cpu time spent up to now is       55.6 secs

     End of self-consistent calculation

 ------ SPIN UP ------------


          k = 0.0625 0.0625 0.0625 (  3626 PWs)   bands (ev):

     4.1473   8.6862   8.6867   8.6869   9.2018   9.2018   9.2018  10.6986
    10.7634  10.7634  11.6446  11.6446  12.2265  12.2267  12.2270  12.2485
    12.2488  12.2490  12.4340  12.4342  12.4346  15.3496  15.3496  15.3496
    22.0126  22.0129

          k = 0.0625 0.0625 0.1875 (  3614 PWs)   bands (ev):

     4.5414   8.6598   8.8713   8.8716   9.3104   9.3177   9.3178  10.5857
    10.8511  10.8545  11.5392  11.6781  11.6782  11.6967  12.0097  12.0935
    12.0939  12.1184  12.3334  12.4237  12.4244  13.7835  16.2378  16.2378
    22.1777  22.1777

          k = 0.0625 0.0625 0.3125 (  3584 PWs)   bands (ev):

     5.3057   8.3901   9.1762   9.1766   9.5136   9.5509   9.5509  10.3662
    10.9959  10.9959  11.0148  11.0320  11.3830  11.4915  11.7934  11.8557
    11.8563  11.8856  12.2013  12.4199  12.4206  12.4499  17.5388  17.5388
    22.3573  22.3574

          k = 0.0625 0.0625 0.4375 (  3572 PWs)   bands (ev):

     6.3715   7.5475   9.4457   9.4462   9.7842   9.8990   9.8991  10.0836
    10.3915  10.3916  11.0484  11.0598  11.2835  11.4496  11.5834  11.6381
    11.6387  11.8174  11.9208  12.0618  12.4188  12.4195  19.0409  19.0410
    20.7502  20.7502

          k = 0.0625 0.1875 0.1875 (  3605 PWs)   bands (ev):

     4.9268   8.8629   8.8635   9.0373   9.4124   9.4170   9.4170  10.5272
    10.8938  10.8962  11.3803  11.3916  11.3916  11.5243  11.7102  11.9502
    12.0178  12.0178  12.3193  12.3194  12.3464  14.6043  14.6047  16.9533
    22.0206  22.6403

          k = 0.0625 0.1875 0.3125 (  3599 PWs)   bands (ev):

     5.6717   8.6284   9.2049   9.3164   9.5896   9.6031   9.6288  10.3583
    10.7563  10.8867  10.9446  10.9760  11.0397  11.4438  11.7535  11.7972
    11.8272  11.8490  12.1558  12.2832  12.2915  13.1580  15.6856  18.0889
    20.1933  22.8830

          k = 0.0625 0.1875 0.4375 (  3578 PWs)   bands (ev):

     6.7040   7.8321   9.5407   9.6019   9.7855   9.8488   9.9014  10.1153
    10.2597  10.4033  10.7850  10.8756  11.2501  11.5121  11.5600  11.5839
    11.6175  11.8824  12.0605  12.2679  12.2693  12.3914  16.9240  18.3073
    19.6921  21.2526

          k = 0.0625 0.3125 0.3125 (  3581 PWs)   bands (ev):

     6.3724   9.0305   9.0311   9.5062   9.6997   9.7815   9.7816  10.2967
    10.5050  10.5052  10.6637  10.8794  11.1021  11.4091  11.5884  11.6733
    11.6734  12.0664  12.0665  12.0738  12.1486  14.0211  14.0215  17.9203
    19.3265  23.3816

          k = 0.0625 0.3125 0.4375 (  3585 PWs)   bands (ev):

     7.3244   8.3330   9.4292   9.5974   9.8697   9.9742   9.9913  10.1588
    10.2025  10.3851  10.5356  10.7387  11.2211  11.4287  11.4560  11.5023
    11.5119  11.7875  12.0309  12.0574  12.4236  12.9792  15.0464  16.3323
    20.5795  22.1404

          k = 0.0625 0.4375 0.4375 (  3581 PWs)   bands (ev):

     8.1205   8.8931   8.8933   9.3248  10.1416  10.1417  10.1478  10.1782
    10.3077  10.3601  10.3601  10.6000  11.1909  11.3080  11.3081  11.3101
    11.5640  11.7695  11.7696  11.8693  12.9393  13.7337  13.7342  14.8002
    21.8316  23.3623

          k = 0.1875 0.1875 0.1875 (  3599 PWs)   bands (ev):

     5.3001   9.0276   9.0280   9.0282   9.5094   9.5096   9.5096  10.4959
    10.9056  10.9056  11.1406  11.1409  11.1412  11.6411  11.6411  11.7659
    11.7660  11.7664  12.3673  12.3674  12.3678  15.1765  15.1767  15.1768
    22.7287  22.7287

          k = 0.1875 0.1875 0.3125 (  3593 PWs)   bands (ev):

     6.0175   8.7951   9.2890   9.2893   9.6830   9.6833   9.7017  10.3800
    10.7377  10.7381  10.8119  10.9229  10.9607  11.5188  11.5985  11.5991
    11.6099  11.8254  12.3122  12.3127  12.3241  13.5347  16.0672  16.0672
    20.7347  20.7347

          k = 0.1875 0.1875 0.4375 (  3575 PWs)   bands (ev):

     7.0000   8.0531   9.5483   9.5487   9.7995   9.8000   9.9456  10.1845
    10.4586  10.4591  10.7043  10.8243  11.0850  11.2781  11.4602  11.4609
    11.8461  12.0264  12.2036  12.2567  12.2573  12.4512  17.0269  17.0270
    19.2308  19.2308

          k = 0.1875 0.3125 0.3125 (  3580 PWs)   bands (ev):

     6.6708   9.0323   9.0325   9.3417   9.8488   9.9038   9.9041  10.3863
    10.5861  10.5862  10.6811  10.8749  10.9374  11.3702  11.3703  11.3804
    11.6663  11.9981  12.2633  12.2758  12.2759  14.2237  14.2243  16.5402
    18.9949  21.5979

          k = 0.1875 0.3125 0.4375 (  3578 PWs)   bands (ev):

     7.5330   8.4078   9.2221   9.3211  10.0206  10.0680  10.1600  10.3252
    10.5238  10.5929  10.6161  10.7504  10.9931  11.1486  11.2519  11.2643
    11.8318  12.1181  12.1880  12.1895  12.3248  12.9590  15.1215  16.1423
    18.8208  19.9529

          k = 0.1875 0.4375 0.4375 (  3586 PWs)   bands (ev):

     8.1738   8.7628   8.7628   9.0582  10.2740  10.3835  10.3839  10.4822
    10.5630  10.5630  10.6511  10.6729  10.9592  11.0684  11.0684  11.0912
    11.8385  12.0214  12.0215  12.0673  12.8272  13.6814  13.6821  14.7362
    19.7166  21.0728

          k = 0.3125 0.3125 0.3125 (  3599 PWs)   bands (ev):

     7.2124   9.0034   9.0034   9.0036  10.1280  10.1285  10.1286  10.5620
    10.7168  10.7173  10.7175  10.8450  10.8450  11.1431  11.1433  11.1436
    11.9303  11.9303  12.3273  12.3275  12.3279  14.6079  14.6083  14.6087
    19.6897  19.6899

          k = 0.3125 0.3125 0.4375 (  3598 PWs)   bands (ev):

     7.8766   8.5069   8.9726   8.9728  10.2813  10.2817  10.4559  10.6900
    10.7545  10.7593  10.8502  10.8745  10.8750  10.9547  11.0298  11.0303
    12.1502  12.1693  12.2710  12.2714  12.2901  13.0752  15.0052  15.0052
    18.5002  18.5002

          k = 0.3125 0.4375 0.4375 (  3580 PWs)   bands (ev):

     8.2541   8.6170   8.6173   8.7662  10.4701  10.5418  10.5419  10.7053
    10.7865  10.8554  10.8554  10.8791  11.1194  11.1199  11.1375  11.1644
    12.0861  12.2304  12.2305  12.2355  12.5884  13.5436  13.5445  14.3299
    18.3676  19.2669

          k = 0.4375 0.4375 0.4375 (  3566 PWs)   bands (ev):

     8.3641   8.5297   8.5299   8.5301  10.6326  10.6327  10.6327  10.7110
    10.7110  10.7436  10.7438  10.7440  11.7013  11.7017  11.7020  12.0890
    12.2510  12.2510  12.3032  12.3033  12.3037  13.3317  13.3323  13.3329
    18.2450  18.2454

          k = 0.1875 0.0625 0.0625 (  3614 PWs)   bands (ev):

     4.5414   8.6598   8.8711   8.8717   9.3104   9.3178   9.3178  10.5857
    10.8511  10.8545  11.5392  11.6781  11.6781  11.6967  12.0097  12.0937
    12.0938  12.1185  12.3334  12.4239  12.4243  13.7835  16.2378  16.2378
    22.1775  22.1780

          k = 0.3125 0.0625 0.0625 (  3584 PWs)   bands (ev):

     5.3057   8.3901   9.1761   9.1767   9.5136   9.5509   9.5509  10.3662
    10.9959  10.9959  11.0148  11.0320  11.3830  11.4915  11.7934  11.8559
    11.8561  11.8856  12.2013  12.4201  12.4205  12.4499  17.5387  17.5388
    22.3573  22.3575

          k = 0.4375 0.0625 0.0625 (  3572 PWs)   bands (ev):

     6.3715   7.5475   9.4457   9.4462   9.7842   9.8990   9.8991  10.0836
    10.3915  10.3916  11.0484  11.0598  11.2835  11.4496  11.5834  11.6383
    11.6385  11.8174  11.9208  12.0619  12.4189  12.4193  19.0408  19.0411
    20.7501  20.7504

          k = 0.1875 0.1875 0.0625 (  3605 PWs)   bands (ev):

     4.9268   8.8631   8.8633   9.0373   9.4124   9.4169   9.4170  10.5272
    10.8938  10.8962  11.3803  11.3913  11.3918  11.5243  11.7102  11.9502
    12.0177  12.0179  12.3192  12.3194  12.3464  14.6044  14.6046  16.9533
    22.0206  22.6403

          k = 0.1875 0.3125 0.0625 (  3599 PWs)   bands (ev):

     5.6717   8.6284   9.2049   9.3164   9.5896   9.6031   9.6288  10.3583
    10.7563  10.8867  10.9445  10.9760  11.0397  11.4437  11.7535  11.7972
    11.8272  11.8490  12.1558  12.2832  12.2915  13.1580  15.6856  18.0889
    20.1933  22.8830

          k = 0.3125 0.0625 0.1875 (  3599 PWs)   bands (ev):

     5.6717   8.6284   9.2049   9.3164   9.5896   9.6031   9.6288  10.3583
    10.7563  10.8867  10.9445  10.9760  11.0397  11.4437  11.7535  11.7972
    11.8272  11.8490  12.1558  12.2832  12.2915  13.1580  15.6856  18.0889
    20.1933  22.8830

          k = 0.1875 0.4375 0.0625 (  3578 PWs)   bands (ev):

     6.7040   7.8321   9.5407   9.6019   9.7855   9.8488   9.9014  10.1153
    10.2597  10.4033  10.7850  10.8756  11.2501  11.5121  11.5600  11.5839
    11.6175  11.8824  12.0605  12.2679  12.2693  12.3914  16.9240  18.3073
    19.6921  21.2526

          k = 0.4375 0.0625 0.1875 (  3578 PWs)   bands (ev):

     6.7040   7.8321   9.5407   9.6019   9.7855   9.8488   9.9014  10.1154
    10.2597  10.4033  10.7850  10.8756  11.2501  11.5121  11.5600  11.5839
    11.6175  11.8824  12.0605  12.2680  12.2693  12.3914  16.9240  18.3073
    19.6921  21.2526

          k = 0.3125 0.3125 0.0625 (  3581 PWs)   bands (ev):

     6.3724   9.0308   9.0308   9.5062   9.6997   9.7814   9.7817  10.2967
    10.5048  10.5053  10.6637  10.8794  11.1021  11.4091  11.5884  11.6734
    11.6734  12.0664  12.0666  12.0738  12.1486  14.0211  14.0215  17.9203
    19.3265  23.3816

          k = 0.3125 0.4375 0.0625 (  3585 PWs)   bands (ev):

     7.3244   8.3330   9.4292   9.5974   9.8697   9.9742   9.9913  10.1588
    10.2025  10.3851  10.5356  10.7387  11.2211  11.4287  11.4559  11.5023
    11.5119  11.7875  12.0309  12.0574  12.4236  12.9792  15.0463  16.3323
    20.5795  22.1404

          k = 0.4375 0.0625 0.3125 (  3585 PWs)   bands (ev):

     7.3244   8.3330   9.4292   9.5974   9.8697   9.9742   9.9913  10.1588
    10.2025  10.3851  10.5356  10.7387  11.2211  11.4287  11.4559  11.5023
    11.5119  11.7875  12.0309  12.0574  12.4236  12.9792  15.0463  16.3323
    20.5795  22.1404

          k = 0.4375 0.4375 0.0625 (  3581 PWs)   bands (ev):

     8.1204   8.8931   8.8933   9.3248  10.1414  10.1419  10.1478  10.1782
    10.3077  10.3599  10.3603  10.6000  11.1909  11.3079  11.3083  11.3100
    11.5640  11.7693  11.7698  11.8693  12.9393  13.7337  13.7342  14.8002
    21.8316  23.3623

          k = 0.3125 0.1875 0.1875 (  3593 PWs)   bands (ev):

     6.0175   8.7951   9.2890   9.2893   9.6830   9.6832   9.7017  10.3800
    10.7379  10.7379  10.8119  10.9229  10.9607  11.5188  11.5987  11.5989
    11.6099  11.8254  12.3123  12.3125  12.3241  13.5347  16.0669  16.0674
    20.7346  20.7348

          k = 0.4375 0.1875 0.1875 (  3575 PWs)   bands (ev):

     7.0000   8.0531   9.5485   9.5485   9.7996   9.8000   9.9456  10.1845
    10.4588  10.4589  10.7043  10.8243  11.0850  11.2781  11.4605  11.4606
    11.8461  12.0264  12.2036  12.2569  12.2572  12.4512  17.0264  17.0275
    19.2304  19.2312

          k = 0.3125 0.3125 0.1875 (  3580 PWs)   bands (ev):

     6.6708   9.0323   9.0325   9.3416   9.8488   9.9038   9.9040  10.3863
    10.5859  10.5864  10.6811  10.8749  10.9374  11.3702  11.3704  11.3804
    11.6663  11.9981  12.2633  12.2757  12.2759  14.2239  14.2241  16.5402
    18.9949  21.5979

          k = 0.3125 0.4375 0.1875 (  3578 PWs)   bands (ev):

     7.5330   8.4078   9.2221   9.3211  10.0206  10.0680  10.1600  10.3252
    10.5238  10.5929  10.6161  10.7505  10.9931  11.1486  11.2519  11.2643
    11.8318  12.1181  12.1880  12.1895  12.3248  12.9590  15.1215  16.1423
    18.8208  19.9529

          k = 0.4375 0.1875 0.3125 (  3578 PWs)   bands (ev):

     7.5330   8.4078   9.2221   9.3211  10.0206  10.0680  10.1600  10.3252
    10.5238  10.5929  10.6161  10.7504  10.9931  11.1486  11.2519  11.2642
    11.8318  12.1181  12.1880  12.1895  12.3248  12.9589  15.1215  16.1423
    18.8208  19.9529

          k = 0.4375 0.4375 0.1875 (  3586 PWs)   bands (ev):

     8.1738   8.7628   8.7628   9.0582  10.2740  10.3836  10.3838  10.4822
    10.5630  10.5631  10.6511  10.6729  10.9592  11.0683  11.0684  11.0912
    11.8385  12.0213  12.0216  12.0673  12.8272  13.6815  13.6820  14.7362
    19.7166  21.0727

          k = 0.4375 0.3125 0.3125 (  3598 PWs)   bands (ev):

     7.8766   8.5069   8.9725   8.9728  10.2814  10.2817  10.4558  10.6900
    10.7545  10.7593  10.8502  10.8745  10.8749  10.9547  11.0300  11.0301
    12.1502  12.1693  12.2711  12.2713  12.2901  13.0752  15.0046  15.0058
    18.4997  18.5006

          k = 0.4375 0.4375 0.3125 (  3580 PWs)   bands (ev):

     8.2541   8.6171   8.6172   8.7662  10.4701  10.5417  10.5420  10.7053
    10.7865  10.8554  10.8554  10.8791  11.1196  11.1197  11.1375  11.1644
    12.0861  12.2304  12.2306  12.2355  12.5884  13.5439  13.5442  14.3299
    18.3676  19.2667

 ------ SPIN DOWN ----------


          k = 0.0625 0.0625 0.0625 (  3626 PWs)   bands (ev):

     4.1472   8.6862   8.6865   8.6870   9.2018   9.2018   9.2018  10.6986
    10.7634  10.7634  11.6446  11.6446  12.2265  12.2267  12.2270  12.2485
    12.2488  12.2490  12.4340  12.4343  12.4345  15.3496  15.3496  15.3496
    22.0126  22.0129

          k = 0.0625 0.0625 0.1875 (  3614 PWs)   bands (ev):

     4.5414   8.6598   8.8713   8.8716   9.3104   9.3178   9.3178  10.5857
    10.8511  10.8545  11.5392  11.6781  11.6782  11.6967  12.0097  12.0935
    12.0940  12.1185  12.3334  12.4237  12.4244  13.7835  16.2378  16.2378
    22.1777  22.1777

          k = 0.0625 0.0625 0.3125 (  3584 PWs)   bands (ev):

     5.3057   8.3901   9.1762   9.1766   9.5136   9.5509   9.5509  10.3662
    10.9959  10.9959  11.0148  11.0320  11.3830  11.4915  11.7934  11.8557
    11.8563  11.8856  12.2013  12.4199  12.4206  12.4499  17.5388  17.5388
    22.3573  22.3574

          k = 0.0625 0.0625 0.4375 (  3572 PWs)   bands (ev):

     6.3715   7.5475   9.4457   9.4462   9.7842   9.8990   9.8991  10.0836
    10.3915  10.3916  11.0484  11.0598  11.2835  11.4496  11.5834  11.6381
    11.6387  11.8175  11.9208  12.0619  12.4188  12.4195  19.0409  19.0409
    20.7502  20.7502

          k = 0.0625 0.1875 0.1875 (  3605 PWs)   bands (ev):

     4.9268   8.8628   8.8635   9.0373   9.4124   9.4170   9.4170  10.5272
    10.8938  10.8962  11.3803  11.3914  11.3917  11.5243  11.7102  11.9502
    12.0178  12.0178  12.3193  12.3193  12.3464  14.6044  14.6046  16.9532
    22.0206  22.6403

          k = 0.0625 0.1875 0.3125 (  3599 PWs)   bands (ev):

     5.6717   8.6284   9.2049   9.3164   9.5896   9.6031   9.6288  10.3583
    10.7563  10.8867  10.9446  10.9760  11.0397  11.4438  11.7536  11.7972
    11.8272  11.8490  12.1559  12.2832  12.2915  13.1580  15.6856  18.0889
    20.1933  22.8830

          k = 0.0625 0.1875 0.4375 (  3578 PWs)   bands (ev):

     6.7040   7.8321   9.5407   9.6019   9.7855   9.8488   9.9014  10.1154
    10.2597  10.4033  10.7850  10.8757  11.2501  11.5121  11.5600  11.5839
    11.6175  11.8824  12.0605  12.2679  12.2694  12.3914  16.9240  18.3073
    19.6921  21.2526

          k = 0.0625 0.3125 0.3125 (  3581 PWs)   bands (ev):

     6.3724   9.0305   9.0311   9.5062   9.6997   9.7815   9.7817  10.2967
    10.5049  10.5053  10.6637  10.8794  11.1021  11.4091  11.5884  11.6733
    11.6734  12.0665  12.0665  12.0738  12.1486  14.0212  14.0215  17.9203
    19.3265  23.3816

          k = 0.0625 0.3125 0.4375 (  3585 PWs)   bands (ev):

     7.3243   8.3329   9.4291   9.5974   9.8697   9.9742   9.9913  10.1588
    10.2025  10.3851  10.5356  10.7387  11.2211  11.4287  11.4560  11.5023
    11.5119  11.7875  12.0309  12.0574  12.4236  12.9792  15.0463  16.3323
    20.5795  22.1403

          k = 0.0625 0.4375 0.4375 (  3581 PWs)   bands (ev):

     8.1204   8.8931   8.8933   9.3247  10.1415  10.1418  10.1478  10.1782
    10.3077  10.3600  10.3602  10.6000  11.1909  11.3079  11.3082  11.3101
    11.5640  11.7695  11.7696  11.8693  12.9394  13.7338  13.7341  14.8002
    21.8316  23.3623

          k = 0.1875 0.1875 0.1875 (  3599 PWs)   bands (ev):

     5.3000   9.0276   9.0278   9.0283   9.5095   9.5095   9.5096  10.4959
    10.9056  10.9056  11.1405  11.1410  11.1411  11.6411  11.6411  11.7659
    11.7661  11.7664  12.3672  12.3675  12.3678  15.1765  15.1766  15.1768
    22.7287  22.7287

          k = 0.1875 0.1875 0.3125 (  3593 PWs)   bands (ev):

     6.0175   8.7951   9.2890   9.2893   9.6830   9.6833   9.7017  10.3800
    10.7377  10.7381  10.8119  10.9229  10.9607  11.5188  11.5985  11.5991
    11.6099  11.8254  12.3122  12.3127  12.3241  13.5347  16.0672  16.0672
    20.7347  20.7347

          k = 0.1875 0.1875 0.4375 (  3575 PWs)   bands (ev):

     7.0000   8.0531   9.5483   9.5487   9.7995   9.8000   9.9456  10.1845
    10.4586  10.4591  10.7043  10.8243  11.0850  11.2781  11.4602  11.4609
    11.8461  12.0264  12.2036  12.2568  12.2573  12.4512  17.0269  17.0269
    19.2308  19.2308

          k = 0.1875 0.3125 0.3125 (  3580 PWs)   bands (ev):

     6.6708   9.0322   9.0325   9.3417   9.8488   9.9037   9.9041  10.3863
    10.5860  10.5863  10.6811  10.8749  10.9374  11.3703  11.3703  11.3804
    11.6663  11.9981  12.2633  12.2758  12.2758  14.2238  14.2242  16.5401
    18.9949  21.5979

          k = 0.1875 0.3125 0.4375 (  3578 PWs)   bands (ev):

     7.5330   8.4077   9.2221   9.3211  10.0206  10.0680  10.1600  10.3252
    10.5238  10.5929  10.6161  10.7505  10.9931  11.1486  11.2519  11.2643
    11.8319  12.1181  12.1880  12.1895  12.3248  12.9590  15.1215  16.1423
    18.8208  19.9529

          k = 0.1875 0.4375 0.4375 (  3586 PWs)   bands (ev):

     8.1738   8.7627   8.7628   9.0582  10.2740  10.3835  10.3839  10.4822
    10.5630  10.5631  10.6511  10.6729  10.9592  11.0683  11.0685  11.0912
    11.8385  12.0214  12.0215  12.0673  12.8272  13.6816  13.6820  14.7362
    19.7166  21.0728

          k = 0.3125 0.3125 0.3125 (  3599 PWs)   bands (ev):

     7.2124   9.0033   9.0035   9.0036  10.1281  10.1283  10.1287  10.5620
    10.7168  10.7172  10.7175  10.8450  10.8450  11.1431  11.1433  11.1436
    11.9304  11.9304  12.3273  12.3276  12.3278  14.6079  14.6083  14.6087
    19.6897  19.6899

          k = 0.3125 0.3125 0.4375 (  3598 PWs)   bands (ev):

     7.8766   8.5069   8.9726   8.9728  10.2813  10.2817  10.4559  10.6900
    10.7545  10.7593  10.8502  10.8745  10.8750  10.9547  11.0298  11.0303
    12.1502  12.1693  12.2710  12.2714  12.2901  13.0752  15.0052  15.0052
    18.5001  18.5002

          k = 0.3125 0.4375 0.4375 (  3580 PWs)   bands (ev):

     8.2541   8.6171   8.6173   8.7662  10.4701  10.5418  10.5419  10.7053
    10.7865  10.8553  10.8554  10.8791  11.1194  11.1199  11.1375  11.1644
    12.0861  12.2305  12.2305  12.2355  12.5884  13.5437  13.5444  14.3299
    18.3676  19.2669

          k = 0.4375 0.4375 0.4375 (  3566 PWs)   bands (ev):

     8.3641   8.5297   8.5299   8.5301  10.6326  10.6327  10.6327  10.7110
    10.7110  10.7436  10.7438  10.7441  11.7014  11.7017  11.7020  12.0890
    12.2510  12.2510  12.3031  12.3034  12.3037  13.3317  13.3323  13.3329
    18.2446  18.2450

          k = 0.1875 0.0625 0.0625 (  3614 PWs)   bands (ev):

     4.5414   8.6598   8.8710   8.8718   9.3104   9.3178   9.3178  10.5857
    10.8511  10.8545  11.5392  11.6781  11.6781  11.6968  12.0097  12.0937
    12.0938  12.1185  12.3334  12.4241  12.4241  13.7835  16.2377  16.2378
    22.1774  22.1780

          k = 0.3125 0.0625 0.0625 (  3584 PWs)   bands (ev):

     5.3057   8.3901   9.1760   9.1768   9.5136   9.5509   9.5509  10.3662
    10.9959  10.9959  11.0148  11.0320  11.3830  11.4915  11.7934  11.8560
    11.8560  11.8856  12.2013  12.4203  12.4203  12.4499  17.5387  17.5388
    22.3572  22.3575

          k = 0.4375 0.0625 0.0625 (  3572 PWs)   bands (ev):

     6.3715   7.5475   9.4456   9.4464   9.7842   9.8990   9.8991  10.0836
    10.3915  10.3916  11.0484  11.0598  11.2835  11.4496  11.5834  11.6383
    11.6385  11.8174  11.9208  12.0619  12.4191  12.4192  19.0408  19.0411
    20.7501  20.7504

          k = 0.1875 0.1875 0.0625 (  3605 PWs)   bands (ev):

     4.9268   8.8631   8.8633   9.0373   9.4124   9.4169   9.4170  10.5272
    10.8938  10.8962  11.3803  11.3913  11.3918  11.5243  11.7102  11.9502
    12.0177  12.0179  12.3192  12.3194  12.3464  14.6044  14.6046  16.9532
    22.0206  22.6403

          k = 0.1875 0.3125 0.0625 (  3599 PWs)   bands (ev):

     5.6717   8.6284   9.2049   9.3164   9.5896   9.6031   9.6288  10.3583
    10.7563  10.8867  10.9446  10.9760  11.0397  11.4438  11.7535  11.7972
    11.8272  11.8490  12.1559  12.2832  12.2915  13.1580  15.6856  18.0889
    20.1933  22.8830

          k = 0.3125 0.0625 0.1875 (  3599 PWs)   bands (ev):

     5.6717   8.6284   9.2049   9.3164   9.5896   9.6032   9.6288  10.3583
    10.7563  10.8867  10.9446  10.9760  11.0397  11.4438  11.7535  11.7972
    11.8272  11.8490  12.1559  12.2833  12.2915  13.1580  15.6856  18.0889
    20.1933  22.8830

          k = 0.1875 0.4375 0.0625 (  3578 PWs)   bands (ev):

     6.7040   7.8321   9.5407   9.6019   9.7855   9.8488   9.9014  10.1154
    10.2597  10.4033  10.7850  10.8757  11.2501  11.5121  11.5600  11.5839
    11.6175  11.8824  12.0605  12.2679  12.2694  12.3914  16.9240  18.3073
    19.6921  21.2526

          k = 0.4375 0.0625 0.1875 (  3578 PWs)   bands (ev):

     6.7040   7.8321   9.5407   9.6019   9.7855   9.8488   9.9014  10.1154
    10.2597  10.4033  10.7850  10.8756  11.2501  11.5121  11.5600  11.5839
    11.6175  11.8824  12.0605  12.2680  12.2693  12.3914  16.9240  18.3073
    19.6921  21.2526

          k = 0.3125 0.3125 0.0625 (  3581 PWs)   bands (ev):

     6.3724   9.0308   9.0308   9.5062   9.6997   9.7814   9.7817  10.2967
    10.5048  10.5053  10.6637  10.8794  11.1021  11.4091  11.5884  11.6734
    11.6734  12.0664  12.0666  12.0738  12.1486  14.0211  14.0215  17.9203
    19.3265  23.3816

          k = 0.3125 0.4375 0.0625 (  3585 PWs)   bands (ev):

     7.3243   8.3329   9.4291   9.5974   9.8697   9.9742   9.9913  10.1588
    10.2025  10.3851  10.5356  10.7387  11.2211  11.4287  11.4560  11.5023
    11.5119  11.7875  12.0309  12.0574  12.4236  12.9792  15.0463  16.3323
    20.5795  22.1403

          k = 0.4375 0.0625 0.3125 (  3585 PWs)   bands (ev):

     7.3243   8.3329   9.4291   9.5974   9.8697   9.9742   9.9913  10.1589
    10.2025  10.3851  10.5356  10.7387  11.2211  11.4287  11.4560  11.5023
    11.5119  11.7875  12.0309  12.0574  12.4236  12.9792  15.0463  16.3323
    20.5795  22.1403

          k = 0.4375 0.4375 0.0625 (  3581 PWs)   bands (ev):

     8.1204   8.8931   8.8933   9.3247  10.1414  10.1419  10.1478  10.1782
    10.3077  10.3599  10.3603  10.6000  11.1909  11.3079  11.3083  11.3100
    11.5640  11.7693  11.7698  11.8693  12.9394  13.7337  13.7342  14.8002
    21.8316  23.3623

          k = 0.3125 0.1875 0.1875 (  3593 PWs)   bands (ev):

     6.0175   8.7951   9.2889   9.2894   9.6830   9.6833   9.7017  10.3800
    10.7378  10.7379  10.8119  10.9229  10.9607  11.5188  11.5987  11.5989
    11.6100  11.8254  12.3124  12.3124  12.3241  13.5347  16.0669  16.0674
    20.7346  20.7348

          k = 0.4375 0.1875 0.1875 (  3575 PWs)   bands (ev):

     7.0000   8.0531   9.5484   9.5485   9.7995   9.8001   9.9456  10.1845
    10.4588  10.4589  10.7043  10.8243  11.0850  11.2781  11.4604  11.4606
    11.8461  12.0264  12.2036  12.2570  12.2570  12.4512  17.0264  17.0275
    19.2304  19.2312

          k = 0.3125 0.3125 0.1875 (  3580 PWs)   bands (ev):

     6.6708   9.0323   9.0324   9.3416   9.8488   9.9038   9.9040  10.3863
    10.5860  10.5864  10.6811  10.8749  10.9374  11.3702  11.3704  11.3804
    11.6663  11.9981  12.2633  12.2757  12.2760  14.2239  14.2241  16.5401
    18.9949  21.5979

          k = 0.3125 0.4375 0.1875 (  3578 PWs)   bands (ev):

     7.5330   8.4077   9.2221   9.3211  10.0206  10.0680  10.1600  10.3252
    10.5238  10.5929  10.6161  10.7505  10.9931  11.1486  11.2519  11.2643
    11.8319  12.1181  12.1880  12.1895  12.3248  12.9590  15.1215  16.1423
    18.8208  19.9529

          k = 0.4375 0.1875 0.3125 (  3578 PWs)   bands (ev):

     7.5330   8.4077   9.2221   9.3211  10.0206  10.0680  10.1600  10.3252
    10.5238  10.5929  10.6161  10.7505  10.9931  11.1486  11.2519  11.2643
    11.8319  12.1181  12.1880  12.1895  12.3248  12.9590  15.1215  16.1423
    18.8208  19.9529

          k = 0.4375 0.4375 0.1875 (  3586 PWs)   bands (ev):

     8.1738   8.7627   8.7628   9.0582  10.2740  10.3836  10.3838  10.4822
    10.5630  10.5631  10.6511  10.6729  10.9592  11.0684  11.0684  11.0912
    11.8385  12.0213  12.0216  12.0673  12.8272  13.6815  13.6820  14.7362
    19.7166  21.0727

          k = 0.4375 0.3125 0.3125 (  3598 PWs)   bands (ev):

     7.8766   8.5069   8.9726   8.9727  10.2812  10.2818  10.4558  10.6900
    10.7545  10.7593  10.8502  10.8747  10.8748  10.9547  11.0300  11.0301
    12.1502  12.1693  12.2712  12.2712  12.2901  13.0752  15.0046  15.0058
    18.4997  18.5006

          k = 0.4375 0.4375 0.3125 (  3580 PWs)   bands (ev):

     8.2541   8.6171   8.6172   8.7662  10.4701  10.5417  10.5420  10.7053
    10.7865  10.8554  10.8554  10.8791  11.1196  11.1197  11.1375  11.1644
    12.0861  12.2304  12.2306  12.2355  12.5884  13.5439  13.5442  14.3299
    18.3676  19.2667

     the Fermi energy is    13.9513 ev

!    total energy              =    -490.97509318 Ry
     Harris-Foulkes estimate   =    -490.97509320 Ry
     estimated scf accuracy    <       0.00000017 Ry

     The total energy is the sum of the following terms:

     one-electron contribution =     -97.82965813 Ry
     hartree contribution      =     118.16636512 Ry
     xc contribution           =    -178.65383195 Ry
     ewald contribution        =    -332.65806936 Ry
     smearing contrib. (-TS)   =       0.00010114 Ry

     total magnetization       =    -0.00 Bohr mag/cell
     absolute magnetization    =     0.00 Bohr mag/cell

     convergence has been achieved in   7 iterations

     Writing output data file cu-3.53.save/

     init_run     :      2.95s CPU      3.04s WALL (       1 calls)
     electrons    :     49.81s CPU     51.12s WALL (       1 calls)

     Called by init_run:
     wfcinit      :      2.39s CPU      2.47s WALL (       1 calls)
     potinit      :      0.10s CPU      0.10s WALL (       1 calls)
     hinit0       :      0.27s CPU      0.27s WALL (       1 calls)

     Called by electrons:
     c_bands      :     42.52s CPU     43.61s WALL (       8 calls)
     sum_band     :      6.18s CPU      6.38s WALL (       8 calls)
     v_of_rho     :      0.37s CPU      0.37s WALL (       8 calls)
     newd         :      0.82s CPU      0.83s WALL (       8 calls)
     mix_rho      :      0.03s CPU      0.03s WALL (       8 calls)

     Called by c_bands:
     init_us_2    :      0.44s CPU      0.45s WALL (    1360 calls)
     cegterg      :     40.23s CPU     41.32s WALL (     640 calls)

     Called by sum_band:
     sum_band:bec :      0.03s CPU      0.03s WALL (     640 calls)
     addusdens    :      0.95s CPU      0.95s WALL (       8 calls)

     Called by *egterg:
     h_psi        :     24.85s CPU     25.95s WALL (    2281 calls)
     s_psi        :      3.18s CPU      3.20s WALL (    2281 calls)
     g_psi        :      0.14s CPU      0.14s WALL (    1561 calls)
     cdiaghg      :      2.84s CPU      2.86s WALL (    2121 calls)

     Called by h_psi:
     h_psi:pot    :     24.77s CPU     25.87s WALL (    2281 calls)
     h_psi:calbec :      4.43s CPU      4.67s WALL (    2281 calls)
     vloc_psi     :     17.11s CPU     17.92s WALL (    2281 calls)
     add_vuspsi   :      3.22s CPU      3.28s WALL (    2281 calls)

     General routines
     calbec       :      6.02s CPU      6.33s WALL (    2921 calls)
     fft          :      0.20s CPU      0.20s WALL (     196 calls)
     ffts         :      0.01s CPU      0.01s WALL (      32 calls)
     fftw         :     18.54s CPU     19.37s WALL (  108406 calls)
     interpolate  :      0.02s CPU      0.03s WALL (      16 calls)

     Parallel routines
     fft_scatt_xy :      1.48s CPU      1.54s WALL (  108634 calls)
     fft_scatt_yz :      9.11s CPU      9.50s WALL (  108634 calls)

     PWSCF        :     54.33s CPU     55.81s WALL


   This run was terminated on:  20:11:48  17Mar2022            

=------------------------------------------------------------------------------=
   JOB DONE.
=------------------------------------------------------------------------------=
