
     Program PWSCF v.6.4.1 starts on 17Mar2022 at 20: 5:43 

     This program is part of the open-source Quantum ESPRESSO suite
     for quantum simulation of materials; please cite
         "P. Giannozzi et al., J. Phys.:Condens. Matter 21 395502 (2009);
         "P. Giannozzi et al., J. Phys.:Condens. Matter 29 465901 (2017);
          URL http://www.quantum-espresso.org", 
     in publications or presentations arising from this work. More details at
     http://www.quantum-espresso.org/quote

     Parallel version (MPI), running on     6 processors

     MPI processes distributed on     1 nodes
     R & G space division:  proc/nbgrp/npool/nimage =       6
     Reading input from cu-3.41.in
Warning: card CU1   63.546    CU.PBE-DN-RRKJUS_PSL.1.0.0.UPF ignored
Warning: card CU2   63.546    CU.PBE-DN-RRKJUS_PSL.1.0.0.UPF ignored

     Current dimensions of program PWSCF are:
     Max number of different atomic species (ntypx) = 10
     Max number of k-points (npk) =  40000
     Max angular momentum in pseudopotentials (lmaxx) =  3
               file Cu.pbe-dn-rrkjus_psl.1.0.0.UPF: wavefunction(s)  3D renormalized
               file Cu.pbe-dn-rrkjus_psl.1.0.0.UPF: wavefunction(s)  3D renormalized

     Subspace diagonalization in iterative solution of the eigenvalue problem:
     a serial algorithm will be used

     Found symmetry operation: I + (  0.0000 -0.5000 -0.5000)
     This is a supercell, fractional translations are disabled
     Message from routine setup:
     DEPRECATED: symmetry with ibrav=0, use correct ibrav instead

     Parallelization info
     --------------------
     sticks:   dense  smooth     PW     G-vecs:    dense   smooth      PW
     Min         309     174     50                 9999     4286     677
     Max         311     175     52                10002     4289     679
     Sum        1861    1049    305                60005    25725    4067



     bravais-lattice index     =            0
     lattice parameter (alat)  =       6.4440  a.u.
     unit-cell volume          =     267.5838 (a.u.)^3
     number of atoms/cell      =            4
     number of atomic types    =            2
     number of electrons       =        44.00
     number of Kohn-Sham states=           26
     kinetic-energy cutoff     =      80.0000  Ry
     charge density cutoff     =     560.0000  Ry
     convergence threshold     =      1.0E-06
     mixing beta               =       0.7000
     number of iterations used =            8  plain     mixing
     Exchange-correlation      = PBE ( 1  4  3  4 0 0)

     celldm(1)=   6.443966  celldm(2)=   0.000000  celldm(3)=   0.000000
     celldm(4)=   0.000000  celldm(5)=   0.000000  celldm(6)=   0.000000

     crystal axes: (cart. coord. in units of alat)
               a(1) = (   1.000000   0.000000   0.000000 )  
               a(2) = (   0.000000   1.000000   0.000000 )  
               a(3) = (   0.000000   0.000000   1.000000 )  

     reciprocal axes: (cart. coord. in units 2 pi/alat)
               b(1) = (  1.000000  0.000000  0.000000 )  
               b(2) = (  0.000000  1.000000  0.000000 )  
               b(3) = (  0.000000  0.000000  1.000000 )  


     PseudoPot. # 1 for Cu read from file:
     /home/cristian/Escritorio/Proyecto_Grafeno/pseudopotenciales/Cu.pbe-dn-rrkjus_psl.1.0.0.UPF
     MD5 check sum: ba3d6c84e19846e79d48cdc68ff7152b
     Pseudo is Ultrasoft + core correction, Zval = 11.0
     Generated using "atomic" code by A. Dal Corso v.6.3
     Using radial grid of 1199 points,  6 beta functions with: 
                l(1) =   0
                l(2) =   0
                l(3) =   1
                l(4) =   1
                l(5) =   2
                l(6) =   2
     Q(r) pseudized with 0 coefficients 


     PseudoPot. # 2 for Cu read from file:
     /home/cristian/Escritorio/Proyecto_Grafeno/pseudopotenciales/Cu.pbe-dn-rrkjus_psl.1.0.0.UPF
     MD5 check sum: ba3d6c84e19846e79d48cdc68ff7152b
     Pseudo is Ultrasoft + core correction, Zval = 11.0
     Generated using "atomic" code by A. Dal Corso v.6.3
     Using radial grid of 1199 points,  6 beta functions with: 
                l(1) =   0
                l(2) =   0
                l(3) =   1
                l(4) =   1
                l(5) =   2
                l(6) =   2
     Q(r) pseudized with 0 coefficients 


     atomic species   valence    mass     pseudopotential
        Cu1           11.00    63.54600     Cu( 1.00)
        Cu2           11.00    63.54600     Cu( 1.00)

     Starting magnetic structure 
     atomic species   magnetization
        Cu1          0.100
        Cu2         -0.100

     16 Sym. Ops., with inversion, found



   Cartesian axes

     site n.     atom                  positions (alat units)
         1           Cu1 tau(   1) = (   0.0000000   0.0000000   0.0000000  )
         2           Cu2 tau(   2) = (   0.5000000   0.5000000   0.0000000  )
         3           Cu1 tau(   3) = (   0.0000000   0.5000000   0.5000000  )
         4           Cu2 tau(   4) = (   0.5000000   0.0000000   0.5000000  )

     number of k points=    40  Methfessel-Paxton smearing, width (Ry)=  0.0300
                       cart. coord. in units 2pi/alat
        k(    1) = (   0.0625000   0.0625000   0.0625000), wk =   0.0156250
        k(    2) = (   0.0625000   0.0625000   0.1875000), wk =   0.0312500
        k(    3) = (   0.0625000   0.0625000   0.3125000), wk =   0.0312500
        k(    4) = (   0.0625000   0.0625000   0.4375000), wk =   0.0312500
        k(    5) = (   0.0625000   0.1875000   0.1875000), wk =   0.0156250
        k(    6) = (   0.0625000   0.1875000   0.3125000), wk =   0.0312500
        k(    7) = (   0.0625000   0.1875000   0.4375000), wk =   0.0312500
        k(    8) = (   0.0625000   0.3125000   0.3125000), wk =   0.0156250
        k(    9) = (   0.0625000   0.3125000   0.4375000), wk =   0.0312500
        k(   10) = (   0.0625000   0.4375000   0.4375000), wk =   0.0156250
        k(   11) = (   0.1875000   0.1875000   0.1875000), wk =   0.0156250
        k(   12) = (   0.1875000   0.1875000   0.3125000), wk =   0.0312500
        k(   13) = (   0.1875000   0.1875000   0.4375000), wk =   0.0312500
        k(   14) = (   0.1875000   0.3125000   0.3125000), wk =   0.0156250
        k(   15) = (   0.1875000   0.3125000   0.4375000), wk =   0.0312500
        k(   16) = (   0.1875000   0.4375000   0.4375000), wk =   0.0156250
        k(   17) = (   0.3125000   0.3125000   0.3125000), wk =   0.0156250
        k(   18) = (   0.3125000   0.3125000   0.4375000), wk =   0.0312500
        k(   19) = (   0.3125000   0.4375000   0.4375000), wk =   0.0156250
        k(   20) = (   0.4375000   0.4375000   0.4375000), wk =   0.0156250
        k(   21) = (   0.1875000   0.0625000   0.0625000), wk =   0.0156250
        k(   22) = (   0.3125000   0.0625000   0.0625000), wk =   0.0156250
        k(   23) = (   0.4375000   0.0625000   0.0625000), wk =   0.0156250
        k(   24) = (   0.1875000   0.1875000   0.0625000), wk =   0.0312500
        k(   25) = (   0.1875000   0.3125000   0.0625000), wk =   0.0312500
        k(   26) = (   0.3125000   0.0625000   0.1875000), wk =   0.0312500
        k(   27) = (   0.1875000   0.4375000   0.0625000), wk =   0.0312500
        k(   28) = (   0.4375000   0.0625000   0.1875000), wk =   0.0312500
        k(   29) = (   0.3125000   0.3125000   0.0625000), wk =   0.0312500
        k(   30) = (   0.3125000   0.4375000   0.0625000), wk =   0.0312500
        k(   31) = (   0.4375000   0.0625000   0.3125000), wk =   0.0312500
        k(   32) = (   0.4375000   0.4375000   0.0625000), wk =   0.0312500
        k(   33) = (   0.3125000   0.1875000   0.1875000), wk =   0.0156250
        k(   34) = (   0.4375000   0.1875000   0.1875000), wk =   0.0156250
        k(   35) = (   0.3125000   0.3125000   0.1875000), wk =   0.0312500
        k(   36) = (   0.3125000   0.4375000   0.1875000), wk =   0.0312500
        k(   37) = (   0.4375000   0.1875000   0.3125000), wk =   0.0312500
        k(   38) = (   0.4375000   0.4375000   0.1875000), wk =   0.0312500
        k(   39) = (   0.4375000   0.3125000   0.3125000), wk =   0.0156250
        k(   40) = (   0.4375000   0.4375000   0.3125000), wk =   0.0312500

     Dense  grid:    60005 G-vectors     FFT dimensions: (  50,  50,  50)

     Smooth grid:    25725 G-vectors     FFT dimensions: (  40,  40,  40)

     Estimated max dynamical RAM per process >      60.49 MB

     Estimated total dynamical RAM >     362.96 MB
     Generating pointlists ...
     new r_m :   0.2917 (alat units)  1.8796 (a.u.) for type    1
     new r_m :   0.2917 (alat units)  1.8796 (a.u.) for type    2

     Initial potential from superposition of free atoms

     starting charge   43.99908, renormalised to   44.00000
     Starting wfcs are   36 randomized atomic wfcs

     total cpu time spent up to now is        4.0 secs

     Self-consistent Calculation

     iteration #  1     ecut=    80.00 Ry     beta= 0.70
     Davidson diagonalization with overlap
     ethr =  1.00E-02,  avg # of iterations =  2.9

     Threshold (ethr) on eigenvalues was too large:
     Diagonalizing with lowered threshold

     Davidson diagonalization with overlap
     ethr =  8.53E-04,  avg # of iterations =  1.4

     total cpu time spent up to now is       13.6 secs

     total energy              =    -490.72799745 Ry
     Harris-Foulkes estimate   =    -490.93453982 Ry
     estimated scf accuracy    <       0.40471594 Ry

     total magnetization       =     0.00 Bohr mag/cell
     absolute magnetization    =     0.69 Bohr mag/cell

     iteration #  2     ecut=    80.00 Ry     beta= 0.70
     Davidson diagonalization with overlap
     ethr =  9.20E-04,  avg # of iterations =  2.4

     total cpu time spent up to now is       19.9 secs

     total energy              =    -490.74753853 Ry
     Harris-Foulkes estimate   =    -491.11736739 Ry
     estimated scf accuracy    <       0.90052526 Ry

     total magnetization       =     0.00 Bohr mag/cell
     absolute magnetization    =     0.17 Bohr mag/cell

     iteration #  3     ecut=    80.00 Ry     beta= 0.70
     Davidson diagonalization with overlap
     ethr =  9.20E-04,  avg # of iterations =  2.0

     total cpu time spent up to now is       26.0 secs

     total energy              =    -490.91547079 Ry
     Harris-Foulkes estimate   =    -490.91171593 Ry
     estimated scf accuracy    <       0.01411233 Ry

     total magnetization       =    -0.00 Bohr mag/cell
     absolute magnetization    =     0.21 Bohr mag/cell

     iteration #  4     ecut=    80.00 Ry     beta= 0.70
     Davidson diagonalization with overlap
     ethr =  3.21E-05,  avg # of iterations =  2.0

     total cpu time spent up to now is       30.7 secs

     total energy              =    -490.91718961 Ry
     Harris-Foulkes estimate   =    -490.91718584 Ry
     estimated scf accuracy    <       0.00005979 Ry

     total magnetization       =    -0.00 Bohr mag/cell
     absolute magnetization    =     0.02 Bohr mag/cell

     iteration #  5     ecut=    80.00 Ry     beta= 0.70
     Davidson diagonalization with overlap
     ethr =  1.36E-07,  avg # of iterations =  3.3

     total cpu time spent up to now is       38.1 secs

     total energy              =    -490.91721638 Ry
     Harris-Foulkes estimate   =    -490.91726686 Ry
     estimated scf accuracy    <       0.00018938 Ry

     total magnetization       =    -0.00 Bohr mag/cell
     absolute magnetization    =     0.01 Bohr mag/cell

     iteration #  6     ecut=    80.00 Ry     beta= 0.70
     Davidson diagonalization with overlap
     ethr =  1.36E-07,  avg # of iterations =  2.0

     total cpu time spent up to now is       43.7 secs

     total energy              =    -490.91724399 Ry
     Harris-Foulkes estimate   =    -490.91724383 Ry
     estimated scf accuracy    <       0.00000680 Ry

     total magnetization       =    -0.00 Bohr mag/cell
     absolute magnetization    =     0.01 Bohr mag/cell

     iteration #  7     ecut=    80.00 Ry     beta= 0.70
     Davidson diagonalization with overlap
     ethr =  1.55E-08,  avg # of iterations =  2.1

     Magnetic moment per site:
     atom:    1    charge:    9.6997    magn:    0.0000    constr:    0.0000
     atom:    2    charge:    9.6996    magn:   -0.0000    constr:    0.0000
     atom:    3    charge:    9.6996    magn:    0.0000    constr:    0.0000
     atom:    4    charge:    9.6996    magn:   -0.0000    constr:    0.0000

     total cpu time spent up to now is       48.7 secs

     End of self-consistent calculation

 ------ SPIN UP ------------


          k = 0.0625 0.0625 0.0625 (  3227 PWs)   bands (ev):

     5.3427  10.0234  10.0238  10.0241  10.6163  10.6163  10.6163  12.3725
    12.4491  12.4491  13.4848  13.4848  14.1669  14.1670  14.1670  14.1789
    14.1790  14.1790  14.4104  14.4104  14.4105  17.3810  17.3810  17.3810
    24.8615  24.8618

          k = 0.0625 0.0625 0.1875 (  3218 PWs)   bands (ev):

     5.7671  10.0131  10.2333  10.2334  10.7424  10.7522  10.7522  12.2384
    12.5513  12.5554  13.3594  13.4985  13.4986  13.5459  13.8927  14.0080
    14.0081  14.0383  14.2920  14.3983  14.3984  15.7843  18.3949  18.3949
    25.0005  25.0005

          k = 0.0625 0.0625 0.3125 (  3222 PWs)   bands (ev):

     6.5867   9.7707  10.5794  10.5795  10.9788  11.0246  11.0246  11.9787
    12.7031  12.7031  12.7418  12.7625  13.1736  13.2870  13.6591  13.7265
    13.7266  13.7630  14.1373  14.3877  14.3937  14.3939  19.8368  19.8368
    24.9930  24.9930

          k = 0.0625 0.0625 0.4375 (  3244 PWs)   bands (ev):

     7.7186   8.9391  10.8849  10.8850  11.2947  11.4309  11.4309  11.6457
    12.0024  12.0025  12.7788  12.7932  13.0564  13.2508  13.4077  13.4705
    13.4706  13.6789  13.8084  13.9738  14.3924  14.3925  21.4682  21.4683
    23.3148  23.3148

          k = 0.0625 0.1875 0.1875 (  3214 PWs)   bands (ev):

     6.1810  10.2411  10.2417  10.4230  10.8628  10.8672  10.8672  12.1681
    12.6007  12.6041  13.1487  13.1678  13.1679  13.3412  13.5608  13.8385
    13.9167  13.9167  14.2746  14.2746  14.3070  16.7191  16.7194  19.1939
    24.6165  25.5849

          k = 0.0625 0.1875 0.3125 (  3239 PWs)   bands (ev):

     6.9778  10.0324  10.6257  10.7437  11.0693  11.0836  11.1145  11.9683
    12.4317  12.5758  12.6582  12.6927  12.7715  13.2449  13.6057  13.6573
    13.6906  13.7234  14.0802  14.2318  14.2420  15.1902  17.9140  20.4358
    22.7313  25.7818

          k = 0.0625 0.1875 0.4375 (  3252 PWs)   bands (ev):

     8.0720   9.2430  11.0022  11.0661  11.3061  11.3703  11.4344  11.6825
    11.8547  12.0154  12.4700  12.5747  13.0172  13.3236  13.3799  13.4057
    13.4441  13.7564  13.9706  14.2138  14.2155  14.3496  19.2506  20.6992
    22.2261  23.8793

          k = 0.0625 0.3125 0.3125 (  3240 PWs)   bands (ev):

     7.7235  10.4750  10.4755  10.9787  11.1870  11.2911  11.2913  11.8947
    12.1436  12.1439  12.3170  12.5795  12.8442  13.2034  13.4110  13.5095
    13.5095  13.9750  13.9750  13.9859  14.0737  16.1493  16.1497  20.2792
    21.8425  26.2793

          k = 0.0625 0.3125 0.4375 (  3234 PWs)   bands (ev):

     8.7278   9.7752  10.9167  11.1037  11.3772  11.5163  11.5299  11.7326
    11.7869  11.9940  12.1738  12.4113  12.9822  13.2241  13.2548  13.3078
    13.3234  13.6460  13.9341  13.9660  14.3912  15.0175  17.2611  18.6261
    23.1778  24.8431

          k = 0.0625 0.4375 0.4375 (  3233 PWs)   bands (ev):

     9.5620  10.3651  10.3653  10.8160  11.7037  11.7095  11.7097  11.7544
    11.9055  11.9626  11.9626  12.2444  12.9453  13.0811  13.0812  13.0837
    13.3856  13.6267  13.6267  13.7447  14.9784  15.8538  15.8542  17.0020
    24.5234  26.1529

          k = 0.1875 0.1875 0.1875 (  3218 PWs)   bands (ev):

     6.5803  10.4284  10.4287  10.4289  10.9741  10.9742  10.9742  12.1295
    12.6148  12.6148  12.8755  12.8755  12.8757  13.4784  13.4784  13.6215
    13.6216  13.6216  14.3323  14.3323  14.3324  17.3509  17.3510  17.3512
    25.4351  25.4351

          k = 0.1875 0.1875 0.3125 (  3229 PWs)   bands (ev):

     7.3445  10.2147  10.7295  10.7296  11.1721  11.1721  11.1966  11.9921
    12.4086  12.4087  12.5018  12.6332  12.6787  13.3311  13.4232  13.4233
    13.4400  13.6949  14.2670  14.2671  14.2816  15.5993  18.3138  18.3138
    23.3636  23.3636

          k = 0.1875 0.1875 0.4375 (  3235 PWs)   bands (ev):

     8.3814   9.4726  11.0362  11.0362  11.3004  11.3005  11.4819  11.7621
    12.0810  12.0811  12.3754  12.5149  12.8235  13.0491  13.2601  13.2602
    13.7129  13.9313  14.1398  14.2014  14.2016  14.4031  19.3047  19.3047
    21.8296  21.8296

          k = 0.1875 0.3125 0.3125 (  3236 PWs)   bands (ev):

     8.0335  10.4752  10.4754  10.8036  11.3550  11.4256  11.4259  11.9970
    12.2375  12.2377  12.3393  12.5760  12.6507  13.1554  13.1554  13.1672
    13.5061  13.8965  14.2092  14.2233  14.2233  16.3494  16.3498  18.7706
    21.5947  24.3023

          k = 0.1875 0.3125 0.4375 (  3236 PWs)   bands (ev):

     8.9342   9.8371  10.6852  10.7913  11.5528  11.6096  11.7267  11.9234
    12.1577  12.2446  12.2592  12.4277  12.7151  12.8964  13.0160  13.0299
    13.6986  14.0351  14.1202  14.1213  14.2739  14.9783  17.2999  18.3429
    21.4353  22.5922

          k = 0.1875 0.4375 0.4375 (  3229 PWs)   bands (ev):

     9.5928  10.2000  10.2001  10.5079  11.8518  11.9783  11.9786  12.0998
    12.2052  12.2053  12.3090  12.3211  12.6743  12.8010  12.8011  12.8280
    13.7082  13.9225  13.9225  13.9777  14.8410  15.7681  15.7685  16.8825
    22.3603  23.7776

          k = 0.3125 0.3125 0.3125 (  3241 PWs)   bands (ev):

     8.5920  10.4398  10.4398  10.4399  11.6798  11.6801  11.6803  12.1954
    12.3828  12.3829  12.3829  12.5420  12.5420  12.8897  12.8898  12.8898
    13.8171  13.8171  14.2854  14.2854  14.2855  16.7245  16.7249  16.7252
    22.3300  22.3302

          k = 0.3125 0.3125 0.4375 (  3241 PWs)   bands (ev):

     9.2713   9.9185  10.4033  10.4034  11.8615  11.8616  12.0644  12.3347
    12.4257  12.4395  12.5477  12.5514  12.5515  12.6695  12.7560  12.7561
    14.0763  14.0847  14.2185  14.2186  14.2414  15.0760  17.0943  17.0943
    21.1348  21.1348

          k = 0.3125 0.4375 0.4375 (  3234 PWs)   bands (ev):

     9.6454  10.0196  10.0198  10.1750  12.0899  12.1759  12.1759  12.3749
    12.4724  12.5523  12.5524  12.5801  12.8186  12.8191  12.8280  12.8702
    14.0002  14.1697  14.1697  14.1764  14.5530  15.5538  15.5545  16.3555
    21.0117  21.9224

          k = 0.4375 0.4375 0.4375 (  3220 PWs)   bands (ev):

     9.7410   9.9127   9.9128   9.9130  12.2890  12.2890  12.2891  12.3840
    12.3840  12.4221  12.4222  12.4222  13.4737  13.4740  13.4743  13.8139
    14.1950  14.1950  14.2568  14.2568  14.2569  15.2438  15.2443  15.2448
    20.8977  20.8980

          k = 0.1875 0.0625 0.0625 (  3218 PWs)   bands (ev):

     5.7671  10.0131  10.2330  10.2337  10.7424  10.7522  10.7522  12.2384
    12.5513  12.5553  13.3594  13.4985  13.4985  13.5459  13.8927  14.0080
    14.0081  14.0383  14.2920  14.3983  14.3984  15.7843  18.3948  18.3949
    25.0002  25.0008

          k = 0.3125 0.0625 0.0625 (  3222 PWs)   bands (ev):

     6.5867   9.7707  10.5792  10.5798  10.9788  11.0246  11.0246  11.9787
    12.7031  12.7031  12.7417  12.7625  13.1736  13.2870  13.6591  13.7265
    13.7265  13.7630  14.1373  14.3877  14.3937  14.3939  19.8367  19.8368
    24.9928  24.9931

          k = 0.4375 0.0625 0.0625 (  3244 PWs)   bands (ev):

     7.7186   8.9391  10.8846  10.8853  11.2947  11.4309  11.4309  11.6457
    12.0024  12.0024  12.7788  12.7932  13.0564  13.2508  13.4077  13.4706
    13.4706  13.6789  13.8084  13.9738  14.3924  14.3925  21.4681  21.4684
    23.3146  23.3150

          k = 0.1875 0.1875 0.0625 (  3214 PWs)   bands (ev):

     6.1810  10.2414  10.2414  10.4230  10.8628  10.8672  10.8672  12.1681
    12.6007  12.6041  13.1487  13.1678  13.1679  13.3412  13.5608  13.8385
    13.9167  13.9167  14.2746  14.2746  14.3070  16.7192  16.7192  19.1939
    24.6165  25.5849

          k = 0.1875 0.3125 0.0625 (  3239 PWs)   bands (ev):

     6.9778  10.0324  10.6257  10.7437  11.0693  11.0836  11.1145  11.9683
    12.4317  12.5758  12.6582  12.6927  12.7715  13.2449  13.6057  13.6573
    13.6906  13.7234  14.0802  14.2318  14.2420  15.1902  17.9140  20.4358
    22.7313  25.7818

          k = 0.3125 0.0625 0.1875 (  3239 PWs)   bands (ev):

     6.9778  10.0324  10.6257  10.7437  11.0693  11.0836  11.1145  11.9683
    12.4317  12.5758  12.6582  12.6927  12.7715  13.2449  13.6057  13.6573
    13.6906  13.7234  14.0802  14.2318  14.2420  15.1902  17.9140  20.4358
    22.7313  25.7817

          k = 0.1875 0.4375 0.0625 (  3252 PWs)   bands (ev):

     8.0720   9.2430  11.0022  11.0661  11.3061  11.3703  11.4344  11.6825
    11.8547  12.0154  12.4700  12.5747  13.0172  13.3236  13.3799  13.4057
    13.4441  13.7564  13.9706  14.2138  14.2155  14.3496  19.2506  20.6992
    22.2261  23.8793

          k = 0.4375 0.0625 0.1875 (  3252 PWs)   bands (ev):

     8.0720   9.2430  11.0022  11.0661  11.3061  11.3703  11.4344  11.6825
    11.8547  12.0154  12.4700  12.5747  13.0172  13.3236  13.3799  13.4057
    13.4441  13.7564  13.9706  14.2138  14.2155  14.3496  19.2506  20.6992
    22.2261  23.8793

          k = 0.3125 0.3125 0.0625 (  3240 PWs)   bands (ev):

     7.7235  10.4753  10.4753  10.9787  11.1870  11.2912  11.2912  11.8947
    12.1437  12.1438  12.3171  12.5795  12.8442  13.2034  13.4110  13.5095
    13.5095  13.9750  13.9750  13.9859  14.0737  16.1495  16.1495  20.2792
    21.8425  26.2793

          k = 0.3125 0.4375 0.0625 (  3234 PWs)   bands (ev):

     8.7278   9.7752  10.9167  11.1037  11.3772  11.5163  11.5299  11.7326
    11.7869  11.9940  12.1738  12.4113  12.9822  13.2241  13.2548  13.3078
    13.3234  13.6460  13.9341  13.9660  14.3912  15.0175  17.2611  18.6261
    23.1778  24.8431

          k = 0.4375 0.0625 0.3125 (  3234 PWs)   bands (ev):

     8.7278   9.7752  10.9167  11.1037  11.3772  11.5163  11.5299  11.7326
    11.7869  11.9940  12.1738  12.4113  12.9822  13.2241  13.2548  13.3078
    13.3234  13.6460  13.9341  13.9660  14.3912  15.0175  17.2611  18.6261
    23.1778  24.8431

          k = 0.4375 0.4375 0.0625 (  3233 PWs)   bands (ev):

     9.5620  10.3652  10.3652  10.8160  11.7037  11.7096  11.7096  11.7544
    11.9055  11.9626  11.9626  12.2444  12.9453  13.0811  13.0812  13.0837
    13.3856  13.6267  13.6268  13.7447  14.9784  15.8539  15.8540  17.0020
    24.5234  26.1529

          k = 0.3125 0.1875 0.1875 (  3229 PWs)   bands (ev):

     7.3445  10.2147  10.7294  10.7297  11.1720  11.1722  11.1966  11.9921
    12.4086  12.4087  12.5018  12.6332  12.6787  13.3311  13.4232  13.4232
    13.4400  13.6949  14.2670  14.2671  14.2816  15.5993  18.3135  18.3140
    23.3635  23.3637

          k = 0.4375 0.1875 0.1875 (  3235 PWs)   bands (ev):

     8.3814   9.4726  11.0362  11.0363  11.3002  11.3007  11.4819  11.7621
    12.0811  12.0811  12.3754  12.5149  12.8235  13.0491  13.2601  13.2602
    13.7129  13.9313  14.1398  14.2014  14.2016  14.4031  19.3042  19.3052
    21.8292  21.8300

          k = 0.3125 0.3125 0.1875 (  3236 PWs)   bands (ev):

     8.0335  10.4753  10.4753  10.8036  11.3550  11.4257  11.4258  11.9970
    12.2375  12.2376  12.3393  12.5760  12.6507  13.1554  13.1554  13.1672
    13.5061  13.8965  14.2092  14.2232  14.2233  16.3496  16.3496  18.7706
    21.5947  24.3023

          k = 0.3125 0.4375 0.1875 (  3236 PWs)   bands (ev):

     8.9342   9.8371  10.6852  10.7913  11.5528  11.6096  11.7267  11.9234
    12.1577  12.2446  12.2592  12.4277  12.7151  12.8964  13.0160  13.0299
    13.6986  14.0351  14.1202  14.1213  14.2739  14.9783  17.2999  18.3429
    21.4353  22.5922

          k = 0.4375 0.1875 0.3125 (  3236 PWs)   bands (ev):

     8.9342   9.8371  10.6852  10.7913  11.5528  11.6096  11.7267  11.9234
    12.1577  12.2446  12.2592  12.4277  12.7151  12.8964  13.0160  13.0299
    13.6986  14.0351  14.1202  14.1213  14.2739  14.9783  17.2999  18.3429
    21.4353  22.5922

          k = 0.4375 0.4375 0.1875 (  3229 PWs)   bands (ev):

     9.5928  10.2000  10.2001  10.5079  11.8518  11.9784  11.9785  12.0998
    12.2052  12.2052  12.3090  12.3211  12.6743  12.8010  12.8010  12.8280
    13.7082  13.9225  13.9226  13.9777  14.8410  15.7682  15.7683  16.8825
    22.3603  23.7775

          k = 0.4375 0.3125 0.3125 (  3241 PWs)   bands (ev):

     9.2713   9.9185  10.4033  10.4034  11.8613  11.8618  12.0644  12.3347
    12.4257  12.4395  12.5477  12.5513  12.5516  12.6695  12.7560  12.7561
    14.0763  14.0847  14.2185  14.2186  14.2414  15.0760  17.0938  17.0948
    21.1344  21.1352

          k = 0.4375 0.4375 0.3125 (  3234 PWs)   bands (ev):

     9.6454  10.0197  10.0197  10.1750  12.0899  12.1759  12.1759  12.3749
    12.4724  12.5523  12.5523  12.5801  12.8189  12.8189  12.8280  12.8702
    14.0002  14.1697  14.1697  14.1764  14.5530  15.5542  15.5542  16.3555
    21.0117  21.9222

 ------ SPIN DOWN ----------


          k = 0.0625 0.0625 0.0625 (  3227 PWs)   bands (ev):

     5.3427  10.0234  10.0237  10.0241  10.6163  10.6163  10.6163  12.3725
    12.4491  12.4491  13.4848  13.4848  14.1669  14.1670  14.1670  14.1789
    14.1790  14.1790  14.4104  14.4105  14.4105  17.3810  17.3810  17.3810
    24.8615  24.8618

          k = 0.0625 0.0625 0.1875 (  3218 PWs)   bands (ev):

     5.7671  10.0131  10.2333  10.2334  10.7424  10.7522  10.7522  12.2384
    12.5513  12.5554  13.3594  13.4985  13.4986  13.5459  13.8927  14.0080
    14.0081  14.0383  14.2921  14.3983  14.3984  15.7843  18.3948  18.3948
    25.0005  25.0005

          k = 0.0625 0.0625 0.3125 (  3222 PWs)   bands (ev):

     6.5867   9.7707  10.5794  10.5795  10.9788  11.0246  11.0246  11.9787
    12.7031  12.7031  12.7418  12.7625  13.1736  13.2870  13.6591  13.7265
    13.7266  13.7630  14.1373  14.3877  14.3937  14.3939  19.8367  19.8368
    24.9929  24.9929

          k = 0.0625 0.0625 0.4375 (  3244 PWs)   bands (ev):

     7.7186   8.9391  10.8849  10.8850  11.2947  11.4309  11.4309  11.6457
    12.0024  12.0025  12.7788  12.7932  13.0564  13.2509  13.4077  13.4705
    13.4706  13.6789  13.8084  13.9738  14.3924  14.3925  21.4682  21.4682
    23.3148  23.3148

          k = 0.0625 0.1875 0.1875 (  3214 PWs)   bands (ev):

     6.1810  10.2410  10.2417  10.4230  10.8628  10.8672  10.8672  12.1681
    12.6007  12.6041  13.1487  13.1677  13.1680  13.3412  13.5608  13.8385
    13.9167  13.9167  14.2746  14.2746  14.3070  16.7191  16.7193  19.1939
    24.6165  25.5849

          k = 0.0625 0.1875 0.3125 (  3239 PWs)   bands (ev):

     6.9778  10.0324  10.6257  10.7437  11.0693  11.0836  11.1145  11.9683
    12.4317  12.5758  12.6582  12.6927  12.7715  13.2449  13.6057  13.6574
    13.6906  13.7234  14.0802  14.2318  14.2420  15.1902  17.9140  20.4358
    22.7313  25.7818

          k = 0.0625 0.1875 0.4375 (  3252 PWs)   bands (ev):

     8.0720   9.2430  11.0022  11.0661  11.3061  11.3703  11.4344  11.6825
    11.8547  12.0154  12.4700  12.5747  13.0172  13.3236  13.3799  13.4057
    13.4441  13.7564  13.9706  14.2138  14.2155  14.3496  19.2506  20.6992
    22.2261  23.8793

          k = 0.0625 0.3125 0.3125 (  3240 PWs)   bands (ev):

     7.7235  10.4750  10.4755  10.9787  11.1870  11.2911  11.2913  11.8947
    12.1436  12.1439  12.3171  12.5795  12.8442  13.2034  13.4110  13.5095
    13.5095  13.9750  13.9750  13.9859  14.0737  16.1493  16.1497  20.2792
    21.8425  26.2793

          k = 0.0625 0.3125 0.4375 (  3234 PWs)   bands (ev):

     8.7278   9.7752  10.9167  11.1037  11.3772  11.5163  11.5299  11.7326
    11.7869  11.9940  12.1738  12.4113  12.9822  13.2241  13.2548  13.3078
    13.3234  13.6460  13.9341  13.9660  14.3912  15.0175  17.2611  18.6261
    23.1778  24.8431

          k = 0.0625 0.4375 0.4375 (  3233 PWs)   bands (ev):

     9.5620  10.3651  10.3653  10.8160  11.7037  11.7095  11.7097  11.7544
    11.9055  11.9626  11.9627  12.2444  12.9453  13.0811  13.0813  13.0837
    13.3856  13.6267  13.6268  13.7447  14.9784  15.8539  15.8541  17.0020
    24.5234  26.1528

          k = 0.1875 0.1875 0.1875 (  3218 PWs)   bands (ev):

     6.5803  10.4284  10.4286  10.4289  10.9741  10.9741  10.9742  12.1295
    12.6148  12.6148  12.8755  12.8756  12.8757  13.4784  13.4784  13.6215
    13.6216  13.6217  14.3323  14.3324  14.3324  17.3509  17.3510  17.3512
    25.4351  25.4351

          k = 0.1875 0.1875 0.3125 (  3229 PWs)   bands (ev):

     7.3445  10.2147  10.7295  10.7296  11.1721  11.1721  11.1966  11.9921
    12.4086  12.4087  12.5018  12.6332  12.6787  13.3311  13.4232  13.4233
    13.4400  13.6949  14.2670  14.2671  14.2816  15.5993  18.3138  18.3138
    23.3636  23.3636

          k = 0.1875 0.1875 0.4375 (  3235 PWs)   bands (ev):

     8.3814   9.4726  11.0362  11.0362  11.3004  11.3005  11.4819  11.7621
    12.0810  12.0811  12.3754  12.5149  12.8235  13.0491  13.2601  13.2603
    13.7129  13.9313  14.1399  14.2015  14.2016  14.4031  19.3047  19.3047
    21.8295  21.8296

          k = 0.1875 0.3125 0.3125 (  3236 PWs)   bands (ev):

     8.0335  10.4752  10.4754  10.8036  11.3550  11.4256  11.4259  11.9970
    12.2375  12.2377  12.3393  12.5760  12.6507  13.1554  13.1554  13.1672
    13.5061  13.8965  14.2092  14.2233  14.2233  16.3494  16.3498  18.7706
    21.5947  24.3023

          k = 0.1875 0.3125 0.4375 (  3236 PWs)   bands (ev):

     8.9342   9.8371  10.6852  10.7913  11.5528  11.6096  11.7267  11.9234
    12.1577  12.2446  12.2592  12.4277  12.7151  12.8964  13.0160  13.0299
    13.6986  14.0351  14.1202  14.1213  14.2739  14.9783  17.2999  18.3429
    21.4353  22.5922

          k = 0.1875 0.4375 0.4375 (  3229 PWs)   bands (ev):

     9.5928  10.2000  10.2001  10.5079  11.8518  11.9783  11.9786  12.0998
    12.2052  12.2053  12.3090  12.3211  12.6743  12.8010  12.8011  12.8280
    13.7082  13.9225  13.9225  13.9777  14.8410  15.7681  15.7685  16.8824
    22.3603  23.7776

          k = 0.3125 0.3125 0.3125 (  3241 PWs)   bands (ev):

     8.5919  10.4398  10.4399  10.4399  11.6798  11.6800  11.6803  12.1954
    12.3828  12.3829  12.3830  12.5420  12.5420  12.8898  12.8898  12.8899
    13.8171  13.8171  14.2854  14.2854  14.2855  16.7245  16.7248  16.7252
    22.3300  22.3302

          k = 0.3125 0.3125 0.4375 (  3241 PWs)   bands (ev):

     9.2713   9.9185  10.4033  10.4034  11.8615  11.8616  12.0644  12.3347
    12.4257  12.4395  12.5477  12.5514  12.5515  12.6695  12.7560  12.7561
    14.0763  14.0847  14.2185  14.2186  14.2414  15.0760  17.0943  17.0943
    21.1348  21.1348

          k = 0.3125 0.4375 0.4375 (  3234 PWs)   bands (ev):

     9.6454  10.0196  10.0198  10.1750  12.0899  12.1759  12.1759  12.3749
    12.4724  12.5523  12.5524  12.5801  12.8186  12.8191  12.8280  12.8702
    14.0002  14.1697  14.1697  14.1764  14.5530  15.5539  15.5545  16.3555
    21.0117  21.9224

          k = 0.4375 0.4375 0.4375 (  3220 PWs)   bands (ev):

     9.7410   9.9127   9.9128   9.9130  12.2890  12.2890  12.2891  12.3840
    12.3840  12.4221  12.4221  12.4222  13.4737  13.4740  13.4743  13.8139
    14.1950  14.1950  14.2568  14.2569  14.2569  15.2438  15.2443  15.2448
    20.8977  20.8980

          k = 0.1875 0.0625 0.0625 (  3218 PWs)   bands (ev):

     5.7671  10.0131  10.2330  10.2337  10.7424  10.7522  10.7522  12.2384
    12.5513  12.5554  13.3594  13.4985  13.4986  13.5459  13.8927  14.0080
    14.0081  14.0383  14.2921  14.3983  14.3984  15.7843  18.3948  18.3949
    25.0002  25.0008

          k = 0.3125 0.0625 0.0625 (  3222 PWs)   bands (ev):

     6.5867   9.7707  10.5791  10.5798  10.9788  11.0246  11.0246  11.9787
    12.7031  12.7031  12.7418  12.7625  13.1736  13.2870  13.6591  13.7265
    13.7266  13.7630  14.1373  14.3877  14.3938  14.3939  19.8367  19.8368
    24.9928  24.9931

          k = 0.4375 0.0625 0.0625 (  3244 PWs)   bands (ev):

     7.7186   8.9391  10.8846  10.8853  11.2947  11.4309  11.4309  11.6458
    12.0024  12.0025  12.7788  12.7932  13.0564  13.2508  13.4077  13.4705
    13.4706  13.6789  13.8084  13.9738  14.3924  14.3925  21.4681  21.4684
    23.3146  23.3149

          k = 0.1875 0.1875 0.0625 (  3214 PWs)   bands (ev):

     6.1810  10.2413  10.2414  10.4230  10.8628  10.8672  10.8672  12.1681
    12.6007  12.6041  13.1487  13.1678  13.1679  13.3412  13.5608  13.8385
    13.9167  13.9167  14.2746  14.2746  14.3070  16.7192  16.7192  19.1939
    24.6165  25.5849

          k = 0.1875 0.3125 0.0625 (  3239 PWs)   bands (ev):

     6.9778  10.0324  10.6257  10.7437  11.0693  11.0836  11.1145  11.9683
    12.4317  12.5758  12.6582  12.6927  12.7715  13.2449  13.6057  13.6574
    13.6906  13.7234  14.0802  14.2318  14.2420  15.1902  17.9140  20.4358
    22.7313  25.7818

          k = 0.3125 0.0625 0.1875 (  3239 PWs)   bands (ev):

     6.9778  10.0324  10.6257  10.7437  11.0693  11.0836  11.1145  11.9683
    12.4317  12.5758  12.6582  12.6927  12.7715  13.2449  13.6057  13.6574
    13.6906  13.7234  14.0802  14.2318  14.2420  15.1902  17.9140  20.4358
    22.7313  25.7817

          k = 0.1875 0.4375 0.0625 (  3252 PWs)   bands (ev):

     8.0720   9.2430  11.0022  11.0661  11.3061  11.3703  11.4344  11.6825
    11.8547  12.0154  12.4700  12.5747  13.0172  13.3236  13.3799  13.4057
    13.4441  13.7564  13.9706  14.2138  14.2155  14.3496  19.2506  20.6992
    22.2261  23.8793

          k = 0.4375 0.0625 0.1875 (  3252 PWs)   bands (ev):

     8.0720   9.2430  11.0022  11.0661  11.3061  11.3703  11.4344  11.6825
    11.8547  12.0154  12.4700  12.5747  13.0172  13.3236  13.3799  13.4057
    13.4441  13.7564  13.9706  14.2139  14.2155  14.3496  19.2506  20.6992
    22.2261  23.8793

          k = 0.3125 0.3125 0.0625 (  3240 PWs)   bands (ev):

     7.7235  10.4752  10.4753  10.9787  11.1870  11.2912  11.2912  11.8947
    12.1437  12.1438  12.3171  12.5795  12.8442  13.2034  13.4110  13.5095
    13.5095  13.9750  13.9750  13.9859  14.0737  16.1495  16.1495  20.2792
    21.8425  26.2793

          k = 0.3125 0.4375 0.0625 (  3234 PWs)   bands (ev):

     8.7278   9.7752  10.9167  11.1037  11.3772  11.5163  11.5299  11.7326
    11.7869  11.9940  12.1738  12.4113  12.9822  13.2241  13.2548  13.3078
    13.3234  13.6460  13.9341  13.9660  14.3912  15.0175  17.2611  18.6261
    23.1778  24.8431

          k = 0.4375 0.0625 0.3125 (  3234 PWs)   bands (ev):

     8.7278   9.7752  10.9167  11.1037  11.3772  11.5163  11.5299  11.7326
    11.7869  11.9940  12.1738  12.4113  12.9822  13.2241  13.2548  13.3078
    13.3234  13.6460  13.9341  13.9660  14.3912  15.0175  17.2611  18.6261
    23.1778  24.8431

          k = 0.4375 0.4375 0.0625 (  3233 PWs)   bands (ev):

     9.5620  10.3651  10.3652  10.8160  11.7037  11.7096  11.7096  11.7544
    11.9055  11.9626  11.9627  12.2444  12.9453  13.0811  13.0812  13.0837
    13.3856  13.6267  13.6268  13.7447  14.9784  15.8539  15.8540  17.0020
    24.5234  26.1528

          k = 0.3125 0.1875 0.1875 (  3229 PWs)   bands (ev):

     7.3445  10.2147  10.7293  10.7297  11.1719  11.1722  11.1966  11.9921
    12.4086  12.4087  12.5018  12.6332  12.6787  13.3311  13.4232  13.4233
    13.4400  13.6949  14.2670  14.2670  14.2816  15.5993  18.3135  18.3140
    23.3635  23.3637

          k = 0.4375 0.1875 0.1875 (  3235 PWs)   bands (ev):

     8.3814   9.4726  11.0361  11.0363  11.3002  11.3007  11.4819  11.7621
    12.0811  12.0811  12.3754  12.5149  12.8235  13.0491  13.2601  13.2602
    13.7129  13.9313  14.1399  14.2015  14.2015  14.4031  19.3042  19.3052
    21.8292  21.8299

          k = 0.3125 0.3125 0.1875 (  3236 PWs)   bands (ev):

     8.0335  10.4753  10.4753  10.8036  11.3550  11.4257  11.4258  11.9970
    12.2375  12.2376  12.3393  12.5760  12.6507  13.1554  13.1554  13.1672
    13.5061  13.8965  14.2092  14.2233  14.2233  16.3496  16.3496  18.7706
    21.5947  24.3022

          k = 0.3125 0.4375 0.1875 (  3236 PWs)   bands (ev):

     8.9342   9.8371  10.6852  10.7913  11.5528  11.6096  11.7267  11.9234
    12.1577  12.2446  12.2592  12.4277  12.7151  12.8964  13.0160  13.0299
    13.6986  14.0351  14.1202  14.1213  14.2739  14.9783  17.2999  18.3429
    21.4353  22.5922

          k = 0.4375 0.1875 0.3125 (  3236 PWs)   bands (ev):

     8.9342   9.8371  10.6852  10.7913  11.5528  11.6096  11.7267  11.9234
    12.1577  12.2446  12.2592  12.4277  12.7151  12.8964  13.0160  13.0299
    13.6986  14.0351  14.1202  14.1213  14.2739  14.9783  17.2999  18.3429
    21.4353  22.5922

          k = 0.4375 0.4375 0.1875 (  3229 PWs)   bands (ev):

     9.5928  10.2000  10.2000  10.5079  11.8518  11.9784  11.9785  12.0998
    12.2052  12.2053  12.3090  12.3211  12.6743  12.8010  12.8010  12.8280
    13.7082  13.9225  13.9226  13.9777  14.8410  15.7682  15.7683  16.8824
    22.3603  23.7775

          k = 0.4375 0.3125 0.3125 (  3241 PWs)   bands (ev):

     9.2713   9.9185  10.4033  10.4034  11.8613  11.8618  12.0644  12.3347
    12.4257  12.4395  12.5477  12.5514  12.5516  12.6695  12.7560  12.7561
    14.0763  14.0847  14.2186  14.2186  14.2414  15.0760  17.0938  17.0948
    21.1345  21.1352

          k = 0.4375 0.4375 0.3125 (  3234 PWs)   bands (ev):

     9.6454  10.0197  10.0197  10.1750  12.0899  12.1759  12.1759  12.3749
    12.4724  12.5523  12.5523  12.5801  12.8189  12.8189  12.8280  12.8702
    14.0002  14.1697  14.1697  14.1764  14.5530  15.5541  15.5542  16.3555
    21.0117  21.9222

     the Fermi energy is    16.0521 ev

!    total energy              =    -490.91724511 Ry
     Harris-Foulkes estimate   =    -490.91724504 Ry
     estimated scf accuracy    <       0.00000003 Ry

     The total energy is the sum of the following terms:

     one-electron contribution =     -79.61743652 Ry
     hartree contribution      =     111.97472903 Ry
     xc contribution           =    -178.91016218 Ry
     ewald contribution        =    -344.36451169 Ry
     smearing contrib. (-TS)   =       0.00013624 Ry

     total magnetization       =    -0.00 Bohr mag/cell
     absolute magnetization    =     0.00 Bohr mag/cell

     convergence has been achieved in   7 iterations

     Writing output data file cu-3.41.save/

     init_run     :      2.57s CPU      2.67s WALL (       1 calls)
     electrons    :     43.21s CPU     44.68s WALL (       1 calls)

     Called by init_run:
     wfcinit      :      2.12s CPU      2.18s WALL (       1 calls)
     potinit      :      0.06s CPU      0.07s WALL (       1 calls)
     hinit0       :      0.22s CPU      0.23s WALL (       1 calls)

     Called by electrons:
     c_bands      :     36.72s CPU     37.95s WALL (       8 calls)
     sum_band     :      5.54s CPU      5.77s WALL (       8 calls)
     v_of_rho     :      0.30s CPU      0.30s WALL (       8 calls)
     newd         :      0.73s CPU      0.76s WALL (       8 calls)
     mix_rho      :      0.02s CPU      0.03s WALL (       8 calls)

     Called by c_bands:
     init_us_2    :      0.40s CPU      0.41s WALL (    1360 calls)
     cegterg      :     34.72s CPU     35.93s WALL (     640 calls)

     Called by sum_band:
     sum_band:bec :      0.03s CPU      0.03s WALL (     640 calls)
     addusdens    :      0.86s CPU      0.87s WALL (       8 calls)

     Called by *egterg:
     h_psi        :     21.88s CPU     23.08s WALL (    2172 calls)
     s_psi        :      2.81s CPU      2.84s WALL (    2172 calls)
     g_psi        :      0.12s CPU      0.12s WALL (    1452 calls)
     cdiaghg      :      2.54s CPU      2.55s WALL (    2012 calls)

     Called by h_psi:
     h_psi:pot    :     21.81s CPU     23.01s WALL (    2172 calls)
     h_psi:calbec :      3.79s CPU      4.00s WALL (    2172 calls)
     vloc_psi     :     15.19s CPU     16.13s WALL (    2172 calls)
     add_vuspsi   :      2.82s CPU      2.88s WALL (    2172 calls)

     General routines
     calbec       :      5.15s CPU      5.44s WALL (    2812 calls)
     fft          :      0.14s CPU      0.14s WALL (     196 calls)
     ffts         :      0.01s CPU      0.01s WALL (      32 calls)
     fftw         :     16.40s CPU     17.36s WALL (  106532 calls)
     interpolate  :      0.02s CPU      0.02s WALL (      16 calls)

     Parallel routines
     fft_scatt_xy :      1.40s CPU      1.49s WALL (  106760 calls)
     fft_scatt_yz :      7.59s CPU      8.02s WALL (  106760 calls)

     PWSCF        :     47.26s CPU     48.90s WALL


   This run was terminated on:  20: 6:32  17Mar2022            

=------------------------------------------------------------------------------=
   JOB DONE.
=------------------------------------------------------------------------------=
