
     Program PWSCF v.6.4.1 starts on 17Mar2022 at 20: 9:58 

     This program is part of the open-source Quantum ESPRESSO suite
     for quantum simulation of materials; please cite
         "P. Giannozzi et al., J. Phys.:Condens. Matter 21 395502 (2009);
         "P. Giannozzi et al., J. Phys.:Condens. Matter 29 465901 (2017);
          URL http://www.quantum-espresso.org", 
     in publications or presentations arising from this work. More details at
     http://www.quantum-espresso.org/quote

     Parallel version (MPI), running on     6 processors

     MPI processes distributed on     1 nodes
     R & G space division:  proc/nbgrp/npool/nimage =       6
     Reading input from cu-3.51.in
Warning: card CU1   63.546    CU.PBE-DN-RRKJUS_PSL.1.0.0.UPF ignored
Warning: card CU2   63.546    CU.PBE-DN-RRKJUS_PSL.1.0.0.UPF ignored

     Current dimensions of program PWSCF are:
     Max number of different atomic species (ntypx) = 10
     Max number of k-points (npk) =  40000
     Max angular momentum in pseudopotentials (lmaxx) =  3
               file Cu.pbe-dn-rrkjus_psl.1.0.0.UPF: wavefunction(s)  3D renormalized
               file Cu.pbe-dn-rrkjus_psl.1.0.0.UPF: wavefunction(s)  3D renormalized

     Subspace diagonalization in iterative solution of the eigenvalue problem:
     a serial algorithm will be used

     Found symmetry operation: I + (  0.0000 -0.5000 -0.5000)
     This is a supercell, fractional translations are disabled
     Message from routine setup:
     DEPRECATED: symmetry with ibrav=0, use correct ibrav instead

     Parallelization info
     --------------------
     sticks:   dense  smooth     PW     G-vecs:    dense   smooth      PW
     Min         323     185     55                10851     4709     742
     Max         324     187     57                10856     4710     743
     Sum        1941    1117    333                65117    28257    4457



     bravais-lattice index     =            0
     lattice parameter (alat)  =       6.6329  a.u.
     unit-cell volume          =     291.8220 (a.u.)^3
     number of atoms/cell      =            4
     number of atomic types    =            2
     number of electrons       =        44.00
     number of Kohn-Sham states=           26
     kinetic-energy cutoff     =      80.0000  Ry
     charge density cutoff     =     560.0000  Ry
     convergence threshold     =      1.0E-06
     mixing beta               =       0.7000
     number of iterations used =            8  plain     mixing
     Exchange-correlation      = PBE ( 1  4  3  4 0 0)

     celldm(1)=   6.632939  celldm(2)=   0.000000  celldm(3)=   0.000000
     celldm(4)=   0.000000  celldm(5)=   0.000000  celldm(6)=   0.000000

     crystal axes: (cart. coord. in units of alat)
               a(1) = (   1.000000   0.000000   0.000000 )  
               a(2) = (   0.000000   1.000000   0.000000 )  
               a(3) = (   0.000000   0.000000   1.000000 )  

     reciprocal axes: (cart. coord. in units 2 pi/alat)
               b(1) = (  1.000000  0.000000  0.000000 )  
               b(2) = (  0.000000  1.000000  0.000000 )  
               b(3) = (  0.000000  0.000000  1.000000 )  


     PseudoPot. # 1 for Cu read from file:
     /home/cristian/Escritorio/Proyecto_Grafeno/pseudopotenciales/Cu.pbe-dn-rrkjus_psl.1.0.0.UPF
     MD5 check sum: ba3d6c84e19846e79d48cdc68ff7152b
     Pseudo is Ultrasoft + core correction, Zval = 11.0
     Generated using "atomic" code by A. Dal Corso v.6.3
     Using radial grid of 1199 points,  6 beta functions with: 
                l(1) =   0
                l(2) =   0
                l(3) =   1
                l(4) =   1
                l(5) =   2
                l(6) =   2
     Q(r) pseudized with 0 coefficients 


     PseudoPot. # 2 for Cu read from file:
     /home/cristian/Escritorio/Proyecto_Grafeno/pseudopotenciales/Cu.pbe-dn-rrkjus_psl.1.0.0.UPF
     MD5 check sum: ba3d6c84e19846e79d48cdc68ff7152b
     Pseudo is Ultrasoft + core correction, Zval = 11.0
     Generated using "atomic" code by A. Dal Corso v.6.3
     Using radial grid of 1199 points,  6 beta functions with: 
                l(1) =   0
                l(2) =   0
                l(3) =   1
                l(4) =   1
                l(5) =   2
                l(6) =   2
     Q(r) pseudized with 0 coefficients 


     atomic species   valence    mass     pseudopotential
        Cu1           11.00    63.54600     Cu( 1.00)
        Cu2           11.00    63.54600     Cu( 1.00)

     Starting magnetic structure 
     atomic species   magnetization
        Cu1          0.100
        Cu2         -0.100

     16 Sym. Ops., with inversion, found



   Cartesian axes

     site n.     atom                  positions (alat units)
         1           Cu1 tau(   1) = (   0.0000000   0.0000000   0.0000000  )
         2           Cu2 tau(   2) = (   0.5000000   0.5000000   0.0000000  )
         3           Cu1 tau(   3) = (   0.0000000   0.5000000   0.5000000  )
         4           Cu2 tau(   4) = (   0.5000000   0.0000000   0.5000000  )

     number of k points=    40  Methfessel-Paxton smearing, width (Ry)=  0.0300
                       cart. coord. in units 2pi/alat
        k(    1) = (   0.0625000   0.0625000   0.0625000), wk =   0.0156250
        k(    2) = (   0.0625000   0.0625000   0.1875000), wk =   0.0312500
        k(    3) = (   0.0625000   0.0625000   0.3125000), wk =   0.0312500
        k(    4) = (   0.0625000   0.0625000   0.4375000), wk =   0.0312500
        k(    5) = (   0.0625000   0.1875000   0.1875000), wk =   0.0156250
        k(    6) = (   0.0625000   0.1875000   0.3125000), wk =   0.0312500
        k(    7) = (   0.0625000   0.1875000   0.4375000), wk =   0.0312500
        k(    8) = (   0.0625000   0.3125000   0.3125000), wk =   0.0156250
        k(    9) = (   0.0625000   0.3125000   0.4375000), wk =   0.0312500
        k(   10) = (   0.0625000   0.4375000   0.4375000), wk =   0.0156250
        k(   11) = (   0.1875000   0.1875000   0.1875000), wk =   0.0156250
        k(   12) = (   0.1875000   0.1875000   0.3125000), wk =   0.0312500
        k(   13) = (   0.1875000   0.1875000   0.4375000), wk =   0.0312500
        k(   14) = (   0.1875000   0.3125000   0.3125000), wk =   0.0156250
        k(   15) = (   0.1875000   0.3125000   0.4375000), wk =   0.0312500
        k(   16) = (   0.1875000   0.4375000   0.4375000), wk =   0.0156250
        k(   17) = (   0.3125000   0.3125000   0.3125000), wk =   0.0156250
        k(   18) = (   0.3125000   0.3125000   0.4375000), wk =   0.0312500
        k(   19) = (   0.3125000   0.4375000   0.4375000), wk =   0.0156250
        k(   20) = (   0.4375000   0.4375000   0.4375000), wk =   0.0156250
        k(   21) = (   0.1875000   0.0625000   0.0625000), wk =   0.0156250
        k(   22) = (   0.3125000   0.0625000   0.0625000), wk =   0.0156250
        k(   23) = (   0.4375000   0.0625000   0.0625000), wk =   0.0156250
        k(   24) = (   0.1875000   0.1875000   0.0625000), wk =   0.0312500
        k(   25) = (   0.1875000   0.3125000   0.0625000), wk =   0.0312500
        k(   26) = (   0.3125000   0.0625000   0.1875000), wk =   0.0312500
        k(   27) = (   0.1875000   0.4375000   0.0625000), wk =   0.0312500
        k(   28) = (   0.4375000   0.0625000   0.1875000), wk =   0.0312500
        k(   29) = (   0.3125000   0.3125000   0.0625000), wk =   0.0312500
        k(   30) = (   0.3125000   0.4375000   0.0625000), wk =   0.0312500
        k(   31) = (   0.4375000   0.0625000   0.3125000), wk =   0.0312500
        k(   32) = (   0.4375000   0.4375000   0.0625000), wk =   0.0312500
        k(   33) = (   0.3125000   0.1875000   0.1875000), wk =   0.0156250
        k(   34) = (   0.4375000   0.1875000   0.1875000), wk =   0.0156250
        k(   35) = (   0.3125000   0.3125000   0.1875000), wk =   0.0312500
        k(   36) = (   0.3125000   0.4375000   0.1875000), wk =   0.0312500
        k(   37) = (   0.4375000   0.1875000   0.3125000), wk =   0.0312500
        k(   38) = (   0.4375000   0.4375000   0.1875000), wk =   0.0312500
        k(   39) = (   0.4375000   0.3125000   0.3125000), wk =   0.0156250
        k(   40) = (   0.4375000   0.4375000   0.3125000), wk =   0.0312500

     Dense  grid:    65117 G-vectors     FFT dimensions: (  50,  50,  50)

     Smooth grid:    28257 G-vectors     FFT dimensions: (  40,  40,  40)

     Estimated max dynamical RAM per process >      65.34 MB

     Estimated total dynamical RAM >     392.03 MB
     Generating pointlists ...
     new r_m :   0.2917 (alat units)  1.9347 (a.u.) for type    1
     new r_m :   0.2917 (alat units)  1.9347 (a.u.) for type    2

     Initial potential from superposition of free atoms

     starting charge   43.99908, renormalised to   44.00000
     Starting wfcs are   36 randomized atomic wfcs

     total cpu time spent up to now is        4.3 secs

     Self-consistent Calculation

     iteration #  1     ecut=    80.00 Ry     beta= 0.70
     Davidson diagonalization with overlap
     ethr =  1.00E-02,  avg # of iterations =  2.6

     Threshold (ethr) on eigenvalues was too large:
     Diagonalizing with lowered threshold

     Davidson diagonalization with overlap
     ethr =  7.44E-04,  avg # of iterations =  2.0

     total cpu time spent up to now is       14.6 secs

     total energy              =    -490.79428985 Ry
     Harris-Foulkes estimate   =    -490.97704494 Ry
     estimated scf accuracy    <       0.37145612 Ry

     total magnetization       =     0.00 Bohr mag/cell
     absolute magnetization    =     0.72 Bohr mag/cell

     iteration #  2     ecut=    80.00 Ry     beta= 0.70
     Davidson diagonalization with overlap
     ethr =  8.44E-04,  avg # of iterations =  2.5

     total cpu time spent up to now is       21.4 secs

     total energy              =    -490.80112156 Ry
     Harris-Foulkes estimate   =    -491.16452706 Ry
     estimated scf accuracy    <       0.91139485 Ry

     total magnetization       =    -0.00 Bohr mag/cell
     absolute magnetization    =     0.17 Bohr mag/cell

     iteration #  3     ecut=    80.00 Ry     beta= 0.70
     Davidson diagonalization with overlap
     ethr =  8.44E-04,  avg # of iterations =  2.0

     total cpu time spent up to now is       28.0 secs

     total energy              =    -490.96711457 Ry
     Harris-Foulkes estimate   =    -490.96322258 Ry
     estimated scf accuracy    <       0.01452033 Ry

     total magnetization       =     0.00 Bohr mag/cell
     absolute magnetization    =     0.22 Bohr mag/cell

     iteration #  4     ecut=    80.00 Ry     beta= 0.70
     Davidson diagonalization with overlap
     ethr =  3.30E-05,  avg # of iterations =  2.0

     total cpu time spent up to now is       33.0 secs

     total energy              =    -490.96894764 Ry
     Harris-Foulkes estimate   =    -490.96893752 Ry
     estimated scf accuracy    <       0.00005132 Ry

     total magnetization       =    -0.00 Bohr mag/cell
     absolute magnetization    =     0.02 Bohr mag/cell

     iteration #  5     ecut=    80.00 Ry     beta= 0.70
     Davidson diagonalization with overlap
     ethr =  1.17E-07,  avg # of iterations =  3.6

     total cpu time spent up to now is       41.3 secs

     total energy              =    -490.96897510 Ry
     Harris-Foulkes estimate   =    -490.96902377 Ry
     estimated scf accuracy    <       0.00018719 Ry

     total magnetization       =     0.00 Bohr mag/cell
     absolute magnetization    =     0.01 Bohr mag/cell

     iteration #  6     ecut=    80.00 Ry     beta= 0.70
     Davidson diagonalization with overlap
     ethr =  1.17E-07,  avg # of iterations =  2.1

     total cpu time spent up to now is       47.5 secs

     total energy              =    -490.96900249 Ry
     Harris-Foulkes estimate   =    -490.96900206 Ry
     estimated scf accuracy    <       0.00000728 Ry

     total magnetization       =    -0.00 Bohr mag/cell
     absolute magnetization    =     0.01 Bohr mag/cell

     iteration #  7     ecut=    80.00 Ry     beta= 0.70
     Davidson diagonalization with overlap
     ethr =  1.65E-08,  avg # of iterations =  2.2

     Magnetic moment per site:
     atom:    1    charge:    9.7625    magn:   -0.0000    constr:    0.0000
     atom:    2    charge:    9.7624    magn:   -0.0000    constr:    0.0000
     atom:    3    charge:    9.7626    magn:    0.0000    constr:    0.0000
     atom:    4    charge:    9.7624    magn:   -0.0000    constr:    0.0000

     total cpu time spent up to now is       53.0 secs

     End of self-consistent calculation

 ------ SPIN UP ------------


          k = 0.0625 0.0625 0.0625 (  3542 PWs)   bands (ev):

     4.3330   8.8978   8.8981   8.8984   9.4255   9.4255   9.4255  10.9623
    11.0289  11.0289  11.9338  11.9338  12.5312  12.5312  12.5314  12.5518
    12.5520  12.5520  12.7443  12.7444  12.7446  15.6676  15.6676  15.6676
    22.4615  22.4617

          k = 0.0625 0.0625 0.1875 (  3537 PWs)   bands (ev):

     4.7320   8.8735   9.0868   9.0868   9.5368   9.5445   9.5445  10.8461
    11.1188  11.1223  11.8253  11.9643  11.9643  11.9873  12.3056  12.3943
    12.3944  12.4199  12.6408  12.7338  12.7340  14.0969  16.5754  16.5755
    22.6231  22.6232

          k = 0.0625 0.0625 0.3125 (  3543 PWs)   bands (ev):

     5.5050   8.6072   9.3981   9.3982   9.7452   9.7835   9.7836  10.6205
    11.2645  11.2645  11.2866  11.3044  11.6646  11.7736  12.0865  12.1498
    12.1500  12.1805  12.5052  12.7299  12.7301  12.7538  17.8988  17.8988
    22.7726  22.7726

          k = 0.0625 0.0625 0.4375 (  3519 PWs)   bands (ev):

     6.5815   7.7653   9.6733   9.6734  10.0228  10.1406  10.1406  10.3301
    10.6453  10.6453  11.3207  11.3324  11.5625  11.7328  11.8703  11.9263
    11.9265  12.1099  12.2173  12.3621  12.7287  12.7289  19.4216  19.4217
    21.1531  21.1531

          k = 0.0625 0.1875 0.1875 (  3544 PWs)   bands (ev):

     5.1218   9.0804   9.0811   9.2564   9.6415   9.6461   9.6461  10.7858
    11.1626  11.1651  11.6584  11.6708  11.6708  11.8099  12.0010  12.2468
    12.3160  12.3161  12.6262  12.6263  12.6542  14.9356  14.9359  17.3041
    22.4289  23.1039

          k = 0.0625 0.1875 0.3125 (  3538 PWs)   bands (ev):

     5.8750   8.8493   9.4292   9.5421   9.8230   9.8370   9.8634  10.6122
    11.0199  11.1525  11.2144  11.2460  11.3123  11.7270  12.0446  12.0895
    12.1200  12.1435  12.4580  12.5891  12.5977  13.4766  16.0348  18.4567
    20.5923  23.3392

          k = 0.0625 0.1875 0.4375 (  3530 PWs)   bands (ev):

     6.9174   8.0529   9.7714   9.8332  10.0252  10.0890  10.1431  10.3626
    10.5109  10.6572  11.0503  11.1432  11.5281  11.7969  11.8461  11.8704
    11.9047  12.1768  12.3605  12.5735  12.5748  12.6987  17.2887  18.6827
    20.0897  21.6652

          k = 0.0625 0.3125 0.3125 (  3528 PWs)   bands (ev):

     6.5830   9.2577   9.2583   9.7388   9.9341  10.0198  10.0198  10.5487
    10.7630  10.7632  10.9240  11.1471  11.3763  11.6913  11.8749  11.9619
    11.9620  12.3662  12.3663  12.3741  12.4509  14.3546  14.3551  18.2904
    19.7212  23.8378

          k = 0.0625 0.3125 0.4375 (  3514 PWs)   bands (ev):

     7.5435   8.5588   9.6632   9.8346  10.1077  10.2175  10.2340  10.4071
    10.4523  10.6385  10.7938  11.0022  11.4982  11.7111  11.7389  11.7863
    11.7967  12.0796  12.3298  12.3572  12.7324  13.2988  15.3934  16.6920
    20.9873  22.5650

          k = 0.0625 0.4375 0.4375 (  3528 PWs)   bands (ev):

     8.3460   9.1239   9.1242   9.5591  10.3888  10.3888  10.3933  10.4267
    10.5594  10.6128  10.6129  10.8592  11.4670  11.5870  11.5871  11.5890
    11.8504  12.0614  12.0615  12.1640  13.2591  14.0660  14.0665  15.1452
    22.2544  23.8011

          k = 0.1875 0.1875 0.1875 (  3536 PWs)   bands (ev):

     5.4993   9.2488   9.2491   9.2493   9.7408   9.7408   9.7408  10.7534
    11.1748  11.1748  11.4136  11.4137  11.4137  11.9299  11.9299  12.0576
    12.0576  12.0578  12.6758  12.6758  12.6760  15.5172  15.5173  15.5175
    23.1549  23.1550

          k = 0.1875 0.1875 0.3125 (  3525 PWs)   bands (ev):

     6.2243   9.0184   9.5165   9.5166   9.9180   9.9181   9.9377  10.6342
    11.0008  11.0009  11.0778  11.1922  11.2312  11.8038  11.8856  11.8857
    11.8976  12.1191  12.6192  12.6193  12.6313  13.8584  16.4193  16.4193
    21.1478  21.1478

          k = 0.1875 0.1875 0.4375 (  3513 PWs)   bands (ev):

     7.2157   8.2755   9.7831   9.7832  10.0365  10.0366  10.1880  10.4333
    10.7143  10.7144  10.9674  11.0906  11.3586  11.5567  11.7435  11.7436
    12.1394  12.3256  12.5075  12.5622  12.5624  12.7576  17.3839  17.3839
    19.6386  19.6387

          k = 0.1875 0.3125 0.3125 (  3530 PWs)   bands (ev):

     6.8835   9.2594   9.2596   9.5723  10.0864  10.1438  10.1441  10.6401
    10.8461  10.8462  10.9421  11.1428  11.2072  11.6510  11.6511  11.6615
    11.9555  12.2963  12.5688  12.5815  12.5816  14.5569  14.5574  16.8896
    19.4029  22.0228

          k = 0.1875 0.3125 0.4375 (  3514 PWs)   bands (ev):

     7.7522   8.6320   9.4525   9.5528  10.2624  10.3111  10.4069  10.5770
    10.7811  10.8531  10.8747  11.0147  11.2642  11.4237  11.5295  11.5420
    12.1252  12.4191  12.4914  12.4928  12.6307  13.2757  15.4629  16.4869
    19.2309  20.3670

          k = 0.1875 0.4375 0.4375 (  3513 PWs)   bands (ev):

     8.3963   8.9887   8.9887   9.2864  10.5229  10.6348  10.6353  10.7368
    10.8215  10.8216  10.9123  10.9322  11.2292  11.3411  11.3412  11.3646
    12.1323  12.3200  12.3201  12.3673  13.1431  14.0085  14.0091  15.0725
    20.1313  21.4974

          k = 0.3125 0.3125 0.3125 (  3527 PWs)   bands (ev):

     7.4281   9.2297   9.2297   9.2298  10.3728  10.3731  10.3732  10.8191
    10.9792  10.9793  10.9794  11.1122  11.1122  11.4182  11.4182  11.4183
    12.2267  12.2267  12.6348  12.6348  12.6350  14.9396  14.9400  14.9404
    20.1039  20.1041

          k = 0.3125 0.3125 0.4375 (  3516 PWs)   bands (ev):

     8.0953   8.7288   9.1981   9.1981  10.5307  10.5308  10.7094  10.9488
    11.0174  11.0238  11.1175  11.1385  11.1386  11.2247  11.3017  11.3018
    12.4527  12.4701  12.5769  12.5770  12.5964  13.3890  15.3321  15.3321
    18.9135  18.9135

          k = 0.3125 0.4375 0.4375 (  3520 PWs)   bands (ev):

     8.4728   8.8379   8.8381   8.9882  10.7256  10.7994  10.7996  10.9683
    11.0521  11.1226  11.1227  11.1470  11.3865  11.3871  11.4031  11.4327
    12.3867  12.5349  12.5350  12.5402  12.8964  13.8584  13.8593  14.6466
    18.7823  19.6833

          k = 0.4375 0.4375 0.4375 (  3518 PWs)   bands (ev):

     8.5809   8.7477   8.7478   8.7480  10.8936  10.8937  10.8937  10.9745
    10.9745  11.0081  11.0081  11.0083  11.9806  11.9809  11.9812  12.3594
    12.5562  12.5562  12.6099  12.6100  12.6101  13.6300  13.6306  13.6312
    18.6610  18.6614

          k = 0.1875 0.0625 0.0625 (  3537 PWs)   bands (ev):

     4.7320   8.8735   9.0865   9.0871   9.5368   9.5445   9.5445  10.8461
    11.1188  11.1223  11.8253  11.9643  11.9643  11.9873  12.3056  12.3943
    12.3944  12.4199  12.6408  12.7337  12.7341  14.0969  16.5754  16.5755
    22.6229  22.6234

          k = 0.3125 0.0625 0.0625 (  3543 PWs)   bands (ev):

     5.5050   8.6072   9.3979   9.3984   9.7452   9.7835   9.7835  10.6205
    11.2645  11.2645  11.2866  11.3044  11.6646  11.7736  12.0865  12.1498
    12.1500  12.1805  12.5052  12.7298  12.7302  12.7538  17.8988  17.8989
    22.7725  22.7727

          k = 0.4375 0.0625 0.0625 (  3519 PWs)   bands (ev):

     6.5815   7.7653   9.6731   9.6736  10.0228  10.1406  10.1406  10.3301
    10.6452  10.6453  11.3207  11.3324  11.5625  11.7328  11.8703  11.9263
    11.9265  12.1099  12.2173  12.3621  12.7286  12.7290  19.4215  19.4218
    21.1530  21.1533

          k = 0.1875 0.1875 0.0625 (  3544 PWs)   bands (ev):

     5.1218   9.0807   9.0808   9.2564   9.6415   9.6461   9.6462  10.7858
    11.1626  11.1651  11.6584  11.6708  11.6709  11.8099  12.0010  12.2468
    12.3160  12.3161  12.6262  12.6263  12.6542  14.9357  14.9358  17.3041
    22.4289  23.1039

          k = 0.1875 0.3125 0.0625 (  3538 PWs)   bands (ev):

     5.8750   8.8493   9.4292   9.5421   9.8230   9.8370   9.8634  10.6122
    11.0199  11.1525  11.2144  11.2460  11.3123  11.7270  12.0446  12.0895
    12.1200  12.1435  12.4580  12.5891  12.5977  13.4766  16.0348  18.4567
    20.5923  23.3392

          k = 0.3125 0.0625 0.1875 (  3538 PWs)   bands (ev):

     5.8750   8.8493   9.4292   9.5421   9.8230   9.8370   9.8634  10.6122
    11.0199  11.1525  11.2144  11.2460  11.3123  11.7270  12.0446  12.0895
    12.1200  12.1435  12.4580  12.5891  12.5977  13.4766  16.0348  18.4567
    20.5923  23.3392

          k = 0.1875 0.4375 0.0625 (  3530 PWs)   bands (ev):

     6.9174   8.0529   9.7714   9.8332  10.0252  10.0890  10.1431  10.3626
    10.5109  10.6572  11.0503  11.1432  11.5281  11.7969  11.8461  11.8704
    11.9047  12.1768  12.3605  12.5735  12.5748  12.6987  17.2887  18.6826
    20.0897  21.6652

          k = 0.4375 0.0625 0.1875 (  3530 PWs)   bands (ev):

     6.9174   8.0529   9.7714   9.8332  10.0252  10.0890  10.1431  10.3626
    10.5109  10.6572  11.0503  11.1432  11.5281  11.7969  11.8461  11.8703
    11.9047  12.1768  12.3605  12.5735  12.5749  12.6987  17.2887  18.6827
    20.0897  21.6652

          k = 0.3125 0.3125 0.0625 (  3528 PWs)   bands (ev):

     6.5830   9.2580   9.2580   9.7388   9.9341  10.0198  10.0199  10.5487
    10.7630  10.7632  10.9240  11.1471  11.3763  11.6913  11.8749  11.9620
    11.9620  12.3662  12.3663  12.3741  12.4509  14.3548  14.3549  18.2904
    19.7212  23.8378

          k = 0.3125 0.4375 0.0625 (  3514 PWs)   bands (ev):

     7.5435   8.5588   9.6632   9.8346  10.1077  10.2175  10.2340  10.4071
    10.4523  10.6385  10.7938  11.0022  11.4982  11.7111  11.7389  11.7863
    11.7967  12.0796  12.3298  12.3572  12.7324  13.2988  15.3934  16.6920
    20.9873  22.5650

          k = 0.4375 0.0625 0.3125 (  3514 PWs)   bands (ev):

     7.5435   8.5588   9.6632   9.8346  10.1077  10.2175  10.2340  10.4071
    10.4523  10.6385  10.7938  11.0022  11.4982  11.7111  11.7389  11.7862
    11.7967  12.0796  12.3298  12.3572  12.7324  13.2988  15.3934  16.6920
    20.9873  22.5650

          k = 0.4375 0.4375 0.0625 (  3528 PWs)   bands (ev):

     8.3460   9.1240   9.1241   9.5591  10.3888  10.3889  10.3933  10.4267
    10.5594  10.6128  10.6129  10.8592  11.4670  11.5870  11.5871  11.5890
    11.8504  12.0614  12.0615  12.1640  13.2591  14.0662  14.0663  15.1452
    22.2544  23.8011

          k = 0.3125 0.1875 0.1875 (  3525 PWs)   bands (ev):

     6.2243   9.0184   9.5164   9.5167   9.9180   9.9181   9.9377  10.6342
    11.0008  11.0009  11.0778  11.1922  11.2312  11.8038  11.8856  11.8857
    11.8976  12.1191  12.6191  12.6194  12.6313  13.8584  16.4190  16.4195
    21.1477  21.1479

          k = 0.4375 0.1875 0.1875 (  3513 PWs)   bands (ev):

     7.2157   8.2755   9.7831   9.7832  10.0363  10.0367  10.1880  10.4333
    10.7142  10.7144  10.9674  11.0906  11.3586  11.5567  11.7435  11.7436
    12.1394  12.3256  12.5075  12.5621  12.5624  12.7576  17.3834  17.3844
    19.6383  19.6390

          k = 0.3125 0.3125 0.1875 (  3530 PWs)   bands (ev):

     6.8835   9.2595   9.2595   9.5723  10.0864  10.1439  10.1440  10.6401
    10.8461  10.8462  10.9421  11.1428  11.2072  11.6511  11.6511  11.6614
    11.9555  12.2963  12.5688  12.5815  12.5816  14.5571  14.5572  16.8896
    19.4029  22.0228

          k = 0.3125 0.4375 0.1875 (  3514 PWs)   bands (ev):

     7.7522   8.6320   9.4525   9.5528  10.2624  10.3111  10.4069  10.5770
    10.7811  10.8531  10.8747  11.0147  11.2642  11.4237  11.5295  11.5420
    12.1252  12.4191  12.4914  12.4928  12.6307  13.2757  15.4629  16.4869
    19.2309  20.3670

          k = 0.4375 0.1875 0.3125 (  3514 PWs)   bands (ev):

     7.7522   8.6320   9.4525   9.5528  10.2624  10.3111  10.4069  10.5770
    10.7811  10.8531  10.8747  11.0147  11.2642  11.4237  11.5295  11.5420
    12.1252  12.4191  12.4914  12.4928  12.6307  13.2757  15.4629  16.4869
    19.2309  20.3670

          k = 0.4375 0.4375 0.1875 (  3513 PWs)   bands (ev):

     8.3963   8.9887   8.9887   9.2864  10.5229  10.6350  10.6351  10.7368
    10.8215  10.8215  10.9123  10.9322  11.2292  11.3411  11.3411  11.3646
    12.1323  12.3200  12.3201  12.3673  13.1431  14.0087  14.0089  15.0725
    20.1313  21.4973

          k = 0.4375 0.3125 0.3125 (  3516 PWs)   bands (ev):

     8.0953   8.7288   9.1980   9.1982  10.5306  10.5309  10.7094  10.9488
    11.0174  11.0238  11.1175  11.1383  11.1387  11.2247  11.3017  11.3018
    12.4527  12.4701  12.5768  12.5770  12.5964  13.3889  15.3315  15.3327
    18.9131  18.9138

          k = 0.4375 0.4375 0.3125 (  3520 PWs)   bands (ev):

     8.4728   8.8380   8.8380   8.9882  10.7256  10.7994  10.7995  10.9683
    11.0521  11.1226  11.1226  11.1470  11.3868  11.3868  11.4031  11.4327
    12.3867  12.5349  12.5350  12.5402  12.8964  13.8588  13.8589  14.6466
    18.7823  19.6831

 ------ SPIN DOWN ----------


          k = 0.0625 0.0625 0.0625 (  3542 PWs)   bands (ev):

     4.3330   8.8977   8.8981   8.8984   9.4255   9.4255   9.4255  10.9623
    11.0289  11.0289  11.9338  11.9338  12.5312  12.5312  12.5314  12.5519
    12.5520  12.5520  12.7444  12.7444  12.7445  15.6676  15.6676  15.6676
    22.4615  22.4617

          k = 0.0625 0.0625 0.1875 (  3537 PWs)   bands (ev):

     4.7319   8.8735   9.0867   9.0868   9.5368   9.5445   9.5445  10.8461
    11.1188  11.1223  11.8253  11.9643  11.9644  11.9873  12.3056  12.3943
    12.3944  12.4199  12.6409  12.7339  12.7340  14.0969  16.5754  16.5754
    22.6231  22.6231

          k = 0.0625 0.0625 0.3125 (  3543 PWs)   bands (ev):

     5.5050   8.6072   9.3981   9.3982   9.7452   9.7835   9.7836  10.6205
    11.2645  11.2645  11.2866  11.3044  11.6646  11.7736  12.0865  12.1498
    12.1500  12.1805  12.5052  12.7299  12.7301  12.7538  17.8988  17.8988
    22.7726  22.7726

          k = 0.0625 0.0625 0.4375 (  3519 PWs)   bands (ev):

     6.5815   7.7653   9.6733   9.6734  10.0228  10.1406  10.1406  10.3301
    10.6453  10.6453  11.3208  11.3324  11.5625  11.7328  11.8703  11.9263
    11.9265  12.1099  12.2173  12.3621  12.7288  12.7289  19.4216  19.4216
    21.1531  21.1531

          k = 0.0625 0.1875 0.1875 (  3544 PWs)   bands (ev):

     5.1218   9.0804   9.0811   9.2564   9.6415   9.6461   9.6462  10.7858
    11.1626  11.1651  11.6584  11.6706  11.6710  11.8099  12.0010  12.2468
    12.3160  12.3161  12.6262  12.6263  12.6542  14.9356  14.9358  17.3041
    22.4289  23.1039

          k = 0.0625 0.1875 0.3125 (  3538 PWs)   bands (ev):

     5.8750   8.8492   9.4292   9.5421   9.8230   9.8370   9.8634  10.6122
    11.0199  11.1525  11.2144  11.2460  11.3123  11.7270  12.0446  12.0895
    12.1200  12.1435  12.4580  12.5891  12.5977  13.4766  16.0348  18.4566
    20.5923  23.3391

          k = 0.0625 0.1875 0.4375 (  3530 PWs)   bands (ev):

     6.9174   8.0529   9.7714   9.8332  10.0252  10.0890  10.1431  10.3626
    10.5109  10.6572  11.0503  11.1432  11.5281  11.7969  11.8461  11.8704
    11.9047  12.1768  12.3605  12.5735  12.5748  12.6987  17.2887  18.6826
    20.0897  21.6652

          k = 0.0625 0.3125 0.3125 (  3528 PWs)   bands (ev):

     6.5830   9.2577   9.2583   9.7388   9.9341  10.0197  10.0199  10.5487
    10.7629  10.7634  10.9240  11.1471  11.3763  11.6913  11.8749  11.9620
    11.9620  12.3662  12.3663  12.3741  12.4509  14.3547  14.3550  18.2904
    19.7212  23.8378

          k = 0.0625 0.3125 0.4375 (  3514 PWs)   bands (ev):

     7.5435   8.5588   9.6632   9.8346  10.1077  10.2175  10.2340  10.4071
    10.4523  10.6385  10.7938  11.0022  11.4982  11.7111  11.7389  11.7863
    11.7967  12.0796  12.3298  12.3572  12.7324  13.2988  15.3934  16.6919
    20.9873  22.5650

          k = 0.0625 0.4375 0.4375 (  3528 PWs)   bands (ev):

     8.3459   9.1240   9.1241   9.5591  10.3886  10.3890  10.3933  10.4267
    10.5594  10.6127  10.6130  10.8592  11.4670  11.5869  11.5872  11.5891
    11.8504  12.0614  12.0615  12.1640  13.2591  14.0661  14.0663  15.1452
    22.2544  23.8011

          k = 0.1875 0.1875 0.1875 (  3536 PWs)   bands (ev):

     5.4992   9.2487   9.2490   9.2494   9.7407   9.7408   9.7409  10.7534
    11.1748  11.1748  11.4135  11.4137  11.4138  11.9299  11.9299  12.0576
    12.0577  12.0578  12.6758  12.6758  12.6759  15.5172  15.5173  15.5175
    23.1549  23.1550

          k = 0.1875 0.1875 0.3125 (  3525 PWs)   bands (ev):

     6.2243   9.0184   9.5165   9.5166   9.9180   9.9181   9.9377  10.6342
    11.0008  11.0009  11.0778  11.1922  11.2312  11.8038  11.8856  11.8857
    11.8976  12.1191  12.6192  12.6193  12.6313  13.8584  16.4193  16.4193
    21.1477  21.1477

          k = 0.1875 0.1875 0.4375 (  3513 PWs)   bands (ev):

     7.2157   8.2754   9.7831   9.7832  10.0364  10.0366  10.1880  10.4333
    10.7143  10.7144  10.9674  11.0906  11.3586  11.5567  11.7435  11.7437
    12.1394  12.3256  12.5076  12.5622  12.5624  12.7576  17.3839  17.3839
    19.6386  19.6386

          k = 0.1875 0.3125 0.3125 (  3530 PWs)   bands (ev):

     6.8834   9.2594   9.2597   9.5723  10.0864  10.1437  10.1441  10.6401
    10.8460  10.8463  10.9421  11.1428  11.2072  11.6511  11.6511  11.6615
    11.9555  12.2963  12.5688  12.5815  12.5816  14.5569  14.5574  16.8895
    19.4029  22.0228

          k = 0.1875 0.3125 0.4375 (  3514 PWs)   bands (ev):

     7.7521   8.6320   9.4525   9.5528  10.2624  10.3111  10.4069  10.5770
    10.7811  10.8531  10.8747  11.0147  11.2642  11.4237  11.5295  11.5420
    12.1252  12.4191  12.4914  12.4928  12.6307  13.2757  15.4629  16.4869
    19.2309  20.3670

          k = 0.1875 0.4375 0.4375 (  3513 PWs)   bands (ev):

     8.3963   8.9887   8.9887   9.2864  10.5229  10.6349  10.6352  10.7368
    10.8215  10.8216  10.9123  10.9322  11.2293  11.3411  11.3412  11.3646
    12.1323  12.3201  12.3201  12.3673  13.1431  14.0086  14.0090  15.0724
    20.1312  21.4974

          k = 0.3125 0.3125 0.3125 (  3527 PWs)   bands (ev):

     7.4281   9.2297   9.2298   9.2298  10.3728  10.3730  10.3733  10.8191
    10.9792  10.9794  10.9794  11.1122  11.1122  11.4182  11.4182  11.4183
    12.2267  12.2267  12.6348  12.6348  12.6350  14.9396  14.9400  14.9404
    20.1039  20.1041

          k = 0.3125 0.3125 0.4375 (  3516 PWs)   bands (ev):

     8.0953   8.7288   9.1981   9.1981  10.5307  10.5308  10.7094  10.9488
    11.0174  11.0238  11.1175  11.1385  11.1386  11.2247  11.3017  11.3018
    12.4527  12.4701  12.5769  12.5770  12.5964  13.3889  15.3321  15.3321
    18.9134  18.9135

          k = 0.3125 0.4375 0.4375 (  3520 PWs)   bands (ev):

     8.4728   8.8379   8.8381   8.9882  10.7256  10.7995  10.7995  10.9684
    11.0521  11.1226  11.1227  11.1470  11.3866  11.3871  11.4031  11.4327
    12.3867  12.5349  12.5350  12.5402  12.8964  13.8585  13.8592  14.6466
    18.7823  19.6833

          k = 0.4375 0.4375 0.4375 (  3518 PWs)   bands (ev):

     8.5809   8.7477   8.7478   8.7480  10.8937  10.8937  10.8937  10.9745
    10.9746  11.0081  11.0082  11.0083  11.9806  11.9809  11.9812  12.3593
    12.5562  12.5562  12.6100  12.6100  12.6101  13.6300  13.6306  13.6312
    18.6610  18.6614

          k = 0.1875 0.0625 0.0625 (  3537 PWs)   bands (ev):

     4.7319   8.8735   9.0864   9.0872   9.5368   9.5445   9.5445  10.8462
    11.1188  11.1223  11.8253  11.9643  11.9644  11.9873  12.3056  12.3943
    12.3944  12.4199  12.6409  12.7339  12.7340  14.0969  16.5754  16.5755
    22.6229  22.6234

          k = 0.3125 0.0625 0.0625 (  3543 PWs)   bands (ev):

     5.5050   8.6072   9.3978   9.3986   9.7452   9.7835   9.7836  10.6205
    11.2645  11.2645  11.2866  11.3044  11.6646  11.7736  12.0865  12.1498
    12.1500  12.1805  12.5052  12.7300  12.7300  12.7538  17.8987  17.8989
    22.7724  22.7727

          k = 0.4375 0.0625 0.0625 (  3519 PWs)   bands (ev):

     6.5815   7.7653   9.6729   9.6738  10.0228  10.1406  10.1406  10.3301
    10.6452  10.6453  11.3207  11.3324  11.5625  11.7328  11.8703  11.9263
    11.9265  12.1099  12.2173  12.3621  12.7288  12.7289  19.4215  19.4218
    21.1529  21.1533

          k = 0.1875 0.1875 0.0625 (  3544 PWs)   bands (ev):

     5.1218   9.0807   9.0808   9.2564   9.6415   9.6461   9.6462  10.7858
    11.1626  11.1651  11.6584  11.6708  11.6709  11.8099  12.0010  12.2468
    12.3160  12.3161  12.6262  12.6263  12.6542  14.9357  14.9357  17.3041
    22.4289  23.1039

          k = 0.1875 0.3125 0.0625 (  3538 PWs)   bands (ev):

     5.8750   8.8492   9.4292   9.5421   9.8230   9.8370   9.8634  10.6122
    11.0199  11.1525  11.2144  11.2460  11.3123  11.7270  12.0446  12.0895
    12.1200  12.1435  12.4580  12.5891  12.5977  13.4766  16.0348  18.4567
    20.5923  23.3391

          k = 0.3125 0.0625 0.1875 (  3538 PWs)   bands (ev):

     5.8750   8.8492   9.4292   9.5421   9.8230   9.8370   9.8634  10.6122
    11.0199  11.1525  11.2144  11.2460  11.3123  11.7270  12.0446  12.0895
    12.1200  12.1435  12.4580  12.5892  12.5977  13.4766  16.0348  18.4567
    20.5923  23.3391

          k = 0.1875 0.4375 0.0625 (  3530 PWs)   bands (ev):

     6.9174   8.0529   9.7714   9.8332  10.0252  10.0890  10.1431  10.3626
    10.5109  10.6572  11.0503  11.1432  11.5281  11.7969  11.8461  11.8704
    11.9047  12.1768  12.3605  12.5735  12.5748  12.6987  17.2887  18.6826
    20.0897  21.6652

          k = 0.4375 0.0625 0.1875 (  3530 PWs)   bands (ev):

     6.9174   8.0529   9.7714   9.8332  10.0252  10.0891  10.1431  10.3626
    10.5109  10.6572  11.0503  11.1432  11.5281  11.7969  11.8461  11.8704
    11.9047  12.1768  12.3605  12.5735  12.5748  12.6987  17.2887  18.6826
    20.0897  21.6652

          k = 0.3125 0.3125 0.0625 (  3528 PWs)   bands (ev):

     6.5830   9.2580   9.2580   9.7388   9.9341  10.0198  10.0199  10.5487
    10.7631  10.7632  10.9240  11.1471  11.3763  11.6913  11.8749  11.9620
    11.9620  12.3662  12.3663  12.3741  12.4509  14.3548  14.3549  18.2904
    19.7212  23.8378

          k = 0.3125 0.4375 0.0625 (  3514 PWs)   bands (ev):

     7.5435   8.5588   9.6632   9.8346  10.1077  10.2175  10.2340  10.4071
    10.4523  10.6385  10.7938  11.0022  11.4982  11.7111  11.7389  11.7863
    11.7967  12.0796  12.3298  12.3572  12.7324  13.2988  15.3934  16.6919
    20.9873  22.5650

          k = 0.4375 0.0625 0.3125 (  3514 PWs)   bands (ev):

     7.5435   8.5588   9.6632   9.8346  10.1077  10.2175  10.2340  10.4071
    10.4523  10.6385  10.7938  11.0022  11.4982  11.7111  11.7389  11.7863
    11.7967  12.0796  12.3298  12.3572  12.7324  13.2988  15.3934  16.6919
    20.9873  22.5650

          k = 0.4375 0.4375 0.0625 (  3528 PWs)   bands (ev):

     8.3459   9.1240   9.1241   9.5591  10.3888  10.3889  10.3933  10.4267
    10.5594  10.6128  10.6129  10.8592  11.4670  11.5870  11.5871  11.5891
    11.8504  12.0614  12.0615  12.1640  13.2591  14.0662  14.0663  15.1452
    22.2544  23.8011

          k = 0.3125 0.1875 0.1875 (  3525 PWs)   bands (ev):

     6.2243   9.0184   9.5163   9.5168   9.9179   9.9182   9.9377  10.6342
    11.0007  11.0009  11.0778  11.1922  11.2312  11.8038  11.8855  11.8858
    11.8976  12.1191  12.6192  12.6193  12.6313  13.8584  16.4190  16.4195
    21.1476  21.1479

          k = 0.4375 0.1875 0.1875 (  3513 PWs)   bands (ev):

     7.2157   8.2754   9.7830   9.7832  10.0362  10.0368  10.1880  10.4333
    10.7143  10.7144  10.9674  11.0906  11.3586  11.5567  11.7434  11.7437
    12.1394  12.3256  12.5076  12.5623  12.5623  12.7576  17.3833  17.3845
    19.6382  19.6391

          k = 0.3125 0.3125 0.1875 (  3530 PWs)   bands (ev):

     6.8834   9.2595   9.2595   9.5723  10.0864  10.1439  10.1440  10.6401
    10.8461  10.8462  10.9421  11.1428  11.2072  11.6511  11.6511  11.6615
    11.9555  12.2963  12.5688  12.5815  12.5816  14.5571  14.5572  16.8895
    19.4029  22.0228

          k = 0.3125 0.4375 0.1875 (  3514 PWs)   bands (ev):

     7.7521   8.6320   9.4525   9.5528  10.2624  10.3111  10.4069  10.5770
    10.7811  10.8531  10.8747  11.0147  11.2642  11.4237  11.5295  11.5420
    12.1252  12.4191  12.4914  12.4928  12.6307  13.2757  15.4629  16.4869
    19.2309  20.3670

          k = 0.4375 0.1875 0.3125 (  3514 PWs)   bands (ev):

     7.7521   8.6320   9.4525   9.5528  10.2624  10.3111  10.4069  10.5770
    10.7811  10.8531  10.8747  11.0147  11.2642  11.4237  11.5295  11.5420
    12.1252  12.4191  12.4914  12.4928  12.6307  13.2757  15.4629  16.4869
    19.2309  20.3670

          k = 0.4375 0.4375 0.1875 (  3513 PWs)   bands (ev):

     8.3963   8.9887   8.9887   9.2864  10.5229  10.6350  10.6351  10.7368
    10.8215  10.8215  10.9123  10.9322  11.2292  11.3411  11.3411  11.3646
    12.1323  12.3201  12.3201  12.3673  13.1431  14.0087  14.0088  15.0724
    20.1312  21.4973

          k = 0.4375 0.3125 0.3125 (  3516 PWs)   bands (ev):

     8.0953   8.7288   9.1981   9.1982  10.5305  10.5311  10.7094  10.9488
    11.0174  11.0238  11.1175  11.1385  11.1386  11.2247  11.3016  11.3019
    12.4527  12.4701  12.5769  12.5769  12.5964  13.3889  15.3315  15.3327
    18.9130  18.9139

          k = 0.4375 0.4375 0.3125 (  3520 PWs)   bands (ev):

     8.4728   8.8380   8.8380   8.9882  10.7256  10.7995  10.7995  10.9684
    11.0521  11.1226  11.1226  11.1470  11.3868  11.3868  11.4031  11.4327
    12.3867  12.5349  12.5350  12.5402  12.8964  13.8588  13.8588  14.6466
    18.7823  19.6831

     the Fermi energy is    14.2801 ev

!    total energy              =    -490.96900372 Ry
     Harris-Foulkes estimate   =    -490.96900363 Ry
     estimated scf accuracy    <       0.00000005 Ry

     The total energy is the sum of the following terms:

     one-electron contribution =     -94.86459875 Ry
     hartree contribution      =     117.14099939 Ry
     xc contribution           =    -178.69195723 Ry
     ewald contribution        =    -334.55355694 Ry
     smearing contrib. (-TS)   =       0.00010980 Ry

     total magnetization       =    -0.00 Bohr mag/cell
     absolute magnetization    =     0.00 Bohr mag/cell

     convergence has been achieved in   7 iterations

     Writing output data file cu-3.51.save/

     init_run     :      2.82s CPU      2.94s WALL (       1 calls)
     electrons    :     47.39s CPU     48.76s WALL (       1 calls)

     Called by init_run:
     wfcinit      :      2.31s CPU      2.39s WALL (       1 calls)
     potinit      :      0.08s CPU      0.08s WALL (       1 calls)
     hinit0       :      0.28s CPU      0.29s WALL (       1 calls)

     Called by electrons:
     c_bands      :     40.32s CPU     41.48s WALL (       8 calls)
     sum_band     :      6.04s CPU      6.23s WALL (       8 calls)
     v_of_rho     :      0.29s CPU      0.29s WALL (       8 calls)
     newd         :      0.81s CPU      0.83s WALL (       8 calls)
     mix_rho      :      0.04s CPU      0.04s WALL (       8 calls)

     Called by c_bands:
     init_us_2    :      0.45s CPU      0.45s WALL (    1360 calls)
     cegterg      :     38.16s CPU     39.31s WALL (     640 calls)

     Called by sum_band:
     sum_band:bec :      0.03s CPU      0.03s WALL (     640 calls)
     addusdens    :      0.98s CPU      0.99s WALL (       8 calls)

     Called by *egterg:
     h_psi        :     23.83s CPU     24.98s WALL (    2242 calls)
     s_psi        :      3.12s CPU      3.15s WALL (    2242 calls)
     g_psi        :      0.14s CPU      0.14s WALL (    1522 calls)
     cdiaghg      :      2.71s CPU      2.73s WALL (    2082 calls)

     Called by h_psi:
     h_psi:pot    :     23.75s CPU     24.90s WALL (    2242 calls)
     h_psi:calbec :      4.26s CPU      4.46s WALL (    2242 calls)
     vloc_psi     :     16.36s CPU     17.26s WALL (    2242 calls)
     add_vuspsi   :      3.12s CPU      3.17s WALL (    2242 calls)

     General routines
     calbec       :      5.79s CPU      6.05s WALL (    2882 calls)
     fft          :      0.14s CPU      0.15s WALL (     196 calls)
     ffts         :      0.01s CPU      0.01s WALL (      32 calls)
     fftw         :     17.70s CPU     18.62s WALL (  106866 calls)
     interpolate  :      0.02s CPU      0.02s WALL (      16 calls)

     Parallel routines
     fft_scatt_xy :      1.42s CPU      1.49s WALL (  107094 calls)
     fft_scatt_yz :      8.46s CPU      8.87s WALL (  107094 calls)

     PWSCF        :     51.73s CPU     53.26s WALL


   This run was terminated on:  20:10:52  17Mar2022            

=------------------------------------------------------------------------------=
   JOB DONE.
=------------------------------------------------------------------------------=
