
     Program PWSCF v.6.4.1 starts on 17Mar2022 at 20:22:51 

     This program is part of the open-source Quantum ESPRESSO suite
     for quantum simulation of materials; please cite
         "P. Giannozzi et al., J. Phys.:Condens. Matter 21 395502 (2009);
         "P. Giannozzi et al., J. Phys.:Condens. Matter 29 465901 (2017);
          URL http://www.quantum-espresso.org", 
     in publications or presentations arising from this work. More details at
     http://www.quantum-espresso.org/quote

     Parallel version (MPI), running on     6 processors

     MPI processes distributed on     1 nodes
     R & G space division:  proc/nbgrp/npool/nimage =       6
     Reading input from cu-3.77.in
Warning: card CU1   63.546    CU.PBE-DN-RRKJUS_PSL.1.0.0.UPF ignored
Warning: card CU2   63.546    CU.PBE-DN-RRKJUS_PSL.1.0.0.UPF ignored

     Current dimensions of program PWSCF are:
     Max number of different atomic species (ntypx) = 10
     Max number of k-points (npk) =  40000
     Max angular momentum in pseudopotentials (lmaxx) =  3
               file Cu.pbe-dn-rrkjus_psl.1.0.0.UPF: wavefunction(s)  3D renormalized
               file Cu.pbe-dn-rrkjus_psl.1.0.0.UPF: wavefunction(s)  3D renormalized

     Subspace diagonalization in iterative solution of the eigenvalue problem:
     a serial algorithm will be used

     Found symmetry operation: I + (  0.0000 -0.5000 -0.5000)
     This is a supercell, fractional translations are disabled
     Message from routine setup:
     DEPRECATED: symmetry with ibrav=0, use correct ibrav instead

     Parallelization info
     --------------------
     sticks:   dense  smooth     PW     G-vecs:    dense   smooth      PW
     Min         373     217     62                13451     5837     908
     Max         374     218     63                13456     5840     909
     Sum        2241    1305    373                80725    35033    5449



     bravais-lattice index     =            0
     lattice parameter (alat)  =       7.1243  a.u.
     unit-cell volume          =     361.5935 (a.u.)^3
     number of atoms/cell      =            4
     number of atomic types    =            2
     number of electrons       =        44.00
     number of Kohn-Sham states=           26
     kinetic-energy cutoff     =      80.0000  Ry
     charge density cutoff     =     560.0000  Ry
     convergence threshold     =      1.0E-06
     mixing beta               =       0.7000
     number of iterations used =            8  plain     mixing
     Exchange-correlation      = PBE ( 1  4  3  4 0 0)

     celldm(1)=   7.124268  celldm(2)=   0.000000  celldm(3)=   0.000000
     celldm(4)=   0.000000  celldm(5)=   0.000000  celldm(6)=   0.000000

     crystal axes: (cart. coord. in units of alat)
               a(1) = (   1.000000   0.000000   0.000000 )  
               a(2) = (   0.000000   1.000000   0.000000 )  
               a(3) = (   0.000000   0.000000   1.000000 )  

     reciprocal axes: (cart. coord. in units 2 pi/alat)
               b(1) = (  1.000000  0.000000  0.000000 )  
               b(2) = (  0.000000  1.000000  0.000000 )  
               b(3) = (  0.000000  0.000000  1.000000 )  


     PseudoPot. # 1 for Cu read from file:
     /home/cristian/Escritorio/Proyecto_Grafeno/pseudopotenciales/Cu.pbe-dn-rrkjus_psl.1.0.0.UPF
     MD5 check sum: ba3d6c84e19846e79d48cdc68ff7152b
     Pseudo is Ultrasoft + core correction, Zval = 11.0
     Generated using "atomic" code by A. Dal Corso v.6.3
     Using radial grid of 1199 points,  6 beta functions with: 
                l(1) =   0
                l(2) =   0
                l(3) =   1
                l(4) =   1
                l(5) =   2
                l(6) =   2
     Q(r) pseudized with 0 coefficients 


     PseudoPot. # 2 for Cu read from file:
     /home/cristian/Escritorio/Proyecto_Grafeno/pseudopotenciales/Cu.pbe-dn-rrkjus_psl.1.0.0.UPF
     MD5 check sum: ba3d6c84e19846e79d48cdc68ff7152b
     Pseudo is Ultrasoft + core correction, Zval = 11.0
     Generated using "atomic" code by A. Dal Corso v.6.3
     Using radial grid of 1199 points,  6 beta functions with: 
                l(1) =   0
                l(2) =   0
                l(3) =   1
                l(4) =   1
                l(5) =   2
                l(6) =   2
     Q(r) pseudized with 0 coefficients 


     atomic species   valence    mass     pseudopotential
        Cu1           11.00    63.54600     Cu( 1.00)
        Cu2           11.00    63.54600     Cu( 1.00)

     Starting magnetic structure 
     atomic species   magnetization
        Cu1          0.100
        Cu2         -0.100

     16 Sym. Ops., with inversion, found



   Cartesian axes

     site n.     atom                  positions (alat units)
         1           Cu1 tau(   1) = (   0.0000000   0.0000000   0.0000000  )
         2           Cu2 tau(   2) = (   0.5000000   0.5000000   0.0000000  )
         3           Cu1 tau(   3) = (   0.0000000   0.5000000   0.5000000  )
         4           Cu2 tau(   4) = (   0.5000000   0.0000000   0.5000000  )

     number of k points=    40  Methfessel-Paxton smearing, width (Ry)=  0.0300
                       cart. coord. in units 2pi/alat
        k(    1) = (   0.0625000   0.0625000   0.0625000), wk =   0.0156250
        k(    2) = (   0.0625000   0.0625000   0.1875000), wk =   0.0312500
        k(    3) = (   0.0625000   0.0625000   0.3125000), wk =   0.0312500
        k(    4) = (   0.0625000   0.0625000   0.4375000), wk =   0.0312500
        k(    5) = (   0.0625000   0.1875000   0.1875000), wk =   0.0156250
        k(    6) = (   0.0625000   0.1875000   0.3125000), wk =   0.0312500
        k(    7) = (   0.0625000   0.1875000   0.4375000), wk =   0.0312500
        k(    8) = (   0.0625000   0.3125000   0.3125000), wk =   0.0156250
        k(    9) = (   0.0625000   0.3125000   0.4375000), wk =   0.0312500
        k(   10) = (   0.0625000   0.4375000   0.4375000), wk =   0.0156250
        k(   11) = (   0.1875000   0.1875000   0.1875000), wk =   0.0156250
        k(   12) = (   0.1875000   0.1875000   0.3125000), wk =   0.0312500
        k(   13) = (   0.1875000   0.1875000   0.4375000), wk =   0.0312500
        k(   14) = (   0.1875000   0.3125000   0.3125000), wk =   0.0156250
        k(   15) = (   0.1875000   0.3125000   0.4375000), wk =   0.0312500
        k(   16) = (   0.1875000   0.4375000   0.4375000), wk =   0.0156250
        k(   17) = (   0.3125000   0.3125000   0.3125000), wk =   0.0156250
        k(   18) = (   0.3125000   0.3125000   0.4375000), wk =   0.0312500
        k(   19) = (   0.3125000   0.4375000   0.4375000), wk =   0.0156250
        k(   20) = (   0.4375000   0.4375000   0.4375000), wk =   0.0156250
        k(   21) = (   0.1875000   0.0625000   0.0625000), wk =   0.0156250
        k(   22) = (   0.3125000   0.0625000   0.0625000), wk =   0.0156250
        k(   23) = (   0.4375000   0.0625000   0.0625000), wk =   0.0156250
        k(   24) = (   0.1875000   0.1875000   0.0625000), wk =   0.0312500
        k(   25) = (   0.1875000   0.3125000   0.0625000), wk =   0.0312500
        k(   26) = (   0.3125000   0.0625000   0.1875000), wk =   0.0312500
        k(   27) = (   0.1875000   0.4375000   0.0625000), wk =   0.0312500
        k(   28) = (   0.4375000   0.0625000   0.1875000), wk =   0.0312500
        k(   29) = (   0.3125000   0.3125000   0.0625000), wk =   0.0312500
        k(   30) = (   0.3125000   0.4375000   0.0625000), wk =   0.0312500
        k(   31) = (   0.4375000   0.0625000   0.3125000), wk =   0.0312500
        k(   32) = (   0.4375000   0.4375000   0.0625000), wk =   0.0312500
        k(   33) = (   0.3125000   0.1875000   0.1875000), wk =   0.0156250
        k(   34) = (   0.4375000   0.1875000   0.1875000), wk =   0.0156250
        k(   35) = (   0.3125000   0.3125000   0.1875000), wk =   0.0312500
        k(   36) = (   0.3125000   0.4375000   0.1875000), wk =   0.0312500
        k(   37) = (   0.4375000   0.1875000   0.3125000), wk =   0.0312500
        k(   38) = (   0.4375000   0.4375000   0.1875000), wk =   0.0312500
        k(   39) = (   0.4375000   0.3125000   0.3125000), wk =   0.0156250
        k(   40) = (   0.4375000   0.4375000   0.3125000), wk =   0.0312500

     Dense  grid:    80725 G-vectors     FFT dimensions: (  54,  54,  54)

     Smooth grid:    35033 G-vectors     FFT dimensions: (  45,  45,  45)

     Estimated max dynamical RAM per process >      80.15 MB

     Estimated total dynamical RAM >     480.91 MB
     Generating pointlists ...
     new r_m :   0.2917 (alat units)  2.0780 (a.u.) for type    1
     new r_m :   0.2917 (alat units)  2.0780 (a.u.) for type    2

     Initial potential from superposition of free atoms

     starting charge   43.99908, renormalised to   44.00000
     Starting wfcs are   36 randomized atomic wfcs

     total cpu time spent up to now is        5.2 secs

     Self-consistent Calculation

     iteration #  1     ecut=    80.00 Ry     beta= 0.70
     Davidson diagonalization with overlap
     ethr =  1.00E-02,  avg # of iterations =  2.3

     Threshold (ethr) on eigenvalues was too large:
     Diagonalizing with lowered threshold

     Davidson diagonalization with overlap
     ethr =  4.89E-04,  avg # of iterations =  2.6

     total cpu time spent up to now is       18.6 secs

     total energy              =    -490.85562157 Ry
     Harris-Foulkes estimate   =    -490.95217036 Ry
     estimated scf accuracy    <       0.26053661 Ry

     total magnetization       =    -0.00 Bohr mag/cell
     absolute magnetization    =     0.75 Bohr mag/cell

     iteration #  2     ecut=    80.00 Ry     beta= 0.70
     Davidson diagonalization with overlap
     ethr =  5.92E-04,  avg # of iterations =  2.4

     total cpu time spent up to now is       27.3 secs

     total energy              =    -490.84075695 Ry
     Harris-Foulkes estimate   =    -491.11407827 Ry
     estimated scf accuracy    <       0.73236344 Ry

     total magnetization       =    -0.00 Bohr mag/cell
     absolute magnetization    =     0.18 Bohr mag/cell

     iteration #  3     ecut=    80.00 Ry     beta= 0.70
     Davidson diagonalization with overlap
     ethr =  5.92E-04,  avg # of iterations =  2.0

     total cpu time spent up to now is       35.9 secs

     total energy              =    -490.97012340 Ry
     Harris-Foulkes estimate   =    -490.96635075 Ry
     estimated scf accuracy    <       0.01604524 Ry

     total magnetization       =     0.00 Bohr mag/cell
     absolute magnetization    =     0.24 Bohr mag/cell

     iteration #  4     ecut=    80.00 Ry     beta= 0.70
     Davidson diagonalization with overlap
     ethr =  3.65E-05,  avg # of iterations =  2.0

     total cpu time spent up to now is       42.3 secs

     total energy              =    -490.97224464 Ry
     Harris-Foulkes estimate   =    -490.97222370 Ry
     estimated scf accuracy    <       0.00004069 Ry

     total magnetization       =     0.00 Bohr mag/cell
     absolute magnetization    =     0.02 Bohr mag/cell

     iteration #  5     ecut=    80.00 Ry     beta= 0.70
     Davidson diagonalization with overlap
     ethr =  9.25E-08,  avg # of iterations =  3.6

     total cpu time spent up to now is       53.3 secs

     total energy              =    -490.97228095 Ry
     Harris-Foulkes estimate   =    -490.97233266 Ry
     estimated scf accuracy    <       0.00021122 Ry

     total magnetization       =     0.00 Bohr mag/cell
     absolute magnetization    =     0.01 Bohr mag/cell

     iteration #  6     ecut=    80.00 Ry     beta= 0.70
     Davidson diagonalization with overlap
     ethr =  9.25E-08,  avg # of iterations =  2.1

     total cpu time spent up to now is       61.7 secs

     total energy              =    -490.97231029 Ry
     Harris-Foulkes estimate   =    -490.97230954 Ry
     estimated scf accuracy    <       0.00000774 Ry

     total magnetization       =     0.00 Bohr mag/cell
     absolute magnetization    =     0.01 Bohr mag/cell

     iteration #  7     ecut=    80.00 Ry     beta= 0.70
     Davidson diagonalization with overlap
     ethr =  1.76E-08,  avg # of iterations =  2.0

     Magnetic moment per site:
     atom:    1    charge:    9.9125    magn:    0.0000    constr:    0.0000
     atom:    2    charge:    9.9125    magn:   -0.0001    constr:    0.0000
     atom:    3    charge:    9.9124    magn:    0.0001    constr:    0.0000
     atom:    4    charge:    9.9125    magn:   -0.0001    constr:    0.0000

     total cpu time spent up to now is       68.5 secs

     End of self-consistent calculation

 ------ SPIN UP ------------


          k = 0.0625 0.0625 0.0625 (  4367 PWs)   bands (ev):

     2.2664   6.4565   6.4569   6.4573   6.8464   6.8464   6.8465   7.9459
     7.9928   7.9928   8.6399   8.6399   9.0702   9.0703   9.0704   9.1029
     9.1031   9.1031   9.2232   9.2232   9.2233  12.0683  12.0683  12.0684
    17.3153  17.3157

          k = 0.0625 0.0625 0.1875 (  4364 PWs)   bands (ev):

     2.6095   6.4155   6.6021   6.6022   6.9276   6.9334   6.9334   7.8647
     8.0583   8.0608   8.5643   8.6785   8.7008   8.7008   8.9356   8.9757
     8.9758   8.9923   9.1491   9.2158   9.2160  10.5483  12.7551  12.7551
    17.4997  17.4997

          k = 0.0625 0.0625 0.3125 (  4358 PWs)   bands (ev):

     3.2791   6.1290   6.8412   6.8413   7.0791   7.1085   7.1085   7.7057
     8.1810   8.1930   8.1962   8.1963   8.4523   8.5598   8.7501   8.8034
     8.8035   8.8232   9.0514   9.2131   9.2133   9.3040  13.8190  13.8190
    17.8999  17.8999

          k = 0.0625 0.0625 0.4375 (  4369 PWs)   bands (ev):

     4.2259   5.3053   7.0535   7.0536   7.2795   7.3697   7.3697   7.4995
     7.7413   7.7413   8.2090   8.2212   8.3799   8.5035   8.6015   8.6435
     8.6437   8.7808   8.8442   8.9484   9.2123   9.2125  15.0961  15.0961
    16.5584  16.5584

          k = 0.0625 0.1875 0.1875 (  4365 PWs)   bands (ev):

     2.9463   6.5779   6.5787   6.7291   7.0062   7.0077   7.0078   7.8241
     8.0908   8.0915   8.4851   8.4855   8.4856   8.5542   8.6895   8.8711
     8.9229   8.9230   9.1397   9.1398   9.1588  11.1847  11.1850  13.3323
    17.6948  17.8705

          k = 0.0625 0.1875 0.3125 (  4359 PWs)   bands (ev):

     3.6013   6.3291   6.8505   6.9408   7.1432   7.1467   7.1678   7.7021
     8.0082   8.1156   8.1307   8.1652   8.1984   8.4971   8.7287   8.7609
     8.7856   8.7923   9.0226   9.1137   9.1190   9.8644  12.0782  14.2872
    16.0321  18.1329

          k = 0.0625 0.1875 0.4375 (  4359 PWs)   bands (ev):

     4.5215   5.5569   7.1187   7.1683   7.2800   7.3287   7.3708   7.5247
     7.6349   7.7510   8.0169   8.0830   8.3551   8.5497   8.5856   8.6047
     8.6311   8.8258   8.9499   9.1024   9.1031   9.2087  13.1488  14.4104
    15.5738  16.9636

          k = 0.0625 0.3125 0.3125 (  4370 PWs)   bands (ev):

     4.2224   6.6639   6.6647   7.0625   7.2441   7.2826   7.2828   7.6597
     7.8111   7.8113   7.9482   8.0857   8.2448   8.4723   8.6079   8.6731
     8.6732   8.9570   8.9570   8.9602   9.0142  10.5757  10.5762  14.0793
    15.2412  18.6238

          k = 0.0625 0.3125 0.4375 (  4365 PWs)   bands (ev):

     5.0772   6.0021   6.9898   7.1204   7.3715   7.4249   7.4483   7.5600
     7.5899   7.7376   7.8359   7.9856   8.3346   8.4906   8.5114   8.5480
     8.5491   8.7537   8.9294   8.9478   9.2260   9.6734  11.4607  12.6113
    16.3509  17.7230

          k = 0.0625 0.4375 0.4375 (  4377 PWs)   bands (ev):

     5.7987   6.5031   6.5034   6.8868   7.5553   7.5555   7.5738   7.5779
     7.6773   7.7138   7.7138   7.8897   8.3139   8.4029   8.4030   8.4034
     8.5857   8.7375   8.7375   8.8097   9.6321  10.3002  10.3007  11.2355
    17.4388  18.7899

          k = 0.1875 0.1875 0.1875 (  4374 PWs)   bands (ev):

     3.2743   6.7052   6.7056   6.7059   7.0807   7.0808   7.0809   7.8044
     8.0990   8.0990   8.3008   8.3008   8.3010   8.6401   8.6401   8.7364
     8.7364   8.7365   9.1736   9.1736   9.1738  11.6579  11.6581  11.6583
    18.2663  18.2665

          k = 0.1875 0.1875 0.3125 (  4364 PWs)   bands (ev):

     3.9091   6.4678   6.9022   6.9023   7.2204   7.2205   7.2255   7.7223
     7.9965   7.9966   8.0418   8.1140   8.1405   8.5547   8.6159   8.6161
     8.6195   8.7755   9.1339   9.1340   9.1415  10.1880  12.4268  12.4268
    16.4391  16.4391

          k = 0.1875 0.1875 0.4375 (  4357 PWs)   bands (ev):

     4.7902   5.7587   7.0904   7.0904   7.3171   7.3173   7.4056   7.5803
     7.7914   7.7915   7.9567   8.0446   8.2333   8.3768   8.5149   8.5151
     8.8008   8.9232   9.0531   9.0935   9.0936   9.2770  13.3348  13.3348
    15.0033  15.0034

          k = 0.1875 0.3125 0.3125 (  4373 PWs)   bands (ev):

     4.4951   6.6626   6.6629   6.9252   7.3575   7.3887   7.3891   7.7333
     7.8731   7.8733   7.9586   8.0799   8.1239   8.4473   8.4474   8.4543
     8.6607   8.9048   9.0979   9.1079   9.1080  10.7807  10.7813  12.9309
    14.7648  17.1801

          k = 0.1875 0.3125 0.4375 (  4369 PWs)   bands (ev):

     5.2791   6.0860   6.8161   6.8989   7.4839   7.5177   7.5778   7.6942
     7.8399   7.8741   7.9179   7.9910   8.1663   8.2825   8.3603   8.3706
     8.7856   8.9956   9.0431   9.0450   9.1552   9.6825  11.5937  12.5851
    14.5734  15.6643

          k = 0.1875 0.4375 0.4375 (  4382 PWs)   bands (ev):

     5.8734   6.4136   6.4136   6.6768   7.6640   7.7500   7.7504   7.8247
     7.8687   7.8689   7.9224   7.9706   8.1421   8.2251   8.2252   8.2410
     8.7875   8.9231   8.9231   8.9549   9.5597  10.3026  10.3033  11.2633
    15.4263  16.6682

          k = 0.3125 0.3125 0.3125 (  4374 PWs)   bands (ev):

     4.9952   6.6391   6.6391   6.6392   7.5638   7.5641   7.5644   7.8811
     7.9845   7.9847   7.9847   8.0561   8.0561   8.2788   8.2789   8.2789
     8.8540   8.8540   9.1443   9.1444   9.1445  11.1809  11.1814  11.1819
    15.4018  15.4019

          k = 0.3125 0.3125 0.4375 (  4378 PWs)   bands (ev):

     5.6154   6.1985   6.6153   6.6154   7.6681   7.6682   7.8014   7.9791
     8.0122   8.0173   8.0606   8.1250   8.1251   8.1387   8.1976   8.1978
     9.0147   9.0517   9.1035   9.1036   9.1168   9.8309  11.6418  11.6418
    14.2213  14.2213

          k = 0.3125 0.4375 0.4375 (  4391 PWs)   bands (ev):

     5.9805   6.3122   6.3124   6.4453   7.7954   7.8454   7.8455   7.9567
     8.0143   8.0661   8.0662   8.0836   8.3344   8.3350   8.3663   8.3725
     8.9684   9.0749   9.0749   9.0774   9.4047  10.3000  10.3012  11.0787
    14.0754  14.9623

          k = 0.4375 0.4375 0.4375 (  4365 PWs)   bands (ev):

     6.1012   6.2510   6.2511   6.2513   7.9043   7.9043   7.9044   7.9584
     7.9584   7.9829   7.9830   7.9830   8.7764   8.7767   8.7769   9.0885
     9.0885   9.1267   9.1267   9.1268   9.2903  10.2866  10.2875  10.2885
    13.9403  13.9407

          k = 0.1875 0.0625 0.0625 (  4364 PWs)   bands (ev):

     2.6095   6.4155   6.6018   6.6026   6.9277   6.9334   6.9334   7.8647
     8.0583   8.0608   8.5643   8.6785   8.7008   8.7008   8.9356   8.9758
     8.9758   8.9923   9.1491   9.2158   9.2160  10.5483  12.7551  12.7552
    17.4993  17.5000

          k = 0.3125 0.0625 0.0625 (  4358 PWs)   bands (ev):

     3.2791   6.1290   6.8409   6.8416   7.0791   7.1085   7.1085   7.7057
     8.1809   8.1930   8.1962   8.1962   8.4523   8.5598   8.7501   8.8034
     8.8035   8.8232   9.0514   9.2131   9.2134   9.3040  13.8190  13.8191
    17.8996  17.9003

          k = 0.4375 0.0625 0.0625 (  4369 PWs)   bands (ev):

     4.2259   5.3053   7.0532   7.0539   7.2795   7.3697   7.3697   7.4995
     7.7413   7.7413   8.2090   8.2211   8.3799   8.5035   8.6015   8.6435
     8.6436   8.7808   8.8442   8.9484   9.2123   9.2125  15.0960  15.0963
    16.5584  16.5584

          k = 0.1875 0.1875 0.0625 (  4365 PWs)   bands (ev):

     2.9463   6.5783   6.5783   6.7291   7.0062   7.0078   7.0078   7.8241
     8.0908   8.0915   8.4851   8.4855   8.4856   8.5542   8.6895   8.8711
     8.9229   8.9230   9.1397   9.1398   9.1588  11.1848  11.1849  13.3323
    17.6948  17.8705

          k = 0.1875 0.3125 0.0625 (  4359 PWs)   bands (ev):

     3.6013   6.3291   6.8505   6.9408   7.1432   7.1467   7.1678   7.7021
     8.0082   8.1156   8.1307   8.1652   8.1984   8.4970   8.7287   8.7609
     8.7856   8.7923   9.0226   9.1137   9.1190   9.8644  12.0782  14.2872
    16.0321  18.1329

          k = 0.3125 0.0625 0.1875 (  4359 PWs)   bands (ev):

     3.6013   6.3291   6.8505   6.9408   7.1432   7.1467   7.1678   7.7021
     8.0082   8.1156   8.1307   8.1652   8.1984   8.4970   8.7287   8.7609
     8.7855   8.7923   9.0226   9.1137   9.1190   9.8644  12.0782  14.2872
    16.0321  18.1329

          k = 0.1875 0.4375 0.0625 (  4359 PWs)   bands (ev):

     4.5215   5.5569   7.1187   7.1683   7.2800   7.3287   7.3708   7.5247
     7.6349   7.7510   8.0169   8.0830   8.3551   8.5497   8.5856   8.6047
     8.6311   8.8258   8.9499   9.1024   9.1031   9.2087  13.1488  14.4104
    15.5738  16.9636

          k = 0.4375 0.0625 0.1875 (  4359 PWs)   bands (ev):

     4.5215   5.5569   7.1187   7.1683   7.2800   7.3287   7.3708   7.5247
     7.6349   7.7510   8.0169   8.0830   8.3551   8.5497   8.5856   8.6047
     8.6311   8.8258   8.9499   9.1024   9.1031   9.2087  13.1488  14.4104
    15.5738  16.9636

          k = 0.3125 0.3125 0.0625 (  4370 PWs)   bands (ev):

     4.2224   6.6643   6.6643   7.0625   7.2441   7.2827   7.2827   7.6597
     7.8112   7.8113   7.9482   8.0857   8.2448   8.4723   8.6079   8.6731
     8.6731   8.9570   8.9570   8.9602   9.0142  10.5759  10.5760  14.0793
    15.2412  18.6238

          k = 0.3125 0.4375 0.0625 (  4365 PWs)   bands (ev):

     5.0772   6.0021   6.9898   7.1204   7.3715   7.4249   7.4483   7.5600
     7.5899   7.7377   7.8359   7.9856   8.3346   8.4906   8.5114   8.5480
     8.5491   8.7537   8.9294   8.9478   9.2260   9.6734  11.4607  12.6113
    16.3509  17.7230

          k = 0.4375 0.0625 0.3125 (  4365 PWs)   bands (ev):

     5.0772   6.0021   6.9898   7.1204   7.3715   7.4249   7.4483   7.5600
     7.5899   7.7377   7.8359   7.9856   8.3346   8.4906   8.5114   8.5480
     8.5491   8.7537   8.9294   8.9478   9.2260   9.6734  11.4607  12.6113
    16.3509  17.7230

          k = 0.4375 0.4375 0.0625 (  4377 PWs)   bands (ev):

     5.7987   6.5032   6.5033   6.8867   7.5553   7.5554   7.5738   7.5779
     7.6773   7.7137   7.7138   7.8897   8.3139   8.4029   8.4030   8.4034
     8.5857   8.7375   8.7376   8.8097   9.6321  10.3004  10.3005  11.2355
    17.4388  18.7900

          k = 0.3125 0.1875 0.1875 (  4364 PWs)   bands (ev):

     3.9091   6.4678   6.9021   6.9025   7.2203   7.2206   7.2255   7.7223
     7.9965   7.9965   8.0418   8.1140   8.1405   8.5547   8.6160   8.6160
     8.6195   8.7755   9.1339   9.1340   9.1415  10.1880  12.4265  12.4271
    16.4391  16.4392

          k = 0.4375 0.1875 0.1875 (  4357 PWs)   bands (ev):

     4.7902   5.7587   7.0904   7.0904   7.3169   7.3175   7.4056   7.5803
     7.7914   7.7915   7.9566   8.0446   8.2333   8.3768   8.5150   8.5150
     8.8007   8.9232   9.0531   9.0935   9.0937   9.2770  13.3342  13.3355
    15.0030  15.0037

          k = 0.3125 0.3125 0.1875 (  4373 PWs)   bands (ev):

     4.4951   6.6627   6.6627   6.9252   7.3575   7.3889   7.3889   7.7334
     7.8732   7.8733   7.9586   8.0799   8.1239   8.4473   8.4474   8.4543
     8.6607   8.9048   9.0979   9.1079   9.1080  10.7810  10.7811  12.9309
    14.7648  17.1802

          k = 0.3125 0.4375 0.1875 (  4369 PWs)   bands (ev):

     5.2791   6.0860   6.8161   6.8989   7.4840   7.5177   7.5778   7.6942
     7.8399   7.8741   7.9179   7.9910   8.1663   8.2825   8.3603   8.3706
     8.7856   8.9956   9.0431   9.0450   9.1552   9.6825  11.5937  12.5851
    14.5734  15.6643

          k = 0.4375 0.1875 0.3125 (  4369 PWs)   bands (ev):

     5.2791   6.0860   6.8161   6.8989   7.4840   7.5177   7.5778   7.6942
     7.8399   7.8741   7.9179   7.9909   8.1663   8.2825   8.3603   8.3706
     8.7856   8.9956   9.0431   9.0450   9.1552   9.6825  11.5937  12.5851
    14.5734  15.6643

          k = 0.4375 0.4375 0.1875 (  4382 PWs)   bands (ev):

     5.8734   6.4136   6.4136   6.6768   7.6640   7.7502   7.7503   7.8247
     7.8688   7.8688   7.9224   7.9706   8.1421   8.2251   8.2251   8.2410
     8.7875   8.9231   8.9231   8.9549   9.5597  10.3029  10.3030  11.2633
    15.4263  16.6682

          k = 0.4375 0.3125 0.3125 (  4378 PWs)   bands (ev):

     5.6154   6.1985   6.6152   6.6155   7.6680   7.6684   7.8013   7.9791
     8.0122   8.0174   8.0606   8.1248   8.1252   8.1387   8.1977   8.1977
     9.0147   9.0517   9.1035   9.1036   9.1168   9.8309  11.6410  11.6426
    14.2209  14.2217

          k = 0.4375 0.4375 0.3125 (  4391 PWs)   bands (ev):

     5.9805   6.3123   6.3123   6.4453   7.7954   7.8454   7.8454   7.9567
     8.0142   8.0661   8.0661   8.0836   8.3347   8.3347   8.3664   8.3725
     8.9684   9.0749   9.0749   9.0774   9.4047  10.3005  10.3006  11.0787
    14.0754  14.9621

 ------ SPIN DOWN ----------


          k = 0.0625 0.0625 0.0625 (  4367 PWs)   bands (ev):

     2.2664   6.4566   6.4569   6.4572   6.8464   6.8464   6.8465   7.9459
     7.9928   7.9928   8.6399   8.6399   9.0701   9.0703   9.0704   9.1028
     9.1030   9.1032   9.2230   9.2232   9.2234  12.0683  12.0683  12.0684
    17.3153  17.3157

          k = 0.0625 0.0625 0.1875 (  4364 PWs)   bands (ev):

     2.6096   6.4155   6.6021   6.6022   6.9276   6.9334   6.9334   7.8647
     8.0583   8.0608   8.5643   8.6785   8.7008   8.7008   8.9356   8.9757
     8.9758   8.9923   9.1491   9.2158   9.2160  10.5483  12.7551  12.7551
    17.4997  17.4997

          k = 0.0625 0.0625 0.3125 (  4358 PWs)   bands (ev):

     3.2791   6.1290   6.8412   6.8413   7.0791   7.1085   7.1085   7.7057
     8.1810   8.1930   8.1962   8.1963   8.4523   8.5598   8.7501   8.8034
     8.8035   8.8232   9.0513   9.2131   9.2133   9.3040  13.8190  13.8190
    17.8999  17.8999

          k = 0.0625 0.0625 0.4375 (  4369 PWs)   bands (ev):

     4.2260   5.3053   7.0535   7.0536   7.2795   7.3697   7.3697   7.4995
     7.7413   7.7413   8.2090   8.2212   8.3799   8.5035   8.6015   8.6435
     8.6437   8.7808   8.8442   8.9484   9.2123   9.2125  15.0961  15.0961
    16.5584  16.5584

          k = 0.0625 0.1875 0.1875 (  4365 PWs)   bands (ev):

     2.9463   6.5780   6.5786   6.7291   7.0062   7.0077   7.0078   7.8241
     8.0908   8.0915   8.4851   8.4854   8.4858   8.5542   8.6895   8.8711
     8.9229   8.9231   9.1397   9.1398   9.1588  11.1847  11.1851  13.3323
    17.6948  17.8705

          k = 0.0625 0.1875 0.3125 (  4359 PWs)   bands (ev):

     3.6013   6.3291   6.8505   6.9408   7.1432   7.1467   7.1678   7.7021
     8.0082   8.1156   8.1307   8.1652   8.1984   8.4971   8.7287   8.7609
     8.7856   8.7923   9.0226   9.1137   9.1190   9.8644  12.0782  14.2872
    16.0321  18.1329

          k = 0.0625 0.1875 0.4375 (  4359 PWs)   bands (ev):

     4.5215   5.5569   7.1187   7.1683   7.2800   7.3287   7.3708   7.5247
     7.6349   7.7510   8.0169   8.0830   8.3551   8.5497   8.5856   8.6047
     8.6311   8.8258   8.9498   9.1024   9.1031   9.2087  13.1488  14.4104
    15.5738  16.9636

          k = 0.0625 0.3125 0.3125 (  4370 PWs)   bands (ev):

     4.2225   6.6640   6.6647   7.0625   7.2441   7.2827   7.2827   7.6597
     7.8112   7.8113   7.9482   8.0857   8.2448   8.4723   8.6079   8.6731
     8.6732   8.9569   8.9571   8.9602   9.0142  10.5756  10.5763  14.0793
    15.2412  18.6238

          k = 0.0625 0.3125 0.4375 (  4365 PWs)   bands (ev):

     5.0772   6.0021   6.9898   7.1204   7.3715   7.4249   7.4483   7.5600
     7.5899   7.7376   7.8359   7.9856   8.3346   8.4906   8.5114   8.5480
     8.5491   8.7537   8.9294   8.9478   9.2260   9.6734  11.4607  12.6113
    16.3509  17.7230

          k = 0.0625 0.4375 0.4375 (  4377 PWs)   bands (ev):

     5.7987   6.5030   6.5035   6.8868   7.5553   7.5555   7.5738   7.5779
     7.6773   7.7136   7.7140   7.8897   8.3139   8.4029   8.4030   8.4034
     8.5857   8.7373   8.7377   8.8097   9.6321  10.3001  10.3009  11.2355
    17.4388  18.7899

          k = 0.1875 0.1875 0.1875 (  4374 PWs)   bands (ev):

     3.2743   6.7053   6.7056   6.7058   7.0808   7.0808   7.0808   7.8044
     8.0990   8.0990   8.3008   8.3008   8.3010   8.6401   8.6401   8.7363
     8.7365   8.7366   9.1735   9.1737   9.1739  11.6579  11.6581  11.6583
    18.2663  18.2665

          k = 0.1875 0.1875 0.3125 (  4364 PWs)   bands (ev):

     3.9091   6.4678   6.9022   6.9023   7.2204   7.2205   7.2255   7.7223
     7.9965   7.9965   8.0418   8.1140   8.1405   8.5547   8.6159   8.6160
     8.6195   8.7755   9.1339   9.1340   9.1415  10.1880  12.4268  12.4268
    16.4391  16.4391

          k = 0.1875 0.1875 0.4375 (  4357 PWs)   bands (ev):

     4.7902   5.7587   7.0904   7.0904   7.3171   7.3173   7.4056   7.5803
     7.7914   7.7915   7.9567   8.0446   8.2333   8.3768   8.5149   8.5151
     8.8008   8.9232   9.0531   9.0935   9.0936   9.2770  13.3348  13.3349
    15.0033  15.0033

          k = 0.1875 0.3125 0.3125 (  4373 PWs)   bands (ev):

     4.4951   6.6626   6.6628   6.9252   7.3575   7.3888   7.3890   7.7333
     7.8731   7.8733   7.9586   8.0799   8.1239   8.4472   8.4475   8.4543
     8.6607   8.9048   9.0979   9.1078   9.1081  10.7807  10.7814  12.9309
    14.7648  17.1801

          k = 0.1875 0.3125 0.4375 (  4369 PWs)   bands (ev):

     5.2791   6.0860   6.8161   6.8989   7.4839   7.5177   7.5778   7.6942
     7.8399   7.8741   7.9179   7.9910   8.1663   8.2825   8.3603   8.3706
     8.7856   8.9956   9.0431   9.0450   9.1552   9.6825  11.5937  12.5851
    14.5734  15.6643

          k = 0.1875 0.4375 0.4375 (  4382 PWs)   bands (ev):

     5.8734   6.4136   6.4136   6.6768   7.6640   7.7499   7.7505   7.8247
     7.8688   7.8688   7.9224   7.9706   8.1421   8.2251   8.2252   8.2410
     8.7875   8.9230   8.9232   8.9549   9.5597  10.3025  10.3034  11.2633
    15.4263  16.6682

          k = 0.3125 0.3125 0.3125 (  4374 PWs)   bands (ev):

     4.9952   6.6390   6.6391   6.6392   7.5639   7.5641   7.5643   7.8811
     7.9844   7.9846   7.9849   8.0561   8.0561   8.2787   8.2789   8.2790
     8.8540   8.8540   9.1442   9.1444   9.1446  11.1809  11.1814  11.1819
    15.4018  15.4019

          k = 0.3125 0.3125 0.4375 (  4378 PWs)   bands (ev):

     5.6154   6.1985   6.6153   6.6154   7.6681   7.6682   7.8014   7.9791
     8.0122   8.0173   8.0606   8.1250   8.1251   8.1387   8.1976   8.1978
     9.0147   9.0517   9.1035   9.1036   9.1168   9.8309  11.6418  11.6418
    14.2213  14.2213

          k = 0.3125 0.4375 0.4375 (  4391 PWs)   bands (ev):

     5.9805   6.3121   6.3124   6.4453   7.7954   7.8452   7.8456   7.9567
     8.0143   8.0661   8.0661   8.0836   8.3344   8.3350   8.3663   8.3725
     8.9684   9.0748   9.0750   9.0774   9.4047  10.2999  10.3012  11.0787
    14.0754  14.9623

          k = 0.4375 0.4375 0.4375 (  4365 PWs)   bands (ev):

     6.1012   6.2509   6.2511   6.2514   7.9043   7.9043   7.9044   7.9584
     7.9584   7.9828   7.9830   7.9831   8.7764   8.7767   8.7770   9.0885
     9.0885   9.1265   9.1267   9.1269   9.2903  10.2866  10.2875  10.2885
    13.9403  13.9407

          k = 0.1875 0.0625 0.0625 (  4364 PWs)   bands (ev):

     2.6096   6.4155   6.6019   6.6024   6.9277   6.9334   6.9334   7.8647
     8.0583   8.0608   8.5643   8.6785   8.7008   8.7008   8.9356   8.9756
     8.9760   8.9923   9.1491   9.2155   9.2163  10.5483  12.7551  12.7552
    17.4993  17.5000

          k = 0.3125 0.0625 0.0625 (  4358 PWs)   bands (ev):

     3.2791   6.1290   6.8411   6.8415   7.0791   7.1085   7.1085   7.7057
     8.1809   8.1930   8.1962   8.1963   8.4523   8.5598   8.7501   8.8032
     8.8036   8.8232   9.0514   9.2128   9.2136   9.3040  13.8190  13.8191
    17.8996  17.9003

          k = 0.4375 0.0625 0.0625 (  4369 PWs)   bands (ev):

     4.2260   5.3053   7.0534   7.0537   7.2795   7.3697   7.3698   7.4995
     7.7412   7.7413   8.2090   8.2211   8.3799   8.5035   8.6015   8.6433
     8.6438   8.7808   8.8442   8.9484   9.2120   9.2128  15.0960  15.0963
    16.5584  16.5585

          k = 0.1875 0.1875 0.0625 (  4365 PWs)   bands (ev):

     2.9463   6.5783   6.5783   6.7291   7.0062   7.0078   7.0078   7.8241
     8.0908   8.0915   8.4851   8.4855   8.4857   8.5542   8.6895   8.8711
     8.9229   8.9230   9.1397   9.1398   9.1588  11.1848  11.1849  13.3323
    17.6948  17.8705

          k = 0.1875 0.3125 0.0625 (  4359 PWs)   bands (ev):

     3.6013   6.3291   6.8505   6.9408   7.1432   7.1467   7.1678   7.7021
     8.0082   8.1156   8.1307   8.1652   8.1984   8.4970   8.7287   8.7609
     8.7856   8.7923   9.0226   9.1137   9.1190   9.8644  12.0782  14.2872
    16.0321  18.1329

          k = 0.3125 0.0625 0.1875 (  4359 PWs)   bands (ev):

     3.6013   6.3291   6.8505   6.9408   7.1432   7.1467   7.1678   7.7021
     8.0082   8.1156   8.1307   8.1652   8.1984   8.4970   8.7287   8.7609
     8.7855   8.7923   9.0226   9.1137   9.1190   9.8644  12.0782  14.2872
    16.0321  18.1329

          k = 0.1875 0.4375 0.0625 (  4359 PWs)   bands (ev):

     4.5215   5.5569   7.1187   7.1683   7.2800   7.3287   7.3708   7.5247
     7.6349   7.7510   8.0169   8.0830   8.3551   8.5497   8.5856   8.6047
     8.6311   8.8258   8.9499   9.1024   9.1031   9.2087  13.1488  14.4104
    15.5738  16.9636

          k = 0.4375 0.0625 0.1875 (  4359 PWs)   bands (ev):

     4.5215   5.5569   7.1187   7.1683   7.2800   7.3287   7.3708   7.5247
     7.6349   7.7510   8.0169   8.0830   8.3551   8.5497   8.5856   8.6047
     8.6311   8.8258   8.9499   9.1023   9.1033   9.2087  13.1488  14.4104
    15.5738  16.9636

          k = 0.3125 0.3125 0.0625 (  4370 PWs)   bands (ev):

     4.2224   6.6643   6.6643   7.0625   7.2441   7.2827   7.2827   7.6597
     7.8112   7.8113   7.9482   8.0857   8.2448   8.4723   8.6079   8.6731
     8.6731   8.9570   8.9570   8.9602   9.0142  10.5759  10.5760  14.0793
    15.2412  18.6238

          k = 0.3125 0.4375 0.0625 (  4365 PWs)   bands (ev):

     5.0772   6.0021   6.9898   7.1204   7.3715   7.4249   7.4483   7.5600
     7.5899   7.7377   7.8359   7.9856   8.3346   8.4906   8.5114   8.5480
     8.5491   8.7537   8.9294   8.9478   9.2260   9.6734  11.4607  12.6113
    16.3509  17.7230

          k = 0.4375 0.0625 0.3125 (  4365 PWs)   bands (ev):

     5.0772   6.0021   6.9898   7.1204   7.3715   7.4249   7.4483   7.5600
     7.5899   7.7377   7.8359   7.9856   8.3346   8.4906   8.5114   8.5480
     8.5491   8.7537   8.9294   8.9478   9.2260   9.6734  11.4607  12.6113
    16.3509  17.7230

          k = 0.4375 0.4375 0.0625 (  4377 PWs)   bands (ev):

     5.7987   6.5032   6.5033   6.8867   7.5553   7.5554   7.5738   7.5779
     7.6773   7.7137   7.7138   7.8897   8.3139   8.4029   8.4029   8.4035
     8.5857   8.7375   8.7376   8.8097   9.6321  10.3004  10.3005  11.2355
    17.4388  18.7900

          k = 0.3125 0.1875 0.1875 (  4364 PWs)   bands (ev):

     3.9091   6.4678   6.9022   6.9023   7.2204   7.2205   7.2255   7.7223
     7.9964   7.9966   8.0418   8.1140   8.1405   8.5547   8.6158   8.6162
     8.6195   8.7755   9.1337   9.1342   9.1415  10.1880  12.4265  12.4271
    16.4391  16.4392

          k = 0.4375 0.1875 0.1875 (  4357 PWs)   bands (ev):

     4.7902   5.7587   7.0903   7.0905   7.3171   7.3173   7.4056   7.5803
     7.7912   7.7917   7.9566   8.0446   8.2333   8.3768   8.5148   8.5153
     8.8007   8.9232   9.0531   9.0933   9.0939   9.2770  13.3342  13.3355
    15.0030  15.0037

          k = 0.3125 0.3125 0.1875 (  4373 PWs)   bands (ev):

     4.4951   6.6627   6.6627   6.9252   7.3575   7.3889   7.3889   7.7333
     7.8732   7.8733   7.9586   8.0799   8.1239   8.4473   8.4474   8.4543
     8.6607   8.9048   9.0979   9.1079   9.1080  10.7810  10.7811  12.9310
    14.7648  17.1802

          k = 0.3125 0.4375 0.1875 (  4369 PWs)   bands (ev):

     5.2791   6.0860   6.8161   6.8989   7.4840   7.5177   7.5778   7.6942
     7.8399   7.8741   7.9179   7.9910   8.1663   8.2825   8.3603   8.3706
     8.7856   8.9956   9.0431   9.0450   9.1552   9.6825  11.5937  12.5851
    14.5734  15.6643

          k = 0.4375 0.1875 0.3125 (  4369 PWs)   bands (ev):

     5.2791   6.0860   6.8161   6.8989   7.4840   7.5177   7.5778   7.6942
     7.8399   7.8741   7.9179   7.9909   8.1663   8.2825   8.3603   8.3706
     8.7856   8.9956   9.0431   9.0450   9.1552   9.6825  11.5937  12.5851
    14.5734  15.6643

          k = 0.4375 0.4375 0.1875 (  4382 PWs)   bands (ev):

     5.8734   6.4136   6.4136   6.6768   7.6640   7.7502   7.7503   7.8247
     7.8688   7.8688   7.9224   7.9706   8.1421   8.2251   8.2251   8.2410
     8.7875   8.9231   8.9231   8.9549   9.5597  10.3029  10.3030  11.2633
    15.4263  16.6682

          k = 0.4375 0.3125 0.3125 (  4378 PWs)   bands (ev):

     5.6154   6.1985   6.6152   6.6156   7.6681   7.6682   7.8014   7.9791
     8.0122   8.0173   8.0606   8.1247   8.1254   8.1387   8.1975   8.1979
     9.0147   9.0517   9.1033   9.1038   9.1168   9.8309  11.6410  11.6426
    14.2209  14.2217

          k = 0.4375 0.4375 0.3125 (  4391 PWs)   bands (ev):

     5.9805   6.3123   6.3123   6.4453   7.7954   7.8454   7.8454   7.9567
     8.0142   8.0661   8.0661   8.0836   8.3347   8.3347   8.3664   8.3725
     8.9684   9.0749   9.0749   9.0775   9.4047  10.3006  10.3006  11.0787
    14.0754  14.9621

     the Fermi energy is    10.5722 ev

!    total energy              =    -490.97231162 Ry
     Harris-Foulkes estimate   =    -490.97231149 Ry
     estimated scf accuracy    <       0.00000008 Ry

     The total energy is the sum of the following terms:

     one-electron contribution =    -131.40387570 Ry
     hartree contribution      =     130.22271293 Ry
     xc contribution           =    -178.31007186 Ry
     ewald contribution        =    -311.48089784 Ry
     smearing contrib. (-TS)   =      -0.00017915 Ry

     total magnetization       =     0.00 Bohr mag/cell
     absolute magnetization    =     0.00 Bohr mag/cell

     convergence has been achieved in   7 iterations

     Writing output data file cu-3.77.save/

     init_run     :      3.68s CPU      3.81s WALL (       1 calls)
     electrons    :     61.68s CPU     63.27s WALL (       1 calls)

     Called by init_run:
     wfcinit      :      3.08s CPU      3.18s WALL (       1 calls)
     potinit      :      0.09s CPU      0.09s WALL (       1 calls)
     hinit0       :      0.28s CPU      0.29s WALL (       1 calls)

     Called by electrons:
     c_bands      :     52.70s CPU     53.73s WALL (       8 calls)
     sum_band     :      7.84s CPU      8.21s WALL (       8 calls)
     v_of_rho     :      0.38s CPU      0.38s WALL (       8 calls)
     newd         :      0.83s CPU      1.05s WALL (       8 calls)
     mix_rho      :      0.04s CPU      0.04s WALL (       8 calls)

     Called by c_bands:
     init_us_2    :      0.55s CPU      0.56s WALL (    1360 calls)
     cegterg      :     50.03s CPU     51.05s WALL (     640 calls)

     Called by sum_band:
     sum_band:bec :      0.03s CPU      0.03s WALL (     640 calls)
     addusdens    :      1.05s CPU      1.26s WALL (       8 calls)

     Called by *egterg:
     h_psi        :     32.88s CPU     33.93s WALL (    2248 calls)
     s_psi        :      3.70s CPU      3.71s WALL (    2248 calls)
     g_psi        :      0.16s CPU      0.16s WALL (    1528 calls)
     cdiaghg      :      2.87s CPU      2.87s WALL (    2088 calls)

     Called by h_psi:
     h_psi:pot    :     32.79s CPU     33.83s WALL (    2248 calls)
     h_psi:calbec :      5.41s CPU      5.56s WALL (    2248 calls)
     vloc_psi     :     23.56s CPU     24.44s WALL (    2248 calls)
     add_vuspsi   :      3.81s CPU      3.83s WALL (    2248 calls)

     General routines
     calbec       :      7.31s CPU      7.49s WALL (    2888 calls)
     fft          :      0.20s CPU      0.21s WALL (     196 calls)
     ffts         :      0.01s CPU      0.01s WALL (      32 calls)
     fftw         :     25.43s CPU     26.34s WALL (  107336 calls)
     interpolate  :      0.02s CPU      0.02s WALL (      16 calls)

     Parallel routines
     fft_scatt_xy :      2.15s CPU      2.22s WALL (  107564 calls)
     fft_scatt_yz :     11.42s CPU     11.82s WALL (  107564 calls)

     PWSCF        :   1m 6.84s CPU   1m 8.71s WALL


   This run was terminated on:  20:23:59  17Mar2022            

=------------------------------------------------------------------------------=
   JOB DONE.
=------------------------------------------------------------------------------=
