
     Program PWSCF v.6.4.1 starts on 17Mar2022 at 20:15:32 

     This program is part of the open-source Quantum ESPRESSO suite
     for quantum simulation of materials; please cite
         "P. Giannozzi et al., J. Phys.:Condens. Matter 21 395502 (2009);
         "P. Giannozzi et al., J. Phys.:Condens. Matter 29 465901 (2017);
          URL http://www.quantum-espresso.org", 
     in publications or presentations arising from this work. More details at
     http://www.quantum-espresso.org/quote

     Parallel version (MPI), running on     6 processors

     MPI processes distributed on     1 nodes
     R & G space division:  proc/nbgrp/npool/nimage =       6
     Reading input from cu-3.63.in
Warning: card CU1   63.546    CU.PBE-DN-RRKJUS_PSL.1.0.0.UPF ignored
Warning: card CU2   63.546    CU.PBE-DN-RRKJUS_PSL.1.0.0.UPF ignored

     Current dimensions of program PWSCF are:
     Max number of different atomic species (ntypx) = 10
     Max number of k-points (npk) =  40000
     Max angular momentum in pseudopotentials (lmaxx) =  3
               file Cu.pbe-dn-rrkjus_psl.1.0.0.UPF: wavefunction(s)  3D renormalized
               file Cu.pbe-dn-rrkjus_psl.1.0.0.UPF: wavefunction(s)  3D renormalized

     Subspace diagonalization in iterative solution of the eigenvalue problem:
     a serial algorithm will be used

     Found symmetry operation: I + (  0.0000 -0.5000 -0.5000)
     This is a supercell, fractional translations are disabled
     Message from routine setup:
     DEPRECATED: symmetry with ibrav=0, use correct ibrav instead

     Parallelization info
     --------------------
     sticks:   dense  smooth     PW     G-vecs:    dense   smooth      PW
     Min         348     200     58                12074     5222     824
     Max         349     201     59                12077     5227     825
     Sum        2093    1201    349                72455    31343    4945



     bravais-lattice index     =            0
     lattice parameter (alat)  =       6.8597  a.u.
     unit-cell volume          =     322.7873 (a.u.)^3
     number of atoms/cell      =            4
     number of atomic types    =            2
     number of electrons       =        44.00
     number of Kohn-Sham states=           26
     kinetic-energy cutoff     =      80.0000  Ry
     charge density cutoff     =     560.0000  Ry
     convergence threshold     =      1.0E-06
     mixing beta               =       0.7000
     number of iterations used =            8  plain     mixing
     Exchange-correlation      = PBE ( 1  4  3  4 0 0)

     celldm(1)=   6.859706  celldm(2)=   0.000000  celldm(3)=   0.000000
     celldm(4)=   0.000000  celldm(5)=   0.000000  celldm(6)=   0.000000

     crystal axes: (cart. coord. in units of alat)
               a(1) = (   1.000000   0.000000   0.000000 )  
               a(2) = (   0.000000   1.000000   0.000000 )  
               a(3) = (   0.000000   0.000000   1.000000 )  

     reciprocal axes: (cart. coord. in units 2 pi/alat)
               b(1) = (  1.000000  0.000000  0.000000 )  
               b(2) = (  0.000000  1.000000  0.000000 )  
               b(3) = (  0.000000  0.000000  1.000000 )  


     PseudoPot. # 1 for Cu read from file:
     /home/cristian/Escritorio/Proyecto_Grafeno/pseudopotenciales/Cu.pbe-dn-rrkjus_psl.1.0.0.UPF
     MD5 check sum: ba3d6c84e19846e79d48cdc68ff7152b
     Pseudo is Ultrasoft + core correction, Zval = 11.0
     Generated using "atomic" code by A. Dal Corso v.6.3
     Using radial grid of 1199 points,  6 beta functions with: 
                l(1) =   0
                l(2) =   0
                l(3) =   1
                l(4) =   1
                l(5) =   2
                l(6) =   2
     Q(r) pseudized with 0 coefficients 


     PseudoPot. # 2 for Cu read from file:
     /home/cristian/Escritorio/Proyecto_Grafeno/pseudopotenciales/Cu.pbe-dn-rrkjus_psl.1.0.0.UPF
     MD5 check sum: ba3d6c84e19846e79d48cdc68ff7152b
     Pseudo is Ultrasoft + core correction, Zval = 11.0
     Generated using "atomic" code by A. Dal Corso v.6.3
     Using radial grid of 1199 points,  6 beta functions with: 
                l(1) =   0
                l(2) =   0
                l(3) =   1
                l(4) =   1
                l(5) =   2
                l(6) =   2
     Q(r) pseudized with 0 coefficients 


     atomic species   valence    mass     pseudopotential
        Cu1           11.00    63.54600     Cu( 1.00)
        Cu2           11.00    63.54600     Cu( 1.00)

     Starting magnetic structure 
     atomic species   magnetization
        Cu1          0.100
        Cu2         -0.100

     16 Sym. Ops., with inversion, found



   Cartesian axes

     site n.     atom                  positions (alat units)
         1           Cu1 tau(   1) = (   0.0000000   0.0000000   0.0000000  )
         2           Cu2 tau(   2) = (   0.5000000   0.5000000   0.0000000  )
         3           Cu1 tau(   3) = (   0.0000000   0.5000000   0.5000000  )
         4           Cu2 tau(   4) = (   0.5000000   0.0000000   0.5000000  )

     number of k points=    40  Methfessel-Paxton smearing, width (Ry)=  0.0300
                       cart. coord. in units 2pi/alat
        k(    1) = (   0.0625000   0.0625000   0.0625000), wk =   0.0156250
        k(    2) = (   0.0625000   0.0625000   0.1875000), wk =   0.0312500
        k(    3) = (   0.0625000   0.0625000   0.3125000), wk =   0.0312500
        k(    4) = (   0.0625000   0.0625000   0.4375000), wk =   0.0312500
        k(    5) = (   0.0625000   0.1875000   0.1875000), wk =   0.0156250
        k(    6) = (   0.0625000   0.1875000   0.3125000), wk =   0.0312500
        k(    7) = (   0.0625000   0.1875000   0.4375000), wk =   0.0312500
        k(    8) = (   0.0625000   0.3125000   0.3125000), wk =   0.0156250
        k(    9) = (   0.0625000   0.3125000   0.4375000), wk =   0.0312500
        k(   10) = (   0.0625000   0.4375000   0.4375000), wk =   0.0156250
        k(   11) = (   0.1875000   0.1875000   0.1875000), wk =   0.0156250
        k(   12) = (   0.1875000   0.1875000   0.3125000), wk =   0.0312500
        k(   13) = (   0.1875000   0.1875000   0.4375000), wk =   0.0312500
        k(   14) = (   0.1875000   0.3125000   0.3125000), wk =   0.0156250
        k(   15) = (   0.1875000   0.3125000   0.4375000), wk =   0.0312500
        k(   16) = (   0.1875000   0.4375000   0.4375000), wk =   0.0156250
        k(   17) = (   0.3125000   0.3125000   0.3125000), wk =   0.0156250
        k(   18) = (   0.3125000   0.3125000   0.4375000), wk =   0.0312500
        k(   19) = (   0.3125000   0.4375000   0.4375000), wk =   0.0156250
        k(   20) = (   0.4375000   0.4375000   0.4375000), wk =   0.0156250
        k(   21) = (   0.1875000   0.0625000   0.0625000), wk =   0.0156250
        k(   22) = (   0.3125000   0.0625000   0.0625000), wk =   0.0156250
        k(   23) = (   0.4375000   0.0625000   0.0625000), wk =   0.0156250
        k(   24) = (   0.1875000   0.1875000   0.0625000), wk =   0.0312500
        k(   25) = (   0.1875000   0.3125000   0.0625000), wk =   0.0312500
        k(   26) = (   0.3125000   0.0625000   0.1875000), wk =   0.0312500
        k(   27) = (   0.1875000   0.4375000   0.0625000), wk =   0.0312500
        k(   28) = (   0.4375000   0.0625000   0.1875000), wk =   0.0312500
        k(   29) = (   0.3125000   0.3125000   0.0625000), wk =   0.0312500
        k(   30) = (   0.3125000   0.4375000   0.0625000), wk =   0.0312500
        k(   31) = (   0.4375000   0.0625000   0.3125000), wk =   0.0312500
        k(   32) = (   0.4375000   0.4375000   0.0625000), wk =   0.0312500
        k(   33) = (   0.3125000   0.1875000   0.1875000), wk =   0.0156250
        k(   34) = (   0.4375000   0.1875000   0.1875000), wk =   0.0156250
        k(   35) = (   0.3125000   0.3125000   0.1875000), wk =   0.0312500
        k(   36) = (   0.3125000   0.4375000   0.1875000), wk =   0.0312500
        k(   37) = (   0.4375000   0.1875000   0.3125000), wk =   0.0312500
        k(   38) = (   0.4375000   0.4375000   0.1875000), wk =   0.0312500
        k(   39) = (   0.4375000   0.3125000   0.3125000), wk =   0.0156250
        k(   40) = (   0.4375000   0.4375000   0.3125000), wk =   0.0312500

     Dense  grid:    72455 G-vectors     FFT dimensions: (  54,  54,  54)

     Smooth grid:    31343 G-vectors     FFT dimensions: (  40,  40,  40)

     Estimated max dynamical RAM per process >      72.40 MB

     Estimated total dynamical RAM >     434.41 MB
     Generating pointlists ...
     new r_m :   0.2917 (alat units)  2.0008 (a.u.) for type    1
     new r_m :   0.2917 (alat units)  2.0008 (a.u.) for type    2

     Initial potential from superposition of free atoms

     starting charge   43.99908, renormalised to   44.00000
     Starting wfcs are   36 randomized atomic wfcs

     total cpu time spent up to now is        4.5 secs

     Self-consistent Calculation

     iteration #  1     ecut=    80.00 Ry     beta= 0.70
     Davidson diagonalization with overlap
     ethr =  1.00E-02,  avg # of iterations =  2.4

     Threshold (ethr) on eigenvalues was too large:
     Diagonalizing with lowered threshold

     Davidson diagonalization with overlap
     ethr =  6.23E-04,  avg # of iterations =  2.1

     total cpu time spent up to now is       15.3 secs

     total energy              =    -490.83805557 Ry
     Harris-Foulkes estimate   =    -490.98363879 Ry
     estimated scf accuracy    <       0.32248316 Ry

     total magnetization       =     0.00 Bohr mag/cell
     absolute magnetization    =     0.74 Bohr mag/cell

     iteration #  2     ecut=    80.00 Ry     beta= 0.70
     Davidson diagonalization with overlap
     ethr =  7.33E-04,  avg # of iterations =  2.5

     total cpu time spent up to now is       22.8 secs

     total energy              =    -490.83261176 Ry
     Harris-Foulkes estimate   =    -491.16577546 Ry
     estimated scf accuracy    <       0.86342560 Ry

     total magnetization       =     0.00 Bohr mag/cell
     absolute magnetization    =     0.17 Bohr mag/cell

     iteration #  3     ecut=    80.00 Ry     beta= 0.70
     Davidson diagonalization with overlap
     ethr =  7.33E-04,  avg # of iterations =  2.0

     total cpu time spent up to now is       30.0 secs

     total energy              =    -490.98657325 Ry
     Harris-Foulkes estimate   =    -490.98262745 Ry
     estimated scf accuracy    <       0.01507068 Ry

     total magnetization       =    -0.00 Bohr mag/cell
     absolute magnetization    =     0.23 Bohr mag/cell

     iteration #  4     ecut=    80.00 Ry     beta= 0.70
     Davidson diagonalization with overlap
     ethr =  3.43E-05,  avg # of iterations =  2.1

     total cpu time spent up to now is       35.4 secs

     total energy              =    -490.98853531 Ry
     Harris-Foulkes estimate   =    -490.98852386 Ry
     estimated scf accuracy    <       0.00004977 Ry

     total magnetization       =     0.00 Bohr mag/cell
     absolute magnetization    =     0.02 Bohr mag/cell

     iteration #  5     ecut=    80.00 Ry     beta= 0.70
     Davidson diagonalization with overlap
     ethr =  1.13E-07,  avg # of iterations =  3.5

     total cpu time spent up to now is       44.5 secs

     total energy              =    -490.98855806 Ry
     Harris-Foulkes estimate   =    -490.98863121 Ry
     estimated scf accuracy    <       0.00029776 Ry

     total magnetization       =    -0.00 Bohr mag/cell
     absolute magnetization    =     0.01 Bohr mag/cell

     iteration #  6     ecut=    80.00 Ry     beta= 0.70
     Davidson diagonalization with overlap
     ethr =  1.13E-07,  avg # of iterations =  2.2

     total cpu time spent up to now is       51.8 secs

     total energy              =    -490.98859752 Ry
     Harris-Foulkes estimate   =    -490.98859647 Ry
     estimated scf accuracy    <       0.00000598 Ry

     total magnetization       =     0.00 Bohr mag/cell
     absolute magnetization    =     0.01 Bohr mag/cell

     iteration #  7     ecut=    80.00 Ry     beta= 0.70
     Davidson diagonalization with overlap
     ethr =  1.36E-08,  avg # of iterations =  2.2

     Magnetic moment per site:
     atom:    1    charge:    9.8346    magn:    0.0000    constr:    0.0000
     atom:    2    charge:    9.8343    magn:   -0.0000    constr:    0.0000
     atom:    3    charge:    9.8342    magn:    0.0000    constr:    0.0000
     atom:    4    charge:    9.8343    magn:   -0.0000    constr:    0.0000

     total cpu time spent up to now is       58.0 secs

     End of self-consistent calculation

 ------ SPIN UP ------------


          k = 0.0625 0.0625 0.0625 (  3887 PWs)   bands (ev):

     3.2905   7.6912   7.6916   7.6918   8.1499   8.1499   8.1499   9.4639
     9.5204   9.5204  10.2935  10.2935  10.8054  10.8055  10.8059  10.8331
    10.8335  10.8335  10.9877  10.9877  10.9882  13.8697  13.8697  13.8697
    19.9089  19.9091

          k = 0.0625 0.0625 0.1875 (  3892 PWs)   bands (ev):

     3.6620   7.6563   7.8583   7.8586   8.2460   8.2523   8.2523   9.3657
     9.5979   9.6009  10.2020  10.3394  10.3404  10.3405  10.6276  10.6904
    10.6907  10.7114  10.8994  10.9787  10.9793  12.3247  14.6665  14.6665
    20.0865  20.0865

          k = 0.0625 0.0625 0.3125 (  3900 PWs)   bands (ev):

     4.3845   7.3746   8.1335   8.1338   8.4255   8.4584   8.4585   9.1742
     9.7392   9.7393   9.7427   9.7575  10.0663  10.1738  10.4245  10.4829
    10.4834  10.5080  10.7832  10.9755  10.9760  11.0326  15.8621  15.8621
    20.4026  20.4027

          k = 0.0625 0.0625 0.4375 (  3914 PWs)   bands (ev):

     5.3986   6.5349   8.3771   8.3775   8.6639   8.7663   8.7664   8.9268
     9.2032   9.2033   9.7738   9.7849   9.9792  10.1256  10.2430  10.2920
    10.2926  10.4516  10.5366  10.6605  10.9745  10.9750  17.2656  17.2656
    18.8679  18.8679

          k = 0.0625 0.1875 0.1875 (  3903 PWs)   bands (ev):

     4.0259   7.8412   7.8418   8.0068   8.3366   8.3402   8.3402   9.3154
     9.6359   9.6375  10.0800  10.0861  10.0862  10.1894  10.3518  10.5650
    10.6253  10.6254  10.8875  10.8876  10.9109  13.0620  13.0624  15.3201
    20.1084  20.4723

          k = 0.0625 0.1875 0.3125 (  3897 PWs)   bands (ev):

     4.7313   7.5959   8.1520   8.2556   8.4946   8.5048   8.5279   9.1682
     9.5229   9.6431   9.6818   9.7137   9.7642  10.1197  10.3935  10.4317
    10.4594  10.4740  10.7456  10.8561  10.8630  11.6735  14.0593  16.3757
    18.3270  20.7492

          k = 0.0625 0.1875 0.4375 (  3903 PWs)   bands (ev):

     5.7150   6.8049   8.4576   8.5148   8.6627   8.7213   8.7681   8.9555
     9.0829   9.2141   9.5431   9.6228   9.9498  10.1807  10.2231  10.2450
    10.2753  10.5076  10.6605  10.8426  10.8437  10.9580  15.2237  16.5553
    17.8379  19.3254

          k = 0.0625 0.3125 0.3125 (  3904 PWs)   bands (ev):

     5.3972   7.9680   7.9686   8.4134   8.6005   8.6634   8.6634   9.1153
     9.2968   9.2969   9.4455   9.6260   9.8193  10.0897  10.2489  10.3246
    10.3247  10.6671  10.6673  10.6725  10.7377  12.4675  12.4681  16.1931
    17.4865  21.2467

          k = 0.0625 0.3125 0.4375 (  3900 PWs)   bands (ev):

     6.3074   7.2815   8.3344   8.4868   8.7523   8.8329   8.8529   8.9949
     9.0319   9.1981   9.3256   9.5042   9.9248  10.1087  10.1331  10.1749
    10.1804  10.4232  10.6353  10.6580  10.9835  11.4894  13.4297  14.6561
    18.6769  20.1560

          k = 0.0625 0.4375 0.4375 (  3902 PWs)   bands (ev):

     7.0719   7.8168   7.8171   8.2295   8.9831   8.9831   8.9959   9.0133
     9.1284   9.1748   9.1750   9.3853   9.8992  10.0033  10.0034  10.0047
    10.2253  10.4060  10.4062  10.4930  11.4489  12.1856  12.1862  13.1929
    19.8573  21.3102

          k = 0.1875 0.1875 0.1875 (  3899 PWs)   bands (ev):

     4.3793   7.9892   7.9895   7.9897   8.4233   8.4235   8.4235   9.2894
     9.6461   9.6461   9.8652   9.8655   9.8656  10.2919  10.2919  10.4036
    10.4037  10.4040  10.9289  10.9289  10.9293  13.5900  13.5902  13.5904
    20.7312  20.7312

          k = 0.1875 0.1875 0.3125 (  3906 PWs)   bands (ev):

     5.0606   7.7503   8.2215   8.2217   8.5810   8.5812   8.5940   9.1890
     9.5075   9.5078   9.5683   9.6624   9.6949  10.1867  10.2580  10.2584
    10.2657  10.4536  10.8809  10.8813  10.8908  12.0264  14.4267  14.4267
    18.8047  18.8047

          k = 0.1875 0.1875 0.4375 (  3895 PWs)   bands (ev):

     5.9995   7.0181   8.4478   8.4480   8.6888   8.6893   8.8086   9.0180
     9.2624   9.2629   9.4718   9.5775   9.8047   9.9749  10.1369  10.1375
    10.4763  10.6299  10.7852  10.8325  10.8329  11.0221  15.3636  15.3637
    17.3278  17.3279

          k = 0.1875 0.3125 0.3125 (  3893 PWs)   bands (ev):

     5.6851   7.9692   7.9694   8.2599   8.7341   8.7779   8.7782   9.1972
     9.3691   9.3691   9.4595   9.6208   9.6748  10.0572  10.0573  10.0660
    10.3151  10.6062  10.8381  10.8494  10.8495  12.6716  12.6723  14.9130
    17.0909  19.6127

          k = 0.1875 0.3125 0.4375 (  3896 PWs)   bands (ev):

     6.5145   7.3621   8.1433   8.2356   8.8859   8.9268   9.0031   9.1458
     9.3197   9.3738   9.4055   9.5129   9.7244   9.8618   9.9534   9.9648
    10.4618  10.7128  10.7722  10.7740  10.8976  11.4826  13.5313  14.5379
    16.9079  18.0217

          k = 0.1875 0.4375 0.4375 (  3902 PWs)   bands (ev):

     7.1371   7.7071   7.7071   7.9899   9.1061   9.2047   9.2052   9.2904
     9.3534   9.3535   9.4274   9.4599   9.6951   9.7921   9.7922   9.8118
    10.4663  10.6272  10.6274  10.6666  11.3549  12.1579  12.1587  13.1701
    17.7837  19.0911

          k = 0.3125 0.3125 0.3125 (  3908 PWs)   bands (ev):

     6.2101   7.9435   7.9435   7.9437   8.9804   8.9807   8.9808   9.3592
     9.4904   9.4909   9.4909   9.5937   9.5937   9.8572   9.8573   9.8576
    10.5463  10.5463  10.8939  10.8940  10.8944  13.0630  13.0634  13.0638
    17.7584  17.7586

          k = 0.3125 0.3125 0.4375 (  3896 PWs)   bands (ev):

     6.8575   7.4697   7.9162   7.9164   9.1118   9.1122   9.2673   9.4783
     9.5221   9.5251   9.5986   9.6406   9.6410   9.6910   9.7584   9.7588
    10.7388  10.7660  10.8447  10.8451  10.8612  11.6130  13.4856  13.4856
    16.5730  16.5730

          k = 0.3125 0.4375 0.4375 (  3893 PWs)   bands (ev):

     7.2323   7.5832   7.5835   7.7260   9.2723   9.3338   9.3341   9.4729
     9.5430   9.6041   9.6041   9.6249   9.8697   9.8704   9.8962   9.9092
    10.6830  10.8097  10.8099  10.8136  11.1528  12.0791  12.0802  12.8590
    16.4341  17.3267

          k = 0.4375 0.4375 0.4375 (  3903 PWs)   bands (ev):

     7.3491   7.5085   7.5087   7.5089   9.4096   9.4096   9.4097   9.4765
     9.4765   9.5054   9.5055   9.5058  10.3922  10.3926  10.3929  10.8271
    10.8271  10.8291  10.8727  10.8727  10.8732  11.9500  11.9508  11.9515
    16.3057  16.3061

          k = 0.1875 0.0625 0.0625 (  3892 PWs)   bands (ev):

     3.6620   7.6563   7.8582   7.8587   8.2460   8.2523   8.2523   9.3657
     9.5979   9.6009  10.2020  10.3394  10.3404  10.3404  10.6275  10.6904
    10.6906  10.7114  10.8994  10.9788  10.9793  12.3247  14.6665  14.6665
    20.0862  20.0868

          k = 0.3125 0.0625 0.0625 (  3900 PWs)   bands (ev):

     4.3845   7.3746   8.1334   8.1339   8.4255   8.4585   8.4585   9.1742
     9.7392   9.7393   9.7427   9.7575  10.0663  10.1738  10.4245  10.4830
    10.4833  10.5080  10.7832  10.9755  10.9760  11.0326  15.8620  15.8621
    20.4025  20.4028

          k = 0.4375 0.0625 0.0625 (  3914 PWs)   bands (ev):

     5.3986   6.5349   8.3770   8.3775   8.6639   8.7663   8.7664   8.9268
     9.2032   9.2033   9.7738   9.7849   9.9792  10.1256  10.2430  10.2921
    10.2925  10.4516  10.5366  10.6606  10.9745  10.9751  17.2654  17.2658
    18.8677  18.8680

          k = 0.1875 0.1875 0.0625 (  3903 PWs)   bands (ev):

     4.0259   7.8414   7.8416   8.0068   8.3365   8.3402   8.3402   9.3154
     9.6359   9.6376  10.0800  10.0859  10.0864  10.1894  10.3518  10.5650
    10.6253  10.6254  10.8874  10.8876  10.9109  13.0622  13.0623  15.3201
    20.1084  20.4723

          k = 0.1875 0.3125 0.0625 (  3897 PWs)   bands (ev):

     4.7313   7.5959   8.1520   8.2556   8.4946   8.5048   8.5279   9.1682
     9.5229   9.6431   9.6818   9.7137   9.7642  10.1197  10.3935  10.4317
    10.4594  10.4740  10.7456  10.8561  10.8630  11.6734  14.0593  16.3757
    18.3270  20.7492

          k = 0.3125 0.0625 0.1875 (  3897 PWs)   bands (ev):

     4.7313   7.5959   8.1520   8.2556   8.4946   8.5048   8.5279   9.1682
     9.5229   9.6431   9.6818   9.7137   9.7642  10.1197  10.3935  10.4317
    10.4594  10.4740  10.7456  10.8561  10.8630  11.6734  14.0593  16.3757
    18.3270  20.7492

          k = 0.1875 0.4375 0.0625 (  3903 PWs)   bands (ev):

     5.7150   6.8049   8.4576   8.5148   8.6626   8.7213   8.7681   8.9555
     9.0829   9.2141   9.5430   9.6228   9.9498  10.1807  10.2230  10.2450
    10.2753  10.5076  10.6605  10.8426  10.8437  10.9580  15.2237  16.5553
    17.8379  19.3254

          k = 0.4375 0.0625 0.1875 (  3903 PWs)   bands (ev):

     5.7150   6.8049   8.4576   8.5148   8.6626   8.7213   8.7681   8.9555
     9.0829   9.2141   9.5430   9.6228   9.9498  10.1807  10.2230  10.2450
    10.2753  10.5076  10.6605  10.8426  10.8438  10.9580  15.2237  16.5554
    17.8379  19.3254

          k = 0.3125 0.3125 0.0625 (  3904 PWs)   bands (ev):

     5.3972   7.9683   7.9683   8.4134   8.6005   8.6633   8.6635   9.1153
     9.2966   9.2970   9.4455   9.6260   9.8193  10.0897  10.2489  10.3247
    10.3247  10.6671  10.6673  10.6725  10.7377  12.4677  12.4679  16.1931
    17.4865  21.2467

          k = 0.3125 0.4375 0.0625 (  3900 PWs)   bands (ev):

     6.3074   7.2815   8.3344   8.4868   8.7524   8.8329   8.8529   8.9949
     9.0319   9.1981   9.3256   9.5042   9.9248  10.1087  10.1331  10.1749
    10.1804  10.4232  10.6353  10.6580  10.9835  11.4894  13.4297  14.6561
    18.6769  20.1561

          k = 0.4375 0.0625 0.3125 (  3900 PWs)   bands (ev):

     6.3074   7.2815   8.3344   8.4868   8.7524   8.8329   8.8529   8.9949
     9.0319   9.1981   9.3256   9.5042   9.9248  10.1087  10.1331  10.1749
    10.1804  10.4232  10.6353  10.6580  10.9835  11.4894  13.4297  14.6561
    18.6769  20.1561

          k = 0.4375 0.4375 0.0625 (  3902 PWs)   bands (ev):

     7.0719   7.8169   7.8170   8.2295   8.9829   8.9832   8.9960   9.0133
     9.1284   9.1747   9.1750   9.3853   9.8992  10.0032  10.0035  10.0047
    10.2253  10.4059  10.4063  10.4931  11.4489  12.1857  12.1861  13.1929
    19.8573  21.3102

          k = 0.3125 0.1875 0.1875 (  3906 PWs)   bands (ev):

     5.0606   7.7503   8.2215   8.2217   8.5810   8.5811   8.5940   9.1890
     9.5076   9.5077   9.5683   9.6624   9.6949  10.1867  10.2580  10.2583
    10.2657  10.4536  10.8809  10.8813  10.8908  12.0264  14.4264  14.4270
    18.8046  18.8048

          k = 0.4375 0.1875 0.1875 (  3895 PWs)   bands (ev):

     5.9995   7.0181   8.4478   8.4480   8.6889   8.6892   8.8086   9.0180
     9.2625   9.2628   9.4718   9.5775   9.8047   9.9749  10.1370  10.1373
    10.4763  10.6299  10.7852  10.8325  10.8329  11.0221  15.3631  15.3642
    17.3274  17.3283

          k = 0.3125 0.3125 0.1875 (  3893 PWs)   bands (ev):

     5.6851   7.9693   7.9693   8.2599   8.7341   8.7780   8.7781   9.1972
     9.3689   9.3693   9.4595   9.6208   9.6748  10.0572  10.0573  10.0660
    10.3151  10.6062  10.8381  10.8493  10.8496  12.6718  12.6720  14.9130
    17.0909  19.6127

          k = 0.3125 0.4375 0.1875 (  3896 PWs)   bands (ev):

     6.5145   7.3621   8.1433   8.2356   8.8859   8.9268   9.0031   9.1458
     9.3197   9.3738   9.4055   9.5129   9.7244   9.8618   9.9534   9.9648
    10.4618  10.7128  10.7722  10.7740  10.8976  11.4826  13.5313  14.5379
    16.9079  18.0217

          k = 0.4375 0.1875 0.3125 (  3896 PWs)   bands (ev):

     6.5145   7.3621   8.1433   8.2356   8.8859   8.9268   9.0031   9.1458
     9.3197   9.3738   9.4055   9.5129   9.7244   9.8618   9.9534   9.9648
    10.4618  10.7128  10.7723  10.7740  10.8976  11.4826  13.5313  14.5379
    16.9079  18.0218

          k = 0.4375 0.4375 0.1875 (  3902 PWs)   bands (ev):

     7.1371   7.7071   7.7071   7.9899   9.1061   9.2048   9.2051   9.2904
     9.3534   9.3535   9.4274   9.4599   9.6951   9.7921   9.7922   9.8118
    10.4663  10.6272  10.6274  10.6666  11.3549  12.1581  12.1585  13.1701
    17.7837  19.0911

          k = 0.4375 0.3125 0.3125 (  3896 PWs)   bands (ev):

     6.8575   7.4697   7.9161   7.9165   9.1119   9.1121   9.2673   9.4783
     9.5221   9.5251   9.5986   9.6406   9.6411   9.6910   9.7585   9.7587
    10.7388  10.7660  10.8448  10.8451  10.8612  11.6130  13.4849  13.4863
    16.5726  16.5735

          k = 0.4375 0.4375 0.3125 (  3893 PWs)   bands (ev):

     7.2323   7.5833   7.5834   7.7260   9.2723   9.3338   9.3341   9.4729
     9.5430   9.6041   9.6041   9.6249   9.8700   9.8701   9.8962   9.9092
    10.6830  10.8097  10.8099  10.8136  11.1528  12.0795  12.0798  12.8590
    16.4341  17.3264

 ------ SPIN DOWN ----------


          k = 0.0625 0.0625 0.0625 (  3887 PWs)   bands (ev):

     3.2905   7.6911   7.6915   7.6920   8.1499   8.1499   8.1499   9.4639
     9.5204   9.5204  10.2935  10.2935  10.8054  10.8055  10.8058  10.8332
    10.8334  10.8336  10.9877  10.9879  10.9881  13.8697  13.8697  13.8697
    19.9089  19.9091

          k = 0.0625 0.0625 0.1875 (  3892 PWs)   bands (ev):

     3.6620   7.6563   7.8583   7.8586   8.2460   8.2523   8.2523   9.3657
     9.5979   9.6009  10.2020  10.3394  10.3404  10.3405  10.6276  10.6904
    10.6907  10.7114  10.8994  10.9788  10.9793  12.3247  14.6665  14.6665
    20.0865  20.0865

          k = 0.0625 0.0625 0.3125 (  3900 PWs)   bands (ev):

     4.3845   7.3746   8.1335   8.1338   8.4255   8.4584   8.4585   9.1742
     9.7392   9.7393   9.7427   9.7575  10.0663  10.1738  10.4245  10.4829
    10.4834  10.5080  10.7832  10.9755  10.9760  11.0326  15.8621  15.8621
    20.4026  20.4027

          k = 0.0625 0.0625 0.4375 (  3914 PWs)   bands (ev):

     5.3986   6.5349   8.3771   8.3775   8.6639   8.7663   8.7664   8.9268
     9.2032   9.2033   9.7738   9.7849   9.9792  10.1256  10.2430  10.2920
    10.2926  10.4516  10.5366  10.6605  10.9745  10.9750  17.2656  17.2656
    18.8679  18.8679

          k = 0.0625 0.1875 0.1875 (  3903 PWs)   bands (ev):

     4.0259   7.8411   7.8419   8.0068   8.3366   8.3402   8.3402   9.3154
     9.6359   9.6375  10.0800  10.0860  10.0863  10.1894  10.3518  10.5650
    10.6253  10.6253  10.8875  10.8875  10.9109  13.0621  13.0623  15.3201
    20.1084  20.4723

          k = 0.0625 0.1875 0.3125 (  3897 PWs)   bands (ev):

     4.7313   7.5959   8.1520   8.2556   8.4946   8.5048   8.5279   9.1682
     9.5229   9.6431   9.6818   9.7137   9.7642  10.1197  10.3935  10.4317
    10.4594  10.4740  10.7456  10.8561  10.8630  11.6735  14.0593  16.3757
    18.3270  20.7492

          k = 0.0625 0.1875 0.4375 (  3903 PWs)   bands (ev):

     5.7150   6.8049   8.4576   8.5148   8.6627   8.7213   8.7681   8.9554
     9.0829   9.2141   9.5431   9.6228   9.9498  10.1807  10.2231  10.2450
    10.2753  10.5076  10.6605  10.8426  10.8437  10.9580  15.2237  16.5554
    17.8379  19.3254

          k = 0.0625 0.3125 0.3125 (  3904 PWs)   bands (ev):

     5.3972   7.9680   7.9686   8.4134   8.6005   8.6633   8.6635   9.1153
     9.2966   9.2971   9.4455   9.6260   9.8193  10.0897  10.2489  10.3246
    10.3247  10.6672  10.6672  10.6725  10.7377  12.4677  12.4680  16.1931
    17.4865  21.2467

          k = 0.0625 0.3125 0.4375 (  3900 PWs)   bands (ev):

     6.3074   7.2815   8.3344   8.4868   8.7524   8.8329   8.8529   8.9949
     9.0319   9.1981   9.3256   9.5042   9.9248  10.1087  10.1331  10.1749
    10.1804  10.4232  10.6353  10.6580  10.9835  11.4894  13.4297  14.6561
    18.6769  20.1561

          k = 0.0625 0.4375 0.4375 (  3902 PWs)   bands (ev):

     7.0719   7.8169   7.8171   8.2295   8.9829   8.9832   8.9959   9.0133
     9.1284   9.1748   9.1749   9.3853   9.8992  10.0032  10.0035  10.0047
    10.2253  10.4060  10.4061  10.4930  11.4489  12.1858  12.1860  13.1929
    19.8573  21.3102

          k = 0.1875 0.1875 0.1875 (  3899 PWs)   bands (ev):

     4.3793   7.9891   7.9894   7.9899   8.4234   8.4234   8.4235   9.2894
     9.6461   9.6461   9.8651   9.8655   9.8656  10.2919  10.2919  10.4036
    10.4037  10.4040  10.9288  10.9290  10.9293  13.5900  13.5902  13.5903
    20.7312  20.7312

          k = 0.1875 0.1875 0.3125 (  3906 PWs)   bands (ev):

     5.0606   7.7504   8.2215   8.2217   8.5810   8.5812   8.5940   9.1890
     9.5075   9.5078   9.5683   9.6624   9.6949  10.1867  10.2580  10.2584
    10.2657  10.4536  10.8809  10.8813  10.8908  12.0264  14.4267  14.4267
    18.8047  18.8047

          k = 0.1875 0.1875 0.4375 (  3895 PWs)   bands (ev):

     5.9995   7.0181   8.4478   8.4480   8.6888   8.6893   8.8086   9.0180
     9.2624   9.2629   9.4718   9.5775   9.8047   9.9749  10.1369  10.1375
    10.4763  10.6299  10.7852  10.8325  10.8329  11.0221  15.3636  15.3637
    17.3278  17.3279

          k = 0.1875 0.3125 0.3125 (  3893 PWs)   bands (ev):

     5.6851   7.9691   7.9695   8.2599   8.7341   8.7779   8.7783   9.1972
     9.3689   9.3693   9.4595   9.6208   9.6748  10.0573  10.0573  10.0660
    10.3151  10.6062  10.8381  10.8494  10.8495  12.6717  12.6722  14.9130
    17.0909  19.6127

          k = 0.1875 0.3125 0.4375 (  3896 PWs)   bands (ev):

     6.5145   7.3622   8.1433   8.2356   8.8859   8.9268   9.0031   9.1458
     9.3197   9.3738   9.4055   9.5129   9.7244   9.8618   9.9534   9.9648
    10.4618  10.7128  10.7722  10.7740  10.8976  11.4826  13.5313  14.5379
    16.9079  18.0218

          k = 0.1875 0.4375 0.4375 (  3902 PWs)   bands (ev):

     7.1371   7.7071   7.7072   7.9899   9.1061   9.2048   9.2051   9.2904
     9.3534   9.3535   9.4274   9.4599   9.6951   9.7921   9.7922   9.8118
    10.4663  10.6273  10.6273  10.6666  11.3549  12.1581  12.1585  13.1701
    17.7837  19.0911

          k = 0.3125 0.3125 0.3125 (  3908 PWs)   bands (ev):

     6.2101   7.9435   7.9436   7.9437   8.9803   8.9806   8.9810   9.3592
     9.4904   9.4908   9.4910   9.5937   9.5937   9.8572   9.8573   9.8576
    10.5463  10.5463  10.8939  10.8941  10.8943  13.0630  13.0634  13.0638
    17.7584  17.7585

          k = 0.3125 0.3125 0.4375 (  3896 PWs)   bands (ev):

     6.8575   7.4697   7.9162   7.9164   9.1118   9.1122   9.2673   9.4783
     9.5221   9.5252   9.5986   9.6406   9.6410   9.6910   9.7584   9.7588
    10.7388  10.7660  10.8447  10.8451  10.8612  11.6131  13.4856  13.4856
    16.5730  16.5730

          k = 0.3125 0.4375 0.4375 (  3893 PWs)   bands (ev):

     7.2323   7.5832   7.5834   7.7260   9.2723   9.3339   9.3340   9.4729
     9.5430   9.6040   9.6041   9.6249   9.8698   9.8703   9.8962   9.9093
    10.6830  10.8098  10.8098  10.8136  11.1528  12.0793  12.0801  12.8590
    16.4341  17.3267

          k = 0.4375 0.4375 0.4375 (  3903 PWs)   bands (ev):

     7.3491   7.5086   7.5088   7.5089   9.4096   9.4096   9.4097   9.4765
     9.4765   9.5054   9.5055   9.5058  10.3923  10.3926  10.3929  10.8271
    10.8271  10.8291  10.8727  10.8728  10.8731  11.9500  11.9508  11.9515
    16.3057  16.3060

          k = 0.1875 0.0625 0.0625 (  3892 PWs)   bands (ev):

     3.6620   7.6563   7.8581   7.8589   8.2460   8.2523   8.2523   9.3657
     9.5979   9.6009  10.2020  10.3394  10.3404  10.3404  10.6275  10.6905
    10.6906  10.7114  10.8994  10.9790  10.9790  12.3247  14.6665  14.6665
    20.0862  20.0868

          k = 0.3125 0.0625 0.0625 (  3900 PWs)   bands (ev):

     4.3845   7.3746   8.1332   8.1341   8.4255   8.4584   8.4585   9.1742
     9.7392   9.7393   9.7427   9.7575  10.0663  10.1738  10.4245  10.4831
    10.4832  10.5080  10.7832  10.9758  10.9758  11.0326  15.8620  15.8621
    20.4024  20.4029

          k = 0.4375 0.0625 0.0625 (  3914 PWs)   bands (ev):

     5.3986   6.5349   8.3768   8.3777   8.6639   8.7664   8.7664   8.9268
     9.2033   9.2033   9.7738   9.7849   9.9792  10.1256  10.2430  10.2922
    10.2924  10.4516  10.5366  10.6606  10.9748  10.9748  17.2654  17.2658
    18.8677  18.8680

          k = 0.1875 0.1875 0.0625 (  3903 PWs)   bands (ev):

     4.0259   7.8414   7.8416   8.0068   8.3365   8.3402   8.3402   9.3154
     9.6359   9.6376  10.0800  10.0859  10.0864  10.1894  10.3518  10.5650
    10.6253  10.6254  10.8874  10.8876  10.9109  13.0622  13.0623  15.3201
    20.1084  20.4723

          k = 0.1875 0.3125 0.0625 (  3897 PWs)   bands (ev):

     4.7313   7.5959   8.1520   8.2556   8.4946   8.5048   8.5279   9.1682
     9.5229   9.6431   9.6818   9.7137   9.7642  10.1197  10.3935  10.4317
    10.4594  10.4740  10.7456  10.8561  10.8630  11.6735  14.0593  16.3758
    18.3270  20.7492

          k = 0.3125 0.0625 0.1875 (  3897 PWs)   bands (ev):

     4.7313   7.5959   8.1520   8.2556   8.4946   8.5048   8.5279   9.1682
     9.5229   9.6431   9.6818   9.7137   9.7642  10.1197  10.3935  10.4317
    10.4594  10.4740  10.7456  10.8561  10.8630  11.6734  14.0593  16.3758
    18.3270  20.7492

          k = 0.1875 0.4375 0.0625 (  3903 PWs)   bands (ev):

     5.7150   6.8049   8.4576   8.5148   8.6626   8.7213   8.7681   8.9555
     9.0829   9.2141   9.5431   9.6228   9.9498  10.1807  10.2230  10.2450
    10.2753  10.5076  10.6605  10.8426  10.8437  10.9580  15.2237  16.5554
    17.8379  19.3254

          k = 0.4375 0.0625 0.1875 (  3903 PWs)   bands (ev):

     5.7150   6.8049   8.4576   8.5148   8.6626   8.7213   8.7681   8.9555
     9.0829   9.2141   9.5430   9.6228   9.9498  10.1807  10.2230  10.2450
    10.2753  10.5076  10.6605  10.8427  10.8437  10.9580  15.2237  16.5554
    17.8379  19.3254

          k = 0.3125 0.3125 0.0625 (  3904 PWs)   bands (ev):

     5.3972   7.9683   7.9683   8.4134   8.6005   8.6633   8.6635   9.1153
     9.2966   9.2970   9.4455   9.6260   9.8193  10.0897  10.2489  10.3247
    10.3247  10.6671  10.6673  10.6725  10.7377  12.4677  12.4679  16.1931
    17.4865  21.2467

          k = 0.3125 0.4375 0.0625 (  3900 PWs)   bands (ev):

     6.3074   7.2815   8.3344   8.4868   8.7524   8.8329   8.8529   8.9949
     9.0319   9.1981   9.3256   9.5042   9.9248  10.1087  10.1331  10.1749
    10.1804  10.4232  10.6353  10.6580  10.9835  11.4894  13.4297  14.6561
    18.6769  20.1561

          k = 0.4375 0.0625 0.3125 (  3900 PWs)   bands (ev):

     6.3074   7.2815   8.3344   8.4868   8.7524   8.8329   8.8529   8.9949
     9.0319   9.1981   9.3256   9.5042   9.9248  10.1087  10.1331  10.1749
    10.1804  10.4232  10.6353  10.6580  10.9835  11.4894  13.4297  14.6561
    18.6769  20.1561

          k = 0.4375 0.4375 0.0625 (  3902 PWs)   bands (ev):

     7.0719   7.8169   7.8170   8.2295   8.9829   8.9832   8.9960   9.0133
     9.1284   9.1747   9.1750   9.3853   9.8992  10.0032  10.0035  10.0047
    10.2253  10.4059  10.4063  10.4931  11.4489  12.1857  12.1861  13.1929
    19.8573  21.3102

          k = 0.3125 0.1875 0.1875 (  3906 PWs)   bands (ev):

     5.0606   7.7504   8.2214   8.2218   8.5809   8.5812   8.5940   9.1890
     9.5076   9.5077   9.5683   9.6624   9.6949  10.1867  10.2581  10.2583
    10.2657  10.4536  10.8811  10.8811  10.8908  12.0264  14.4264  14.4270
    18.8046  18.8048

          k = 0.4375 0.1875 0.1875 (  3895 PWs)   bands (ev):

     5.9995   7.0181   8.4478   8.4480   8.6887   8.6894   8.8086   9.0180
     9.2626   9.2627   9.4718   9.5775   9.8047   9.9749  10.1371  10.1373
    10.4763  10.6299  10.7852  10.8327  10.8327  11.0221  15.3631  15.3642
    17.3275  17.3283

          k = 0.3125 0.3125 0.1875 (  3893 PWs)   bands (ev):

     5.6851   7.9693   7.9693   8.2599   8.7341   8.7780   8.7782   9.1972
     9.3689   9.3693   9.4595   9.6208   9.6748  10.0572  10.0573  10.0660
    10.3151  10.6062  10.8381  10.8493  10.8496  12.6718  12.6720  14.9130
    17.0909  19.6127

          k = 0.3125 0.4375 0.1875 (  3896 PWs)   bands (ev):

     6.5145   7.3622   8.1433   8.2356   8.8859   8.9268   9.0031   9.1458
     9.3197   9.3738   9.4055   9.5129   9.7244   9.8618   9.9534   9.9648
    10.4618  10.7128  10.7722  10.7740  10.8976  11.4826  13.5313  14.5379
    16.9079  18.0218

          k = 0.4375 0.1875 0.3125 (  3896 PWs)   bands (ev):

     6.5145   7.3622   8.1433   8.2356   8.8859   8.9269   9.0031   9.1458
     9.3197   9.3738   9.4055   9.5129   9.7244   9.8618   9.9534   9.9648
    10.4618  10.7128  10.7723  10.7740  10.8976  11.4826  13.5313  14.5379
    16.9079  18.0218

          k = 0.4375 0.4375 0.1875 (  3902 PWs)   bands (ev):

     7.1371   7.7071   7.7071   7.9899   9.1061   9.2049   9.2051   9.2904
     9.3534   9.3535   9.4274   9.4599   9.6951   9.7921   9.7922   9.8118
    10.4663  10.6272  10.6274  10.6666  11.3549  12.1581  12.1585  13.1701
    17.7837  19.0911

          k = 0.4375 0.3125 0.3125 (  3896 PWs)   bands (ev):

     6.8575   7.4697   7.9162   7.9164   9.1117   9.1123   9.2673   9.4783
     9.5221   9.5252   9.5986   9.6408   9.6409   9.6910   9.7585   9.7587
    10.7388  10.7660  10.8449  10.8449  10.8612  11.6130  13.4849  13.4863
    16.5726  16.5735

          k = 0.4375 0.4375 0.3125 (  3893 PWs)   bands (ev):

     7.2323   7.5833   7.5834   7.7260   9.2723   9.3338   9.3341   9.4729
     9.5430   9.6041   9.6041   9.6249   9.8700   9.8701   9.8962   9.9092
    10.6830  10.8097  10.8099  10.8136  11.1528  12.0795  12.0798  12.8591
    16.4341  17.3264

     the Fermi energy is    12.4226 ev

!    total energy              =    -490.98859860 Ry
     Harris-Foulkes estimate   =    -490.98859857 Ry
     estimated scf accuracy    <       0.00000015 Ry

     The total energy is the sum of the following terms:

     one-electron contribution =    -112.25535517 Ry
     hartree contribution      =     123.24755379 Ry
     xc contribution           =    -178.48688875 Ry
     ewald contribution        =    -323.49393522 Ry
     smearing contrib. (-TS)   =       0.00002675 Ry

     total magnetization       =     0.00 Bohr mag/cell
     absolute magnetization    =     0.00 Bohr mag/cell

     convergence has been achieved in   7 iterations

     Writing output data file cu-3.63.save/

     init_run     :      3.07s CPU      3.17s WALL (       1 calls)
     electrons    :     52.10s CPU     53.50s WALL (       1 calls)

     Called by init_run:
     wfcinit      :      2.53s CPU      2.60s WALL (       1 calls)
     potinit      :      0.08s CPU      0.09s WALL (       1 calls)
     hinit0       :      0.27s CPU      0.27s WALL (       1 calls)

     Called by electrons:
     c_bands      :     44.50s CPU     45.69s WALL (       8 calls)
     sum_band     :      6.45s CPU      6.65s WALL (       8 calls)
     v_of_rho     :      0.35s CPU      0.36s WALL (       8 calls)
     newd         :      0.88s CPU      0.91s WALL (       8 calls)
     mix_rho      :      0.04s CPU      0.04s WALL (       8 calls)

     Called by c_bands:
     init_us_2    :      0.50s CPU      0.51s WALL (    1360 calls)
     cegterg      :     42.07s CPU     43.25s WALL (     640 calls)

     Called by sum_band:
     sum_band:bec :      0.03s CPU      0.03s WALL (     640 calls)
     addusdens    :      1.03s CPU      1.04s WALL (       8 calls)

     Called by *egterg:
     h_psi        :     25.74s CPU     26.92s WALL (    2251 calls)
     s_psi        :      3.37s CPU      3.38s WALL (    2251 calls)
     g_psi        :      0.15s CPU      0.15s WALL (    1531 calls)
     cdiaghg      :      2.80s CPU      2.82s WALL (    2091 calls)

     Called by h_psi:
     h_psi:pot    :     25.66s CPU     26.84s WALL (    2251 calls)
     h_psi:calbec :      4.95s CPU      5.15s WALL (    2251 calls)
     vloc_psi     :     17.26s CPU     18.20s WALL (    2251 calls)
     add_vuspsi   :      3.44s CPU      3.48s WALL (    2251 calls)

     General routines
     calbec       :      6.66s CPU      6.94s WALL (    2891 calls)
     fft          :      0.20s CPU      0.21s WALL (     196 calls)
     ffts         :      0.01s CPU      0.01s WALL (      32 calls)
     fftw         :     18.71s CPU     19.66s WALL (  107902 calls)
     interpolate  :      0.02s CPU      0.02s WALL (      16 calls)

     Parallel routines
     fft_scatt_xy :      1.43s CPU      1.51s WALL (  108130 calls)
     fft_scatt_yz :      9.40s CPU      9.85s WALL (  108130 calls)

     PWSCF        :     56.65s CPU     58.21s WALL


   This run was terminated on:  20:16:30  17Mar2022            

=------------------------------------------------------------------------------=
   JOB DONE.
=------------------------------------------------------------------------------=
